<event>
 5    1  0.1256986E+001  0.9060787E+02  0.7546771E-02  0.1301386E+00
          4   -1    0    0  501    0  0.00000000000E+00  0.00000000000E+00  0.60730499581E+02  0.60730499581E+02  0.00000000000E+00 0. -1.
         -4   -1    0    0    0  501 -0.00000000000E+00 -0.00000000000E+00 -0.33795976920E+02  0.33795976920E+02  0.00000000000E+00 0.  1.
         23    2    1    2    0    0  0.00000000000E+00  0.00000000000E+00  0.26934522661E+02  0.94526476501E+02  0.90607870788E+02 0.  0.
        -13    1    3    3    0    0 -0.61980703634E+01  0.18977575346E+02 -0.28959494130E+02  0.35174091922E+02  0.00000000000E+00 0.  1.
         13    1    3    3    0    0  0.61980703634E+01 -0.18977575346E+02  0.55894016791E+02  0.59352384579E+02  0.00000000000E+00 0. -1.
<mgrwt>
<rscale>  0 0.90607871E+02</rscale>
<asrwt>0</asrwt>
<pdfrwt beam="1">  1        4 0.93431538E-02 0.90607871E+02</pdfrwt>
<pdfrwt beam="2">  1       -4 0.51993811E-02 0.90607871E+02</pdfrwt>
<totfact> 0.27260171E+04</totfact>
</mgrwt>
</event>
<event>
 5    1  0.1256986E+001  0.8891388E+02  0.7546771E-02  0.1305503E+00
          1   -1    0    0  501    0  0.00000000000E+00  0.00000000000E+00  0.15502351102E+03  0.15502351102E+03  0.00000000000E+00 0. -1.
         -1   -1    0    0    0  501 -0.00000000000E+00 -0.00000000000E+00 -0.12749160320E+02  0.12749160320E+02  0.00000000000E+00 0.  1.
         23    2    1    2    0    0  0.00000000000E+00  0.00000000000E+00  0.14227435070E+03  0.16777267134E+03  0.88913881829E+02 0.  0.
        -11    1    3    3    0    0 -0.34124443181E+02  0.24453142785E+02  0.43534949413E+02  0.60479133880E+02  0.00000000000E+00 0.  1.
         11    1    3    3    0    0  0.34124443181E+02 -0.24453142785E+02  0.98739401290E+02  0.10729353746E+03  0.00000000000E+00 0. -1.
<mgrwt>
<rscale>  0 0.88913882E+02</rscale>
<asrwt>0</asrwt>
<pdfrwt beam="1">  1        1 0.23849770E-01 0.88913882E+02</pdfrwt>
<pdfrwt beam="2">  1       -1 0.19614094E-02 0.88913882E+02</pdfrwt>
<totfact> 0.12070645E+05</totfact>
</mgrwt>
</event>
<event>
 5    1  0.1256986E+001  0.8833475E+02  0.7546771E-02  0.1306935E+00
         -2   -1    0    0    0  501 -0.00000000000E+00  0.00000000000E+00  0.12461479155E+02  0.12461479155E+02  0.00000000000E+00 0.  1.
          2   -1    0    0  501    0  0.00000000000E+00 -0.00000000000E+00 -0.15654297417E+03  0.15654297417E+03  0.00000000000E+00 0. -1.
         23    2    1    2    0    0  0.00000000000E+00  0.00000000000E+00 -0.14408149502E+03  0.16900445333E+03  0.88334749889E+02 0.  0.
        -11    1    3    3    0    0  0.20127370299E+02  0.38281738007E+02 -0.89169689761E+02  0.99105176818E+02  0.00000000000E+00 0.  1.
         11    1    3    3    0    0 -0.20127370299E+02 -0.38281738007E+02 -0.54911805256E+02  0.69899276509E+02  0.00000000000E+00 0. -1.
<mgrwt>
<rscale>  0 0.88334750E+02</rscale>
<asrwt>0</asrwt>
<pdfrwt beam="2">  1        2 0.24083534E-01 0.88334750E+02</pdfrwt>
<pdfrwt beam="1">  1       -2 0.19171507E-02 0.88334750E+02</pdfrwt>
<totfact> 0.15454358E+05</totfact>
</mgrwt>
</event>
<event>
 5    1  0.1256986E+001  0.9092572E+02  0.7546771E-02  0.1300625E+00
          1   -1    0    0  501    0  0.00000000000E+00  0.00000000000E+00  0.75202932512E+02  0.75202932512E+02  0.00000000000E+00 0. -1.
         -1   -1    0    0    0  501 -0.00000000000E+00 -0.00000000000E+00 -0.27483922613E+02  0.27483922613E+02  0.00000000000E+00 0.  1.
         23    2    1    2    0    0  0.00000000000E+00  0.00000000000E+00  0.47719009899E+02  0.10268685512E+03  0.90925718637E+02 0.  0.
        -13    1    3    3    0    0  0.72715272642E+01  0.29988420138E+02  0.61565063895E+02  0.68865358080E+02  0.00000000000E+00 0. -1.
         13    1    3    3    0    0 -0.72715272642E+01 -0.29988420138E+02 -0.13846053996E+02  0.33821497045E+02  0.00000000000E+00 0.  1.
<mgrwt>
<rscale>  0 0.90925719E+02</rscale>
<asrwt>0</asrwt>
<pdfrwt beam="1">  1        1 0.11569682E-01 0.90925719E+02</pdfrwt>
<pdfrwt beam="2">  1       -1 0.42282958E-02 0.90925719E+02</pdfrwt>
<totfact> 0.10053121E+05</totfact>
</mgrwt>
</event>
<event>
 5    1  0.1256986E+001  0.9110390E+02  0.7546771E-02  0.1300200E+00
         -1   -1    0    0    0  501 -0.00000000000E+00  0.00000000000E+00  0.84242637402E+01  0.84242637402E+01  0.00000000000E+00 0.  1.
          1   -1    0    0  501    0  0.00000000000E+00 -0.00000000000E+00 -0.24630996896E+03  0.24630996896E+03  0.00000000000E+00 0. -1.
         23    2    1    2    0    0  0.00000000000E+00  0.00000000000E+00 -0.23788570522E+03  0.25473423270E+03  0.91103899814E+02 0.  0.
        -13    1    3    3    0    0 -0.42496789813E+02 -0.15115663750E+02 -0.10114434932E+03  0.11074583439E+03  0.00000000000E+00 0.  1.
         13    1    3    3    0    0  0.42496789813E+02  0.15115663750E+02 -0.13674135589E+03  0.14398839830E+03  0.00000000000E+00 0. -1.
<mgrwt>
<rscale>  0 0.91103900E+02</rscale>
<asrwt>0</asrwt>
<pdfrwt beam="2">  1        1 0.37893841E-01 0.91103900E+02</pdfrwt>
<pdfrwt beam="1">  1       -1 0.12960406E-02 0.91103900E+02</pdfrwt>
<totfact> 0.12357643E+05</totfact>
</mgrwt>
</event>
<event>
 5    1  0.1256986E+001  0.9238854E+02  0.7546771E-02  0.1297168E+00
          1   -1    0    0  501    0  0.00000000000E+00  0.00000000000E+00  0.23040872398E+03  0.23040872398E+03  0.00000000000E+00 0.  1.
         -1   -1    0    0    0  501 -0.00000000000E+00 -0.00000000000E+00 -0.92614136116E+01  0.92614136116E+01  0.00000000000E+00 0. -1.
         23    2    1    2    0    0  0.00000000000E+00  0.00000000000E+00  0.22114731037E+03  0.23967013759E+03  0.92388538088E+02 0.  0.
        -13    1    3    3    0    0 -0.34515923295E+02  0.91981524707E+01  0.18655871631E+03  0.18994764963E+03  0.00000000000E+00 0.  1.
         13    1    3    3    0    0  0.34515923295E+02 -0.91981524707E+01  0.34588594056E+02  0.49722487956E+02  0.00000000000E+00 0. -1.
<mgrwt>
<rscale>  0 0.92388538E+02</rscale>
<asrwt>0</asrwt>
<pdfrwt beam="1">  1        1 0.35447492E-01 0.92388538E+02</pdfrwt>
<pdfrwt beam="2">  1       -1 0.14248330E-02 0.92388538E+02</pdfrwt>
<totfact> 0.11748731E+05</totfact>
</mgrwt>
</event>
<event>
 5    1  0.1256986E+001  0.9129850E+02  0.7546771E-02  0.1299737E+00
          2   -1    0    0  501    0  0.00000000000E+00  0.00000000000E+00  0.23980867911E+02  0.23980867911E+02  0.00000000000E+00 0. -1.
         -2   -1    0    0    0  501 -0.00000000000E+00 -0.00000000000E+00 -0.86896524433E+02  0.86896524433E+02  0.00000000000E+00 0.  1.
         23    2    1    2    0    0  0.00000000000E+00  0.00000000000E+00 -0.62915656522E+02  0.11087739234E+03  0.91298501069E+02 0.  0.
        -13    1    3    3    0    0  0.18586352188E+02  0.86711587858E+01 -0.80986107354E+02  0.83542749935E+02  0.00000000000E+00 0.  1.
         13    1    3    3    0    0 -0.18586352188E+02 -0.86711587858E+01  0.18070450832E+02  0.27334642409E+02  0.00000000000E+00 0. -1.
<mgrwt>
<rscale>  0 0.91298501E+02</rscale>
<asrwt>0</asrwt>
<pdfrwt beam="1">  1        2 0.36893643E-02 0.91298501E+02</pdfrwt>
<pdfrwt beam="2">  1       -2 0.13368696E-01 0.91298501E+02</pdfrwt>
<totfact> 0.82859247E+04</totfact>
</mgrwt>
</event>
<event>
 5    1  0.1256986E+001  0.8581310E+02  0.7546771E-02  0.1313320E+00
         -1   -1    0    0    0  501 -0.00000000000E+00  0.00000000000E+00  0.51118383095E+02  0.51118383095E+02  0.00000000000E+00 0.  1.
          1   -1    0    0  501    0  0.00000000000E+00 -0.00000000000E+00 -0.36013891912E+02  0.36013891912E+02  0.00000000000E+00 0. -1.
         23    2    1    2    0    0  0.00000000000E+00  0.00000000000E+00  0.15104491184E+02  0.87132275007E+02  0.85813097450E+02 0.  0.
        -11    1    3    3    0    0  0.27101963492E+02 -0.25181903211E+02 -0.14514941438E+02  0.39740762441E+02  0.00000000000E+00 0. -1.
         11    1    3    3    0    0 -0.27101963492E+02  0.25181903211E+02  0.29619432622E+02  0.47391512566E+02  0.00000000000E+00 0.  1.
<mgrwt>
<rscale>  0 0.85813097E+02</rscale>
<asrwt>0</asrwt>
<pdfrwt beam="2">  1        1 0.55405988E-02 0.85813097E+02</pdfrwt>
<pdfrwt beam="1">  1       -1 0.78643666E-02 0.85813097E+02</pdfrwt>
<totfact> 0.10587210E+05</totfact>
</mgrwt>
</event>
<event>
 5    1  0.1256986E+001  0.9210928E+02  0.7546771E-02  0.1297823E+00
          3   -1    0    0  501    0  0.00000000000E+00  0.00000000000E+00  0.12901883293E+03  0.12901883293E+03  0.00000000000E+00 0. -1.
         -3   -1    0    0    0  501 -0.00000000000E+00 -0.00000000000E+00 -0.16439690824E+02  0.16439690824E+02  0.00000000000E+00 0.  1.
         23    2    1    2    0    0  0.00000000000E+00  0.00000000000E+00  0.11257914211E+03  0.14545852376E+03  0.92109276925E+02 0.  0.
        -11    1    3    3    0    0  0.20064814943E+02 -0.36687087252E+02  0.86768060199E+02  0.96318406551E+02  0.00000000000E+00 0. -1.
         11    1    3    3    0    0 -0.20064814943E+02  0.36687087252E+02  0.25811081910E+02  0.49140117207E+02  0.00000000000E+00 0.  1.
<mgrwt>
<rscale>  0 0.92109277E+02</rscale>
<asrwt>0</asrwt>
<pdfrwt beam="1">  1        3 0.19849051E-01 0.92109277E+02</pdfrwt>
<pdfrwt beam="2">  1       -3 0.25291833E-02 0.92109277E+02</pdfrwt>
<totfact> 0.30726550E+04</totfact>
</mgrwt>
</event>
<event>
 5    1  0.1256986E+001  0.9451401E+02  0.7546771E-02  0.1292274E+00
         -3   -1    0    0    0  501 -0.00000000000E+00  0.00000000000E+00  0.20463119730E+02  0.20463119730E+02  0.00000000000E+00 0.  1.
          3   -1    0    0  501    0  0.00000000000E+00 -0.00000000000E+00 -0.10913411079E+03  0.10913411079E+03  0.00000000000E+00 0. -1.
         23    2    1    2    0    0  0.00000000000E+00  0.00000000000E+00 -0.88670991056E+02  0.12959723052E+03  0.94514006913E+02 0.  0.
        -11    1    3    3    0    0 -0.32628476887E+02  0.22542347109E+01  0.24366681142E+01  0.32796896646E+02  0.00000000000E+00 0.  1.
         11    1    3    3    0    0  0.32628476887E+02 -0.22542347109E+01 -0.91107659170E+02  0.96800333871E+02  0.00000000000E+00 0. -1.
<mgrwt>
<rscale>  0 0.94514007E+02</rscale>
<asrwt>0</asrwt>
<pdfrwt beam="2">  1        3 0.16789863E-01 0.94514007E+02</pdfrwt>
<pdfrwt beam="1">  1       -3 0.31481722E-02 0.94514007E+02</pdfrwt>
<totfact> 0.29562206E+04</totfact>
</mgrwt>
</event>
<event>
 5    1  0.1256986E+001  0.8788113E+02  0.7546771E-02  0.1308066E+00
          2   -1    0    0  501    0  0.00000000000E+00  0.00000000000E+00  0.94857775657E+02  0.94857775657E+02  0.00000000000E+00 0.  1.
         -2   -1    0    0    0  501 -0.00000000000E+00 -0.00000000000E+00 -0.20354400870E+02  0.20354400870E+02  0.00000000000E+00 0. -1.
         23    2    1    2    0    0  0.00000000000E+00  0.00000000000E+00  0.74503374787E+02  0.11521217653E+03  0.87881128608E+02 0.  0.
        -13    1    3    3    0    0 -0.66367435309E+00 -0.32165147819E+02 -0.19850392126E+01  0.32233175123E+02  0.00000000000E+00 0. -1.
         13    1    3    3    0    0  0.66367435309E+00  0.32165147819E+02  0.76488414000E+02  0.82979001404E+02  0.00000000000E+00 0.  1.
<mgrwt>
<rscale>  0 0.87881129E+02</rscale>
<asrwt>0</asrwt>
<pdfrwt beam="1">  1        2 0.14593504E-01 0.87881129E+02</pdfrwt>
<pdfrwt beam="2">  1       -2 0.31314463E-02 0.87881129E+02</pdfrwt>
<totfact> 0.13359341E+05</totfact>
</mgrwt>
</event>
<event>
 5    1  0.1256986E+001  0.9655783E+02  0.7546771E-02  0.1287706E+00
         -2   -1    0    0    0  501 -0.00000000000E+00  0.00000000000E+00  0.21718227380E+02  0.21718227380E+02  0.00000000000E+00 0.  1.
          2   -1    0    0  501    0  0.00000000000E+00 -0.00000000000E+00 -0.10732245315E+03  0.10732245315E+03  0.00000000000E+00 0. -1.
         23    2    1    2    0    0  0.00000000000E+00  0.00000000000E+00 -0.85604225773E+02  0.12904068053E+03  0.96557826002E+02 0.  0.
        -11    1    3    3    0    0 -0.72827499876E+01  0.46317204980E+02 -0.58187157098E+02  0.74726616247E+02  0.00000000000E+00 0.  1.
         11    1    3    3    0    0  0.72827499876E+01 -0.46317204980E+02 -0.27417068675E+02  0.54314064286E+02  0.00000000000E+00 0. -1.
<mgrwt>
<rscale>  0 0.96557826E+02</rscale>
<asrwt>0</asrwt>
<pdfrwt beam="2">  1        2 0.16511146E-01 0.96557826E+02</pdfrwt>
<pdfrwt beam="1">  1       -2 0.33412658E-02 0.96557826E+02</pdfrwt>
<totfact> 0.10702641E+05</totfact>
</mgrwt>
</event>
<event>
 5    1  0.1256986E+001  0.9136461E+02  0.7546771E-02  0.1299580E+00
         -1   -1    0    0    0  501 -0.00000000000E+00  0.00000000000E+00  0.12362033290E+02  0.12362033290E+02  0.00000000000E+00 0.  1.
          1   -1    0    0  501    0  0.00000000000E+00 -0.00000000000E+00 -0.16881306861E+03  0.16881306861E+03  0.00000000000E+00 0. -1.
         23    2    1    2    0    0  0.00000000000E+00  0.00000000000E+00 -0.15645103532E+03  0.18117510190E+03  0.91364605269E+02 0.  0.
        -13    1    3    3    0    0  0.29292657381E+02 -0.33849089394E+02 -0.60153944591E+02  0.74982115729E+02  0.00000000000E+00 0.  1.
         13    1    3    3    0    0 -0.29292657381E+02  0.33849089394E+02 -0.96297090733E+02  0.10619298618E+03  0.00000000000E+00 0. -1.
<mgrwt>
<rscale>  0 0.91364605E+02</rscale>
<asrwt>0</asrwt>
<pdfrwt beam="2">  1        1 0.25971240E-01 0.91364605E+02</pdfrwt>
<pdfrwt beam="1">  1       -1 0.19018513E-02 0.91364605E+02</pdfrwt>
<totfact> 0.11399096E+05</totfact>
</mgrwt>
</event>
<event>
 5    1  0.1256986E+001  0.9247995E+02  0.7546771E-02  0.1296955E+00
          3   -1    0    0  501    0  0.00000000000E+00  0.00000000000E+00  0.13509714155E+02  0.13509714155E+02  0.00000000000E+00 0. -1.
         -3   -1    0    0    0  501 -0.00000000000E+00 -0.00000000000E+00 -0.15826650326E+03  0.15826650326E+03  0.00000000000E+00 0.  1.
         23    2    1    2    0    0  0.00000000000E+00  0.00000000000E+00 -0.14475678911E+03  0.17177621742E+03  0.92479948517E+02 0.  0.
        -13    1    3    3    0    0 -0.44194087847E+02 -0.30079620315E+01 -0.97018056906E+02  0.10665209141E+03  0.00000000000E+00 0.  1.
         13    1    3    3    0    0  0.44194087847E+02  0.30079620315E+01 -0.47738732204E+02  0.65124126011E+02  0.00000000000E+00 0. -1.
<mgrwt>
<rscale>  0 0.92479949E+02</rscale>
<asrwt>0</asrwt>
<pdfrwt beam="1">  1        3 0.20784174E-02 0.92479949E+02</pdfrwt>
<pdfrwt beam="2">  1       -3 0.24348694E-01 0.92479949E+02</pdfrwt>
<totfact> 0.28893084E+04</totfact>
</mgrwt>
</event>
<event>
 5    1  0.1256986E+001  0.9225462E+02  0.7546771E-02  0.1297482E+00
         -3   -1    0    0    0  501 -0.00000000000E+00  0.00000000000E+00  0.85827778767E+02  0.85827778767E+02  0.00000000000E+00 0.  1.
          3   -1    0    0  501    0  0.00000000000E+00 -0.00000000000E+00 -0.24790678793E+02  0.24790678793E+02  0.00000000000E+00 0. -1.
         23    2    1    2    0    0  0.00000000000E+00  0.00000000000E+00  0.61037099974E+02  0.11061845756E+03  0.92254623623E+02 0.  0.
        -13    1    3    3    0    0  0.15814478882E+02 -0.18012395347E+02 -0.16736803727E+02  0.29234649433E+02  0.00000000000E+00 0. -1.
         13    1    3    3    0    0 -0.15814478882E+02  0.18012395347E+02  0.77773903701E+02  0.81383808128E+02  0.00000000000E+00 0.  1.
<mgrwt>
<rscale>  0 0.92254624E+02</rscale>
<asrwt>0</asrwt>
<pdfrwt beam="2">  1        3 0.38139506E-02 0.92254624E+02</pdfrwt>
<pdfrwt beam="1">  1       -3 0.13204274E-01 0.92254624E+02</pdfrwt>
<totfact> 0.32834102E+04</totfact>
</mgrwt>
</event>
<event>
 5    1  0.1256986E+001  0.8990478E+02  0.7546771E-02  0.1303082E+00
          1   -1    0    0  501    0  0.00000000000E+00  0.00000000000E+00  0.20465712805E+03  0.20465712805E+03  0.00000000000E+00 0. -1.
         -1   -1    0    0    0  501 -0.00000000000E+00 -0.00000000000E+00 -0.98736718579E+01  0.98736718579E+01  0.00000000000E+00 0.  1.
         23    2    1    2    0    0  0.00000000000E+00  0.00000000000E+00  0.19478345619E+03  0.21453079991E+03  0.89904779089E+02 0.  0.
        -13    1    3    3    0    0 -0.34794714807E+02 -0.17652002963E+02  0.44117334059E+02  0.58894860146E+02  0.00000000000E+00 0.  1.
         13    1    3    3    0    0  0.34794714807E+02  0.17652002963E+02  0.15066612214E+03  0.15563593976E+03  0.00000000000E+00 0. -1.
<mgrwt>
<rscale>  0 0.89904779E+02</rscale>
<asrwt>0</asrwt>
<pdfrwt beam="1">  1        1 0.31485709E-01 0.89904779E+02</pdfrwt>
<pdfrwt beam="2">  1       -1 0.15190266E-02 0.89904779E+02</pdfrwt>
<totfact> 0.12349503E+05</totfact>
</mgrwt>
</event>
<event>
 5    1  0.1256986E+001  0.8817027E+02  0.7546771E-02  0.1307344E+00
         -3   -1    0    0    0  501 -0.00000000000E+00  0.00000000000E+00  0.13502421573E+02  0.13502421573E+02  0.00000000000E+00 0.  1.
          3   -1    0    0  501    0  0.00000000000E+00 -0.00000000000E+00 -0.14393707846E+03  0.14393707846E+03  0.00000000000E+00 0. -1.
         23    2    1    2    0    0  0.00000000000E+00  0.00000000000E+00 -0.13043465689E+03  0.15743950003E+03  0.88170269667E+02 0.  0.
        -13    1    3    3    0    0 -0.14189673038E+02  0.23071217807E+02 -0.31073894730E+01  0.27263231308E+02  0.00000000000E+00 0.  1.
         13    1    3    3    0    0  0.14189673038E+02 -0.23071217807E+02 -0.12732726741E+03  0.13017626873E+03  0.00000000000E+00 0. -1.
<mgrwt>
<rscale>  0 0.88170270E+02</rscale>
<asrwt>0</asrwt>
<pdfrwt beam="2">  1        3 0.22144166E-01 0.88170270E+02</pdfrwt>
<pdfrwt beam="1">  1       -3 0.20772956E-02 0.88170270E+02</pdfrwt>
<totfact> 0.33779042E+04</totfact>
</mgrwt>
</event>
<event>
 5    1  0.1256986E+001  0.8890256E+02  0.7546771E-02  0.1305531E+00
          3   -1    0    0  501    0  0.00000000000E+00  0.00000000000E+00  0.14423066527E+02  0.14423066527E+02  0.00000000000E+00 0. -1.
         -3   -1    0    0    0  501 -0.00000000000E+00 -0.00000000000E+00 -0.13699696521E+03  0.13699696521E+03  0.00000000000E+00 0.  1.
         23    2    1    2    0    0  0.00000000000E+00  0.00000000000E+00 -0.12257389868E+03  0.15142003174E+03  0.88902561115E+02 0.  0.
        -13    1    3    3    0    0 -0.16418183824E+02 -0.22308435239E+02 -0.12050132001E+03  0.12364380764E+03  0.00000000000E+00 0.  1.
         13    1    3    3    0    0  0.16418183824E+02  0.22308435239E+02 -0.20725786742E+01  0.27776224101E+02  0.00000000000E+00 0. -1.
<mgrwt>
<rscale>  0 0.88902561E+02</rscale>
<asrwt>0</asrwt>
<pdfrwt beam="1">  1        3 0.22189333E-02 0.88902561E+02</pdfrwt>
<pdfrwt beam="2">  1       -3 0.21076456E-01 0.88902561E+02</pdfrwt>
<totfact> 0.33425043E+04</totfact>
</mgrwt>
</event>
<event>
 5    1  0.1256986E+001  0.8812443E+02  0.7546771E-02  0.1307458E+00
          3   -1    0    0  501    0  0.00000000000E+00  0.00000000000E+00  0.19889703435E+02  0.19889703435E+02  0.00000000000E+00 0. -1.
         -3   -1    0    0    0  501 -0.00000000000E+00 -0.00000000000E+00 -0.97612246969E+02  0.97612246969E+02  0.00000000000E+00 0.  1.
         23    2    1    2    0    0  0.00000000000E+00  0.00000000000E+00 -0.77722543534E+02  0.11750195040E+03  0.88124426666E+02 0.  0.
        -11    1    3    3    0    0 -0.38985907615E+02  0.15127631878E+02 -0.57372112379E+02  0.70995109111E+02  0.00000000000E+00 0.  1.
         11    1    3    3    0    0  0.38985907615E+02 -0.15127631878E+02 -0.20350431155E+02  0.46506841293E+02  0.00000000000E+00 0. -1.
<mgrwt>
<rscale>  0 0.88124427E+02</rscale>
<asrwt>0</asrwt>
<pdfrwt beam="1">  1        3 0.30599544E-02 0.88124427E+02</pdfrwt>
<pdfrwt beam="2">  1       -3 0.15017269E-01 0.88124427E+02</pdfrwt>
<totfact> 0.36646895E+04</totfact>
</mgrwt>
</event>
<event>
 5    1  0.1256986E+001  0.9113180E+02  0.7546771E-02  0.1300134E+00
          3   -1    0    0  501    0  0.00000000000E+00  0.00000000000E+00  0.18051413881E+03  0.18051413881E+03  0.00000000000E+00 0. -1.
         -3   -1    0    0    0  501 -0.00000000000E+00 -0.00000000000E+00 -0.11501875773E+02  0.11501875773E+02  0.00000000000E+00 0.  1.
         23    2    1    2    0    0  0.00000000000E+00  0.00000000000E+00  0.16901226304E+03  0.19201601458E+03  0.91131799059E+02 0.  0.
        -13    1    3    3    0    0  0.24961813683E+02  0.36430240757E+02  0.60855270938E+02  0.75190548507E+02  0.00000000000E+00 0. -1.
         13    1    3    3    0    0 -0.24961813683E+02 -0.36430240757E+02  0.10815699210E+03  0.11682546608E+03  0.00000000000E+00 0.  1.
<mgrwt>
<rscale>  0 0.91131799E+02</rscale>
<asrwt>0</asrwt>
<pdfrwt beam="1">  1        3 0.27771404E-01 0.91131799E+02</pdfrwt>
<pdfrwt beam="2">  1       -3 0.17695195E-02 0.91131799E+02</pdfrwt>
<totfact> 0.28955325E+04</totfact>
</mgrwt>
</event>
<event>
 5    1  0.1256986E+001  0.9086940E+02  0.7546771E-02  0.1300760E+00
          1   -1    0    0  501    0  0.00000000000E+00  0.00000000000E+00  0.26119918463E+03  0.26119918463E+03  0.00000000000E+00 0. -1.
         -1   -1    0    0    0  501 -0.00000000000E+00 -0.00000000000E+00 -0.79032093084E+01  0.79032093084E+01  0.00000000000E+00 0.  1.
         23    2    1    2    0    0  0.00000000000E+00  0.00000000000E+00  0.25329597532E+03  0.26910239394E+03  0.90869396989E+02 0.  0.
        -11    1    3    3    0    0  0.18329795163E+02 -0.38036890975E+02  0.76959168316E+02  0.87780977744E+02  0.00000000000E+00 0.  1.
         11    1    3    3    0    0 -0.18329795163E+02  0.38036890975E+02  0.17633680700E+03  0.18132141619E+03  0.00000000000E+00 0. -1.
<mgrwt>
<rscale>  0 0.90869397E+02</rscale>
<asrwt>0</asrwt>
<pdfrwt beam="1">  1        1 0.40184483E-01 0.90869397E+02</pdfrwt>
<pdfrwt beam="2">  1       -1 0.12158786E-02 0.90869397E+02</pdfrwt>
<totfact> 0.12586166E+05</totfact>
</mgrwt>
</event>
<event>
 5    1  0.1256986E+001  0.9542718E+02  0.7546771E-02  0.1290217E+00
          1   -1    0    0  501    0  0.00000000000E+00  0.00000000000E+00  0.57344417064E+01  0.57344417064E+01  0.00000000000E+00 0. -1.
         -1   -1    0    0    0  501 -0.00000000000E+00 -0.00000000000E+00 -0.39700234957E+03  0.39700234957E+03  0.00000000000E+00 0.  1.
         23    2    1    2    0    0  0.00000000000E+00  0.00000000000E+00 -0.39126790786E+03  0.40273679128E+03  0.95427183358E+02 0.  0.
        -13    1    3    3    0    0  0.44033597437E+02  0.17779688400E+02 -0.17605959003E+03  0.18235145808E+03  0.00000000000E+00 0.  1.
         13    1    3    3    0    0 -0.44033597437E+02 -0.17779688400E+02 -0.21520831783E+03  0.22038533319E+03  0.00000000000E+00 0. -1.
<mgrwt>
<rscale>  0 0.95427183E+02</rscale>
<asrwt>0</asrwt>
<pdfrwt beam="1">  1        1 0.88222168E-03 0.95427183E+02</pdfrwt>
<pdfrwt beam="2">  1       -1 0.61077293E-01 0.95427183E+02</pdfrwt>
<totfact> 0.47461144E+04</totfact>
</mgrwt>
</event>
<event>
 5    1  0.1256986E+001  0.8874531E+02  0.7546771E-02  0.1305919E+00
         -1   -1    0    0    0  501 -0.00000000000E+00  0.00000000000E+00  0.92164719910E+02  0.92164719910E+02  0.00000000000E+00 0.  1.
          1   -1    0    0  501    0  0.00000000000E+00 -0.00000000000E+00 -0.21363191843E+02  0.21363191843E+02  0.00000000000E+00 0. -1.
         23    2    1    2    0    0  0.00000000000E+00  0.00000000000E+00  0.70801528066E+02  0.11352791175E+03  0.88745311823E+02 0.  0.
        -13    1    3    3    0    0 -0.48114181821E+01 -0.23350087643E+02  0.83275623092E+02  0.86621046745E+02  0.00000000000E+00 0.  1.
         13    1    3    3    0    0  0.48114181821E+01  0.23350087643E+02 -0.12474095026E+02  0.26906865008E+02  0.00000000000E+00 0. -1.
<mgrwt>
<rscale>  0 0.88745312E+02</rscale>
<asrwt>0</asrwt>
<pdfrwt beam="2">  1        1 0.32866450E-02 0.88745312E+02</pdfrwt>
<pdfrwt beam="1">  1       -1 0.14179187E-01 0.88745312E+02</pdfrwt>
<totfact> 0.88524760E+04</totfact>
</mgrwt>
</event>
<event>
 5    1  0.1256986E+001  0.9250677E+02  0.7546771E-02  0.1296892E+00
         -2   -1    0    0    0  501 -0.00000000000E+00  0.00000000000E+00  0.76699002671E+01  0.76699002671E+01  0.00000000000E+00 0. -1.
          2   -1    0    0  501    0  0.00000000000E+00 -0.00000000000E+00 -0.27893134399E+03  0.27893134399E+03  0.00000000000E+00 0.  1.
         23    2    1    2    0    0  0.00000000000E+00  0.00000000000E+00 -0.27126144372E+03  0.28660124425E+03  0.92506769260E+02 0.  0.
        -13    1    3    3    0    0 -0.35120210758E+02  0.25098429478E+02 -0.18710272570E+03  0.19201768234E+03  0.00000000000E+00 0.  1.
         13    1    3    3    0    0  0.35120210758E+02 -0.25098429478E+02 -0.84158718014E+02  0.94583561911E+02  0.00000000000E+00 0. -1.
<mgrwt>
<rscale>  0 0.92506769E+02</rscale>
<asrwt>0</asrwt>
<pdfrwt beam="2">  1        2 0.42912522E-01 0.92506769E+02</pdfrwt>
<pdfrwt beam="1">  1       -2 0.11799845E-02 0.92506769E+02</pdfrwt>
<totfact> 0.16820169E+05</totfact>
</mgrwt>
</event>
<event>
 5    1  0.1256986E+001  0.9723468E+02  0.7546771E-02  0.1286221E+00
         -2   -1    0    0    0  501 -0.00000000000E+00  0.00000000000E+00  0.21250231045E+02  0.21250231045E+02  0.00000000000E+00 0. -1.
          2   -1    0    0  501    0  0.00000000000E+00 -0.00000000000E+00 -0.11122918730E+03  0.11122918730E+03  0.00000000000E+00 0.  1.
         23    2    1    2    0    0  0.00000000000E+00  0.00000000000E+00 -0.89978956250E+02  0.13247941834E+03  0.97234683709E+02 0.  0.
        -13    1    3    3    0    0  0.24898280334E+02 -0.37964393561E+02 -0.68683405194E+02  0.82332434016E+02  0.00000000000E+00 0.  1.
         13    1    3    3    0    0 -0.24898280334E+02  0.37964393561E+02 -0.21295551056E+02  0.50146984324E+02  0.00000000000E+00 0. -1.
<mgrwt>
<rscale>  0 0.97234684E+02</rscale>
<asrwt>0</asrwt>
<pdfrwt beam="2">  1        2 0.17112183E-01 0.97234684E+02</pdfrwt>
<pdfrwt beam="1">  1       -2 0.32692663E-02 0.97234684E+02</pdfrwt>
<totfact> 0.10617877E+05</totfact>
</mgrwt>
</event>
<event>
 5    1  0.1256986E+001  0.9178917E+02  0.7546771E-02  0.1298576E+00
          4   -1    0    0  501    0  0.00000000000E+00  0.00000000000E+00  0.80725566719E+01  0.80725566719E+01  0.00000000000E+00 0. -1.
         -4   -1    0    0    0  501 -0.00000000000E+00 -0.00000000000E+00 -0.26092266843E+03  0.26092266843E+03  0.00000000000E+00 0.  1.
         23    2    1    2    0    0  0.00000000000E+00  0.00000000000E+00 -0.25285011176E+03  0.26899522510E+03  0.91789172082E+02 0.  0.
        -11    1    3    3    0    0 -0.12191223868E+02 -0.38547853399E+02 -0.19007662477E+03  0.19432880956E+03  0.00000000000E+00 0.  1.
         11    1    3    3    0    0  0.12191223868E+02  0.38547853399E+02 -0.62773486983E+02  0.74666415537E+02  0.00000000000E+00 0. -1.
<mgrwt>
<rscale>  0 0.91789172E+02</rscale>
<asrwt>0</asrwt>
<pdfrwt beam="1">  1        4 0.12419319E-02 0.91789172E+02</pdfrwt>
<pdfrwt beam="2">  1       -4 0.40141947E-01 0.91789172E+02</pdfrwt>
<totfact> 0.18477105E+04</totfact>
</mgrwt>
</event>
<event>
 4    1  0.1256986E+001  0.4161619E+02  0.7546771E-02  0.1496644E+00
         -1   -1    0    0    0  501 -0.00000000000E+00  0.00000000000E+00  0.72138791820E+02  0.72138791820E+02  0.00000000000E+00 0. -1.
          1   -1    0    0  501    0  0.00000000000E+00 -0.00000000000E+00 -0.60019983895E+01  0.60019983895E+01  0.00000000000E+00 0.  1.
        -13    1    1    2    0    0  0.14548046284E+02 -0.94473713633E+01  0.54647400558E+02  0.57334430006E+02  0.00000000000E+00 0. -1.
         13    1    1    2    0    0 -0.14548046284E+02  0.94473713633E+01  0.11489392873E+02  0.20806360204E+02  0.00000000000E+00 0.  1.
<mgrwt>
<rscale>  0 0.41616195E+02</rscale>
<asrwt>0</asrwt>
<pdfrwt beam="2">  1        1 0.92338442E-03 0.41616195E+02</pdfrwt>
<pdfrwt beam="1">  1       -1 0.11098275E-01 0.41616195E+02</pdfrwt>
<totfact> 0.61235499E+05</totfact>
</mgrwt>
</event>
<event>
 5    1  0.1256986E+001  0.8978046E+02  0.7546771E-02  0.1303384E+00
          1   -1    0    0  501    0  0.00000000000E+00  0.00000000000E+00  0.19442970457E+03  0.19442970457E+03  0.00000000000E+00 0. -1.
         -1   -1    0    0    0  501 -0.00000000000E+00 -0.00000000000E+00 -0.10364325242E+02  0.10364325242E+02  0.00000000000E+00 0.  1.
         23    2    1    2    0    0  0.00000000000E+00  0.00000000000E+00  0.18406537933E+03  0.20479402982E+03  0.89780458787E+02 0.  0.
        -11    1    3    3    0    0  0.30459595575E+02 -0.22048767962E+02  0.14796259413E+03  0.15266585864E+03  0.00000000000E+00 0. -1.
         11    1    3    3    0    0 -0.30459595575E+02  0.22048767962E+02  0.36102785196E+02  0.52128171176E+02  0.00000000000E+00 0.  1.
<mgrwt>
<rscale>  0 0.89780459E+02</rscale>
<asrwt>0</asrwt>
<pdfrwt beam="1">  1        1 0.29912260E-01 0.89780459E+02</pdfrwt>
<pdfrwt beam="2">  1       -1 0.15945117E-02 0.89780459E+02</pdfrwt>
<totfact> 0.12273167E+05</totfact>
</mgrwt>
</event>
<event>
 5    1  0.1256986E+001  0.1039386E+03  0.7546771E-02  0.1272225E+00
          2   -1    0    0  501    0  0.00000000000E+00  0.00000000000E+00  0.12906180620E+03  0.12906180620E+03  0.00000000000E+00 0. -1.
         -2   -1    0    0    0  501 -0.00000000000E+00 -0.00000000000E+00 -0.20926486251E+02  0.20926486251E+02  0.00000000000E+00 0.  1.
         23    2    1    2    0    0  0.00000000000E+00  0.00000000000E+00  0.10813531994E+03  0.14998829245E+03  0.10393863791E+03 0.  0.
        -13    1    3    3    0    0 -0.18190419858E+02 -0.44438056696E+02  0.25381221019E+02  0.54312416978E+02  0.00000000000E+00 0.  1.
         13    1    3    3    0    0  0.18190419858E+02  0.44438056696E+02  0.82754098925E+02  0.95675875468E+02  0.00000000000E+00 0. -1.
<mgrwt>
<rscale>  0 0.10393864E+03</rscale>
<asrwt>0</asrwt>
<pdfrwt beam="1">  1        2 0.19855662E-01 0.10393864E+03</pdfrwt>
<pdfrwt beam="2">  1       -2 0.32194595E-02 0.10393864E+03</pdfrwt>
<totfact> 0.92700559E+04</totfact>
</mgrwt>
</event>
<event>
 5    1  0.1256986E+001  0.9196753E+02  0.7546771E-02  0.1298156E+00
         -1   -1    0    0    0  501 -0.00000000000E+00  0.00000000000E+00  0.23155975362E+03  0.23155975362E+03  0.00000000000E+00 0.  1.
          1   -1    0    0  501    0  0.00000000000E+00 -0.00000000000E+00 -0.91315816840E+01  0.91315816840E+01  0.00000000000E+00 0. -1.
         23    2    1    2    0    0  0.00000000000E+00  0.00000000000E+00  0.22242817193E+03  0.24069133530E+03  0.91967533508E+02 0.  0.
        -13    1    3    3    0    0 -0.34961544063E+02  0.29740641882E+02  0.11847230998E+03  0.12705315255E+03  0.00000000000E+00 0.  1.
         13    1    3    3    0    0  0.34961544063E+02 -0.29740641882E+02  0.10395586196E+03  0.11363818275E+03  0.00000000000E+00 0. -1.
<mgrwt>
<rscale>  0 0.91967534E+02</rscale>
<asrwt>0</asrwt>
<pdfrwt beam="2">  1        1 0.14048589E-02 0.91967534E+02</pdfrwt>
<pdfrwt beam="1">  1       -1 0.35624573E-01 0.91967534E+02</pdfrwt>
<totfact> 0.64936644E+04</totfact>
</mgrwt>
</event>
<event>
 5    1  0.1256986E+001  0.8984179E+02  0.7546771E-02  0.1303235E+00
         -1   -1    0    0    0  501 -0.00000000000E+00  0.00000000000E+00  0.22624258492E+02  0.22624258492E+02  0.00000000000E+00 0.  1.
          1   -1    0    0  501    0  0.00000000000E+00 -0.00000000000E+00 -0.89191292151E+02  0.89191292151E+02  0.00000000000E+00 0. -1.
         23    2    1    2    0    0  0.00000000000E+00  0.00000000000E+00 -0.66567033659E+02  0.11181555064E+03  0.89841790919E+02 0.  0.
        -11    1    3    3    0    0  0.11776628680E+01 -0.41095917167E+02 -0.10756032899E+02  0.42496512108E+02  0.00000000000E+00 0.  1.
         11    1    3    3    0    0 -0.11776628680E+01  0.41095917167E+02 -0.55811000760E+02  0.69319038535E+02  0.00000000000E+00 0. -1.
<mgrwt>
<rscale>  0 0.89841791E+02</rscale>
<asrwt>0</asrwt>
<pdfrwt beam="2">  1        1 0.13721737E-01 0.89841791E+02</pdfrwt>
<pdfrwt beam="1">  1       -1 0.34806552E-02 0.89841791E+02</pdfrwt>
<totfact> 0.10672353E+05</totfact>
</mgrwt>
</event>
<event>
 5    1  0.1256986E+001  0.9222961E+02  0.7546771E-02  0.1297540E+00
         -2   -1    0    0    0  501 -0.00000000000E+00  0.00000000000E+00  0.13582113468E+02  0.13582113468E+02  0.00000000000E+00 0.  1.
          2   -1    0    0  501    0  0.00000000000E+00 -0.00000000000E+00 -0.15657173733E+03  0.15657173733E+03  0.00000000000E+00 0. -1.
         23    2    1    2    0    0  0.00000000000E+00  0.00000000000E+00 -0.14298962386E+03  0.17015385080E+03  0.92229607009E+02 0.  0.
        -11    1    3    3    0    0  0.42833318597E+02 -0.19083523476E+01 -0.10281675044E+03  0.11139847020E+03  0.00000000000E+00 0. -1.
         11    1    3    3    0    0 -0.42833318597E+02  0.19083523476E+01 -0.40172873416E+02  0.58755380598E+02  0.00000000000E+00 0.  1.
<mgrwt>
<rscale>  0 0.92229607E+02</rscale>
<asrwt>0</asrwt>
<pdfrwt beam="2">  1        2 0.24087960E-01 0.92229607E+02</pdfrwt>
<pdfrwt beam="1">  1       -2 0.20895559E-02 0.92229607E+02</pdfrwt>
<totfact> 0.13752043E+05</totfact>
</mgrwt>
</event>
<event>
 5    1  0.1256986E+001  0.8618748E+02  0.7546771E-02  0.1312356E+00
          1   -1    0    0  501    0  0.00000000000E+00  0.00000000000E+00  0.85068201292E+02  0.85068201292E+02  0.00000000000E+00 0. -1.
         -1   -1    0    0    0  501 -0.00000000000E+00 -0.00000000000E+00 -0.21830371825E+02  0.21830371825E+02  0.00000000000E+00 0.  1.
         23    2    1    2    0    0  0.00000000000E+00  0.00000000000E+00  0.63237829467E+02  0.10689857312E+03  0.86187480869E+02 0.  0.
        -11    1    3    3    0    0 -0.25196504558E+02  0.23324282026E+02 -0.68102024105E+00  0.34341662198E+02  0.00000000000E+00 0.  1.
         11    1    3    3    0    0  0.25196504558E+02 -0.23324282026E+02  0.63918849708E+02  0.72556910918E+02  0.00000000000E+00 0. -1.
<mgrwt>
<rscale>  0 0.86187481E+02</rscale>
<asrwt>0</asrwt>
<pdfrwt beam="1">  1        1 0.13087415E-01 0.86187481E+02</pdfrwt>
<pdfrwt beam="2">  1       -1 0.33585188E-02 0.86187481E+02</pdfrwt>
<totfact> 0.11860545E+05</totfact>
</mgrwt>
</event>
<event>
 5    1  0.1256986E+001  0.9140702E+02  0.7546771E-02  0.1299480E+00
          2   -1    0    0  501    0  0.00000000000E+00  0.00000000000E+00  0.48202823822E+02  0.48202823822E+02  0.00000000000E+00 0. -1.
         -2   -1    0    0    0  501 -0.00000000000E+00 -0.00000000000E+00 -0.43333782274E+02  0.43333782274E+02  0.00000000000E+00 0.  1.
         23    2    1    2    0    0  0.00000000000E+00  0.00000000000E+00  0.48690415480E+01  0.91536606096E+02  0.91407016634E+02 0.  0.
        -11    1    3    3    0    0 -0.27680755475E+02 -0.25310388118E+02  0.28586112665E+02  0.47159366065E+02  0.00000000000E+00 0. -1.
         11    1    3    3    0    0  0.27680755475E+02  0.25310388118E+02 -0.23717071117E+02  0.44377240031E+02  0.00000000000E+00 0.  1.
<mgrwt>
<rscale>  0 0.91407017E+02</rscale>
<asrwt>0</asrwt>
<pdfrwt beam="1">  1        2 0.74158191E-02 0.91407017E+02</pdfrwt>
<pdfrwt beam="2">  1       -2 0.66667357E-02 0.91407017E+02</pdfrwt>
<totfact> 0.99395946E+04</totfact>
</mgrwt>
</event>
<event>
 5    1  0.1256986E+001  0.9032169E+02  0.7546771E-02  0.1302075E+00
         -1   -1    0    0    0  501 -0.00000000000E+00  0.00000000000E+00  0.29636267132E+02  0.29636267132E+02  0.00000000000E+00 0.  1.
          1   -1    0    0  501    0  0.00000000000E+00 -0.00000000000E+00 -0.68817766524E+02  0.68817766524E+02  0.00000000000E+00 0. -1.
         23    2    1    2    0    0  0.00000000000E+00  0.00000000000E+00 -0.39181499392E+02  0.98454033656E+02  0.90321685373E+02 0.  0.
        -13    1    3    3    0    0 -0.31422067791E+02  0.21276355363E+02 -0.46279359859E+02  0.59848214599E+02  0.00000000000E+00 0. -1.
         13    1    3    3    0    0  0.31422067791E+02 -0.21276355363E+02  0.70978604669E+01  0.38605819057E+02  0.00000000000E+00 0.  1.
<mgrwt>
<rscale>  0 0.90321685E+02</rscale>
<asrwt>0</asrwt>
<pdfrwt beam="2">  1        1 0.10587349E-01 0.90321685E+02</pdfrwt>
<pdfrwt beam="1">  1       -1 0.45594258E-02 0.90321685E+02</pdfrwt>
<totfact> 0.10099731E+05</totfact>
</mgrwt>
</event>
<event>
 5    1  0.1256986E+001  0.9198759E+02  0.7546771E-02  0.1298109E+00
          1   -1    0    0  501    0  0.00000000000E+00  0.00000000000E+00  0.60122955363E+02  0.60122955363E+02  0.00000000000E+00 0.  1.
         -1   -1    0    0    0  501 -0.00000000000E+00 -0.00000000000E+00 -0.35185052409E+02  0.35185052409E+02  0.00000000000E+00 0. -1.
         23    2    1    2    0    0  0.00000000000E+00  0.00000000000E+00  0.24937902953E+02  0.95308007772E+02  0.91987593412E+02 0.  0.
        -13    1    3    3    0    0 -0.35528544185E+02  0.13115378090E+02  0.39509651216E+02  0.54729362627E+02  0.00000000000E+00 0.  1.
         13    1    3    3    0    0  0.35528544185E+02 -0.13115378090E+02 -0.14571748263E+02  0.40578645145E+02  0.00000000000E+00 0. -1.
<mgrwt>
<rscale>  0 0.91987593E+02</rscale>
<asrwt>0</asrwt>
<pdfrwt beam="1">  1        1 0.92496854E-02 0.91987593E+02</pdfrwt>
<pdfrwt beam="2">  1       -1 0.54130850E-02 0.91987593E+02</pdfrwt>
<totfact> 0.94059117E+04</totfact>
</mgrwt>
</event>
<event>
 5    1  0.1256986E+001  0.8983235E+02  0.7546771E-02  0.1303258E+00
          1   -1    0    0  501    0  0.00000000000E+00  0.00000000000E+00  0.14416976617E+03  0.14416976617E+03  0.00000000000E+00 0. -1.
         -1   -1    0    0    0  501 -0.00000000000E+00 -0.00000000000E+00 -0.13993661227E+02  0.13993661227E+02  0.00000000000E+00 0.  1.
         23    2    1    2    0    0  0.00000000000E+00  0.00000000000E+00  0.13017610494E+03  0.15816342740E+03  0.89832352012E+02 0.  0.
        -11    1    3    3    0    0 -0.13467097831E+02 -0.42018472325E+02  0.50299827826E+02  0.66910293826E+02  0.00000000000E+00 0.  1.
         11    1    3    3    0    0  0.13467097831E+02  0.42018472325E+02  0.79876277117E+02  0.91253133571E+02  0.00000000000E+00 0. -1.
<mgrwt>
<rscale>  0 0.89832352E+02</rscale>
<asrwt>0</asrwt>
<pdfrwt beam="1">  1        1 0.22179963E-01 0.89832352E+02</pdfrwt>
<pdfrwt beam="2">  1       -1 0.21528711E-02 0.89832352E+02</pdfrwt>
<totfact> 0.11587091E+05</totfact>
</mgrwt>
</event>
<event>
 5    1  0.1256986E+001  0.9349081E+02  0.7546771E-02  0.1294612E+00
         -1   -1    0    0    0  501 -0.00000000000E+00  0.00000000000E+00  0.36734256921E+03  0.36734256921E+03  0.00000000000E+00 0.  1.
          1   -1    0    0  501    0  0.00000000000E+00 -0.00000000000E+00 -0.59484881183E+01  0.59484881183E+01  0.00000000000E+00 0. -1.
         23    2    1    2    0    0  0.00000000000E+00  0.00000000000E+00  0.36139408109E+03  0.37329105733E+03  0.93490810421E+02 0.  0.
        -13    1    3    3    0    0 -0.14019140781E+02 -0.44227602232E+02  0.20346509332E+03  0.20868795199E+03  0.00000000000E+00 0.  1.
         13    1    3    3    0    0  0.14019140781E+02  0.44227602232E+02  0.15792898778E+03  0.16460310534E+03  0.00000000000E+00 0. -1.
<mgrwt>
<rscale>  0 0.93490810E+02</rscale>
<asrwt>0</asrwt>
<pdfrwt beam="2">  1        1 0.91515231E-03 0.93490810E+02</pdfrwt>
<pdfrwt beam="1">  1       -1 0.56514223E-01 0.93490810E+02</pdfrwt>
<totfact> 0.52011129E+04</totfact>
</mgrwt>
</event>
<event>
 5    1  0.1256986E+001  0.8933705E+02  0.7546771E-02  0.1304465E+00
          4   -1    0    0  501    0  0.00000000000E+00  0.00000000000E+00  0.76498601788E+02  0.76498601788E+02  0.00000000000E+00 0. -1.
         -4   -1    0    0    0  501 -0.00000000000E+00 -0.00000000000E+00 -0.26082532406E+02  0.26082532406E+02  0.00000000000E+00 0.  1.
         23    2    1    2    0    0  0.00000000000E+00  0.00000000000E+00  0.50416069382E+02  0.10258113419E+03  0.89337053011E+02 0.  0.
        -13    1    3    3    0    0 -0.34627943919E+02 -0.10245953803E+02 -0.49802711725E+01  0.36453767574E+02  0.00000000000E+00 0.  1.
         13    1    3    3    0    0  0.34627943919E+02  0.10245953803E+02  0.55396340555E+02  0.66127366621E+02  0.00000000000E+00 0. -1.
<mgrwt>
<rscale>  0 0.89337053E+02</rscale>
<asrwt>0</asrwt>
<pdfrwt beam="1">  1        4 0.11769016E-01 0.89337053E+02</pdfrwt>
<pdfrwt beam="2">  1       -4 0.40126973E-02 0.89337053E+02</pdfrwt>
<totfact> 0.27787669E+04</totfact>
</mgrwt>
</event>
<event>
 5    1  0.1256986E+001  0.6204786E+02  0.7546771E-02  0.1389433E+00
         -1   -1    0    0    0  501 -0.00000000000E+00  0.00000000000E+00  0.66819225211E+02  0.66819225211E+02  0.00000000000E+00 0.  1.
          1   -1    0    0  501    0  0.00000000000E+00 -0.00000000000E+00 -0.14404300791E+02  0.14404300791E+02  0.00000000000E+00 0. -1.
         23    2    1    2    0    0  0.00000000000E+00  0.00000000000E+00  0.52414924419E+02  0.81223526002E+02  0.62047859546E+02 0.  0.
        -13    1    3    3    0    0  0.21124614927E+02  0.18201530385E+02  0.44009489736E+02  0.52099714500E+02  0.00000000000E+00 0.  1.
         13    1    3    3    0    0 -0.21124614927E+02 -0.18201530385E+02  0.84054346838E+01  0.29123811502E+02  0.00000000000E+00 0. -1.
<mgrwt>
<rscale>  0 0.62047860E+02</rscale>
<asrwt>0</asrwt>
<pdfrwt beam="2">  1        1 0.22160463E-02 0.62047860E+02</pdfrwt>
<pdfrwt beam="1">  1       -1 0.10279881E-01 0.62047860E+02</pdfrwt>
<totfact> 0.23081901E+05</totfact>
</mgrwt>
</event>
<event>
 5    1  0.1256986E+001  0.8969455E+02  0.7546771E-02  0.1303593E+00
          1   -1    0    0  501    0  0.00000000000E+00  0.00000000000E+00  0.12497134415E+02  0.12497134415E+02  0.00000000000E+00 0. -1.
         -1   -1    0    0    0  501 -0.00000000000E+00 -0.00000000000E+00 -0.16093912602E+03  0.16093912602E+03  0.00000000000E+00 0.  1.
         23    2    1    2    0    0  0.00000000000E+00  0.00000000000E+00 -0.14844199161E+03  0.17343626044E+03  0.89694545887E+02 0.  0.
        -13    1    3    3    0    0 -0.12762257651E+02  0.29665137119E+02 -0.14048602006E+02  0.35217308230E+02  0.00000000000E+00 0. -1.
         13    1    3    3    0    0  0.12762257651E+02 -0.29665137119E+02 -0.13439338960E+03  0.13821895221E+03  0.00000000000E+00 0.  1.
<mgrwt>
<rscale>  0 0.89694546E+02</rscale>
<asrwt>0</asrwt>
<pdfrwt beam="1">  1        1 0.19226360E-02 0.89694546E+02</pdfrwt>
<pdfrwt beam="2">  1       -1 0.24759867E-01 0.89694546E+02</pdfrwt>
<totfact> 0.76733134E+04</totfact>
</mgrwt>
</event>
<event>
 5    1  0.1256986E+001  0.9297737E+02  0.7546771E-02  0.1295798E+00
          2   -1    0    0  501    0  0.00000000000E+00  0.00000000000E+00  0.39151915411E+03  0.39151915411E+03  0.00000000000E+00 0. -1.
         -2   -1    0    0    0  501 -0.00000000000E+00 -0.00000000000E+00 -0.55200307414E+01  0.55200307414E+01  0.00000000000E+00 0.  1.
         23    2    1    2    0    0  0.00000000000E+00  0.00000000000E+00  0.38599912337E+03  0.39703918485E+03  0.92977368569E+02 0.  0.
        -11    1    3    3    0    0  0.30542615888E+02  0.31753794387E+02  0.25634419447E+03  0.26010286596E+03  0.00000000000E+00 0.  1.
         11    1    3    3    0    0 -0.30542615888E+02 -0.31753794387E+02  0.12965492890E+03  0.13693631889E+03  0.00000000000E+00 0. -1.
<mgrwt>
<rscale>  0 0.92977369E+02</rscale>
<asrwt>0</asrwt>
<pdfrwt beam="1">  1        2 0.60233695E-01 0.92977369E+02</pdfrwt>
<pdfrwt beam="2">  1       -2 0.84923580E-03 0.92977369E+02</pdfrwt>
<totfact> 0.18805631E+05</totfact>
</mgrwt>
</event>
<event>
 4    1  0.1256986E+001  0.1286130E+03  0.7546771E-02  0.1229528E+00
          2   -1    0    0  501    0  0.00000000000E+00  0.00000000000E+00  0.15994513800E+02  0.15994513800E+02  0.00000000000E+00 0.  1.
         -2   -1    0    0    0  501 -0.00000000000E+00 -0.00000000000E+00 -0.25854646425E+03  0.25854646425E+03  0.00000000000E+00 0. -1.
        -13    1    1    2    0    0  0.48946743918E+02  0.86758701989E+01 -0.20835916309E+03  0.21420689836E+03  0.00000000000E+00 0. -1.
         13    1    1    2    0    0 -0.48946743918E+02 -0.86758701989E+01 -0.34192787359E+02  0.60334079684E+02  0.00000000000E+00 0.  1.
<mgrwt>
<rscale>  0 0.12861299E+03</rscale>
<asrwt>0</asrwt>
<pdfrwt beam="1">  1        2 0.24606943E-02 0.12861299E+03</pdfrwt>
<pdfrwt beam="2">  1       -2 0.39776381E-01 0.12861299E+03</pdfrwt>
<totfact> 0.22726308E+04</totfact>
</mgrwt>
</event>
<event>
 5    1  0.1256986E+001  0.1179161E+03  0.7546771E-02  0.1246575E+00
         -1   -1    0    0    0  501 -0.00000000000E+00  0.00000000000E+00  0.19614614936E+03  0.19614614936E+03  0.00000000000E+00 0.  1.
          1   -1    0    0  501    0  0.00000000000E+00 -0.00000000000E+00 -0.17721740187E+02  0.17721740187E+02  0.00000000000E+00 0. -1.
         23    2    1    2    0    0  0.00000000000E+00  0.00000000000E+00  0.17842440917E+03  0.21386788955E+03  0.11791609046E+03 0.  0.
        -13    1    3    3    0    0  0.35606756164E+01 -0.33530990194E+02  0.17693083381E+03  0.18011531214E+03  0.00000000000E+00 0.  1.
         13    1    3    3    0    0 -0.35606756164E+01  0.33530990194E+02  0.14935753620E+01  0.33752577407E+02  0.00000000000E+00 0. -1.
<mgrwt>
<rscale>  0 0.11791609E+03</rscale>
<asrwt>0</asrwt>
<pdfrwt beam="2">  1        1 0.27264217E-02 0.11791609E+03</pdfrwt>
<pdfrwt beam="1">  1       -1 0.30176329E-01 0.11791609E+03</pdfrwt>
<totfact> 0.35558018E+04</totfact>
</mgrwt>
</event>
<event>
 5    1  0.1256986E+001  0.9077539E+02  0.7546771E-02  0.1300985E+00
         -2   -1    0    0    0  501 -0.00000000000E+00  0.00000000000E+00  0.63966518331E+01  0.63966518331E+01  0.00000000000E+00 0.  1.
          2   -1    0    0  501    0  0.00000000000E+00 -0.00000000000E+00 -0.32205015223E+03  0.32205015223E+03  0.00000000000E+00 0. -1.
         23    2    1    2    0    0  0.00000000000E+00  0.00000000000E+00 -0.31565350040E+03  0.32844680407E+03  0.90775386458E+02 0.  0.
        -11    1    3    3    0    0  0.57756084227E+00 -0.39728542245E+02 -0.23720990370E+03  0.24051450904E+03  0.00000000000E+00 0. -1.
         11    1    3    3    0    0 -0.57756084227E+00  0.39728542245E+02 -0.78443596705E+02  0.87932295031E+02  0.00000000000E+00 0.  1.
<mgrwt>
<rscale>  0 0.90775386E+02</rscale>
<asrwt>0</asrwt>
<pdfrwt beam="2">  1        2 0.49546175E-01 0.90775386E+02</pdfrwt>
<pdfrwt beam="1">  1       -2 0.98410032E-03 0.90775386E+02</pdfrwt>
<totfact> 0.18663663E+05</totfact>
</mgrwt>
</event>
<event>
 5    1  0.1256986E+001  0.9103437E+02  0.7546771E-02  0.1300366E+00
          2   -1    0    0  501    0  0.00000000000E+00  0.00000000000E+00  0.11974375792E+03  0.11974375792E+03  0.00000000000E+00 0. -1.
         -2   -1    0    0    0  501 -0.00000000000E+00 -0.00000000000E+00 -0.17302064955E+02  0.17302064955E+02  0.00000000000E+00 0.  1.
         23    2    1    2    0    0  0.00000000000E+00  0.00000000000E+00  0.10244169297E+03  0.13704582288E+03  0.91034373233E+02 0.  0.
        -13    1    3    3    0    0 -0.23181696875E+02 -0.23220011549E+02  0.37280851179E+01  0.33022092983E+02  0.00000000000E+00 0.  1.
         13    1    3    3    0    0  0.23181696875E+02  0.23220011549E+02  0.98713607848E+02  0.10402372989E+03  0.00000000000E+00 0. -1.
<mgrwt>
<rscale>  0 0.91034373E+02</rscale>
<asrwt>0</asrwt>
<pdfrwt beam="1">  1        2 0.18422116E-01 0.91034373E+02</pdfrwt>
<pdfrwt beam="2">  1       -2 0.26618562E-02 0.91034373E+02</pdfrwt>
<totfact> 0.13033180E+05</totfact>
</mgrwt>
</event>
<event>
 5    1  0.1256986E+001  0.8998580E+02  0.7546771E-02  0.1302886E+00
         -2   -1    0    0    0  501 -0.00000000000E+00  0.00000000000E+00  0.14026056188E+03  0.14026056188E+03  0.00000000000E+00 0.  1.
          2   -1    0    0  501    0  0.00000000000E+00 -0.00000000000E+00 -0.14432860074E+02  0.14432860074E+02  0.00000000000E+00 0. -1.
         23    2    1    2    0    0  0.00000000000E+00  0.00000000000E+00  0.12582770181E+03  0.15469342196E+03  0.89985800292E+02 0.  0.
        -13    1    3    3    0    0 -0.21540390494E+02  0.36759184445E+02  0.38053272808E+02  0.57125105121E+02  0.00000000000E+00 0. -1.
         13    1    3    3    0    0  0.21540390494E+02 -0.36759184445E+02  0.87774429000E+02  0.97568316835E+02  0.00000000000E+00 0.  1.
<mgrwt>
<rscale>  0 0.89985800E+02</rscale>
<asrwt>0</asrwt>
<pdfrwt beam="2">  1        2 0.22204401E-02 0.89985800E+02</pdfrwt>
<pdfrwt beam="1">  1       -2 0.21578547E-01 0.89985800E+02</pdfrwt>
<totfact> 0.73967125E+04</totfact>
</mgrwt>
</event>
<event>
 5    1  0.1256986E+001  0.9383972E+02  0.7546771E-02  0.1293811E+00
          2   -1    0    0  501    0  0.00000000000E+00  0.00000000000E+00  0.18679612526E+02  0.18679612526E+02  0.00000000000E+00 0. -1.
         -2   -1    0    0    0  501 -0.00000000000E+00 -0.00000000000E+00 -0.11785433603E+03  0.11785433603E+03  0.00000000000E+00 0.  1.
         23    2    1    2    0    0  0.00000000000E+00  0.00000000000E+00 -0.99174723501E+02  0.13653394855E+03  0.93839721474E+02 0.  0.
        -11    1    3    3    0    0 -0.23268914517E+02  0.39809392893E+02 -0.36966543023E+02  0.59099538479E+02  0.00000000000E+00 0.  1.
         11    1    3    3    0    0  0.23268914517E+02 -0.39809392893E+02 -0.62208180478E+02  0.77434410075E+02  0.00000000000E+00 0. -1.
<mgrwt>
<rscale>  0 0.93839721E+02</rscale>
<asrwt>0</asrwt>
<pdfrwt beam="1">  1        2 0.28737865E-02 0.93839721E+02</pdfrwt>
<pdfrwt beam="2">  1       -2 0.18131437E-01 0.93839721E+02</pdfrwt>
<totfact> 0.70569226E+04</totfact>
</mgrwt>
</event>
<event>
 5    1  0.1256986E+001  0.9085849E+02  0.7546771E-02  0.1300786E+00
         -4   -1    0    0    0  501 -0.00000000000E+00  0.00000000000E+00  0.72508156922E+02  0.72508156922E+02  0.00000000000E+00 0.  1.
          4   -1    0    0  501    0  0.00000000000E+00 -0.00000000000E+00 -0.28463229603E+02  0.28463229603E+02  0.00000000000E+00 0. -1.
         23    2    1    2    0    0  0.00000000000E+00  0.00000000000E+00  0.44044927320E+02  0.10097138653E+03  0.90858490380E+02 0.  0.
        -13    1    3    3    0    0  0.21709318913E+02  0.38936333911E+02  0.31741366186E+02  0.54725194869E+02  0.00000000000E+00 0. -1.
         13    1    3    3    0    0 -0.21709318913E+02 -0.38936333911E+02  0.12303561133E+02  0.46246191656E+02  0.00000000000E+00 0.  1.
<mgrwt>
<rscale>  0 0.90858490E+02</rscale>
<asrwt>0</asrwt>
<pdfrwt beam="2">  1        4 0.43789584E-02 0.90858490E+02</pdfrwt>
<pdfrwt beam="1">  1       -4 0.11155101E-01 0.90858490E+02</pdfrwt>
<totfact> 0.26649562E+04</totfact>
</mgrwt>
</event>
<event>
 5    1  0.1256986E+001  0.9150827E+02  0.7546771E-02  0.1299240E+00
         -1   -1    0    0    0  501 -0.00000000000E+00  0.00000000000E+00  0.11361168344E+03  0.11361168344E+03  0.00000000000E+00 0.  1.
          1   -1    0    0  501    0  0.00000000000E+00 -0.00000000000E+00 -0.18426283506E+02  0.18426283506E+02  0.00000000000E+00 0. -1.
         23    2    1    2    0    0  0.00000000000E+00  0.00000000000E+00  0.95185399933E+02  0.13203796694E+03  0.91508274787E+02 0.  0.
        -11    1    3    3    0    0  0.21061054652E+02  0.26522033156E+02  0.91983033208E+02  0.98019715690E+02  0.00000000000E+00 0.  1.
         11    1    3    3    0    0 -0.21061054652E+02 -0.26522033156E+02  0.32023667252E+01  0.34018251255E+02  0.00000000000E+00 0. -1.
<mgrwt>
<rscale>  0 0.91508275E+02</rscale>
<asrwt>0</asrwt>
<pdfrwt beam="2">  1        1 0.28348129E-02 0.91508275E+02</pdfrwt>
<pdfrwt beam="1">  1       -1 0.17478720E-01 0.91508275E+02</pdfrwt>
<totfact> 0.78659654E+04</totfact>
</mgrwt>
</event>
<event>
 5    1  0.1256986E+001  0.8502783E+02  0.7546771E-02  0.1315360E+00
         -4   -1    0    0    0  501 -0.00000000000E+00  0.00000000000E+00  0.11808752274E+02  0.11808752274E+02  0.00000000000E+00 0. -1.
          4   -1    0    0  501    0  0.00000000000E+00 -0.00000000000E+00 -0.15305876908E+03  0.15305876908E+03  0.00000000000E+00 0.  1.
         23    2    1    2    0    0  0.00000000000E+00  0.00000000000E+00 -0.14125001681E+03  0.16486752136E+03  0.85027832794E+02 0.  0.
        -13    1    3    3    0    0  0.23757421313E+02 -0.34339391218E+02 -0.55134459989E+02  0.69162255132E+02  0.00000000000E+00 0.  1.
         13    1    3    3    0    0 -0.23757421313E+02  0.34339391218E+02 -0.86115556822E+02  0.95705266227E+02  0.00000000000E+00 0. -1.
<mgrwt>
<rscale>  0 0.85027833E+02</rscale>
<asrwt>0</asrwt>
<pdfrwt beam="2">  1        4 0.23547503E-01 0.85027833E+02</pdfrwt>
<pdfrwt beam="1">  1       -4 0.18167311E-02 0.85027833E+02</pdfrwt>
<totfact> 0.27649509E+04</totfact>
</mgrwt>
</event>
<event>
 5    1  0.1256986E+001  0.9810829E+02  0.7546771E-02  0.1284325E+00
         -2   -1    0    0    0  501 -0.00000000000E+00  0.00000000000E+00  0.26530795991E+02  0.26530795991E+02  0.00000000000E+00 0.  1.
          2   -1    0    0  501    0  0.00000000000E+00 -0.00000000000E+00 -0.90698715767E+02  0.90698715767E+02  0.00000000000E+00 0. -1.
         23    2    1    2    0    0  0.00000000000E+00  0.00000000000E+00 -0.64167919775E+02  0.11722951176E+03  0.98108289654E+02 0.  0.
        -11    1    3    3    0    0 -0.22342270437E+01  0.23524902061E+02 -0.83449286495E+02  0.86730595547E+02  0.00000000000E+00 0. -1.
         11    1    3    3    0    0  0.22342270437E+01 -0.23524902061E+02  0.19281366720E+02  0.30498916211E+02  0.00000000000E+00 0.  1.
<mgrwt>
<rscale>  0 0.98108290E+02</rscale>
<asrwt>0</asrwt>
<pdfrwt beam="2">  1        2 0.13953648E-01 0.98108290E+02</pdfrwt>
<pdfrwt beam="1">  1       -2 0.40816610E-02 0.98108290E+02</pdfrwt>
<totfact> 0.97164548E+04</totfact>
</mgrwt>
</event>
<event>
 5    1  0.1256986E+001  0.9362738E+02  0.7546771E-02  0.1294298E+00
          2   -1    0    0  501    0  0.00000000000E+00  0.00000000000E+00  0.41520614175E+02  0.41520614175E+02  0.00000000000E+00 0. -1.
         -2   -1    0    0    0  501 -0.00000000000E+00 -0.00000000000E+00 -0.52781535589E+02  0.52781535589E+02  0.00000000000E+00 0.  1.
         23    2    1    2    0    0  0.00000000000E+00  0.00000000000E+00 -0.11260921414E+02  0.94302149764E+02  0.93627384344E+02 0.  0.
        -13    1    3    3    0    0 -0.40637752017E+02  0.12438038545E+02  0.14142375555E+02  0.44789937243E+02  0.00000000000E+00 0. -1.
         13    1    3    3    0    0  0.40637752017E+02 -0.12438038545E+02 -0.25403296970E+02  0.49512212522E+02  0.00000000000E+00 0.  1.
<mgrwt>
<rscale>  0 0.93627384E+02</rscale>
<asrwt>0</asrwt>
<pdfrwt beam="1">  1        2 0.63877868E-02 0.93627384E+02</pdfrwt>
<pdfrwt beam="2">  1       -2 0.81202362E-02 0.93627384E+02</pdfrwt>
<totfact> 0.89184890E+04</totfact>
</mgrwt>
</event>
<event>
 5    1  0.1256986E+001  0.9115903E+02  0.7546771E-02  0.1300069E+00
         -1   -1    0    0    0  501 -0.00000000000E+00  0.00000000000E+00  0.12741158050E+02  0.12741158050E+02  0.00000000000E+00 0.  1.
          1   -1    0    0  501    0  0.00000000000E+00 -0.00000000000E+00 -0.16305364378E+03  0.16305364378E+03  0.00000000000E+00 0. -1.
         23    2    1    2    0    0  0.00000000000E+00  0.00000000000E+00 -0.15031248573E+03  0.17579480184E+03  0.91159031284E+02 0.  0.
        -13    1    3    3    0    0  0.28519070261E+02  0.30968630411E+02 -0.41472016046E+02  0.59095867478E+02  0.00000000000E+00 0.  1.
         13    1    3    3    0    0 -0.28519070261E+02 -0.30968630411E+02 -0.10884046969E+03  0.11669893436E+03  0.00000000000E+00 0. -1.
<mgrwt>
<rscale>  0 0.91159031E+02</rscale>
<asrwt>0</asrwt>
<pdfrwt beam="2">  1        1 0.25085178E-01 0.91159031E+02</pdfrwt>
<pdfrwt beam="1">  1       -1 0.19601780E-02 0.91159031E+02</pdfrwt>
<totfact> 0.11394086E+05</totfact>
</mgrwt>
</event>
<event>
 5    1  0.1256986E+001  0.9037513E+02  0.7546771E-02  0.1301946E+00
          2   -1    0    0  501    0  0.00000000000E+00  0.00000000000E+00  0.43593676229E+02  0.43593676229E+02  0.00000000000E+00 0. -1.
         -2   -1    0    0    0  501 -0.00000000000E+00 -0.00000000000E+00 -0.46839732372E+02  0.46839732372E+02  0.00000000000E+00 0.  1.
         23    2    1    2    0    0  0.00000000000E+00  0.00000000000E+00 -0.32460561432E+01  0.90433408601E+02  0.90375132147E+02 0.  0.
        -11    1    3    3    0    0  0.18164403166E+02  0.24452432060E+02 -0.35021925597E+02  0.46415538870E+02  0.00000000000E+00 0.  1.
         11    1    3    3    0    0 -0.18164403166E+02 -0.24452432060E+02  0.31775869454E+02  0.44017869731E+02  0.00000000000E+00 0. -1.
<mgrwt>
<rscale>  0 0.90375132E+02</rscale>
<asrwt>0</asrwt>
<pdfrwt beam="1">  1        2 0.67067194E-02 0.90375132E+02</pdfrwt>
<pdfrwt beam="2">  1       -2 0.72061127E-02 0.90375132E+02</pdfrwt>
<totfact> 0.10004410E+05</totfact>
</mgrwt>
</event>
<event>
 5    1  0.1256986E+001  0.9277621E+02  0.7546771E-02  0.1296265E+00
          1   -1    0    0  501    0  0.00000000000E+00  0.00000000000E+00  0.20102229186E+02  0.20102229186E+02  0.00000000000E+00 0. -1.
         -1   -1    0    0    0  501 -0.00000000000E+00 -0.00000000000E+00 -0.10704566267E+03  0.10704566267E+03  0.00000000000E+00 0.  1.
         23    2    1    2    0    0  0.00000000000E+00  0.00000000000E+00 -0.86943433480E+02  0.12714789185E+03  0.92776213422E+02 0.  0.
        -13    1    3    3    0    0  0.99785681909E+01  0.45289268789E+02 -0.41991374593E+02  0.62561691400E+02  0.00000000000E+00 0. -1.
         13    1    3    3    0    0 -0.99785681909E+01 -0.45289268789E+02 -0.44952058887E+02  0.64586200452E+02  0.00000000000E+00 0.  1.
<mgrwt>
<rscale>  0 0.92776213E+02</rscale>
<asrwt>0</asrwt>
<pdfrwt beam="1">  1        1 0.30926507E-02 0.92776213E+02</pdfrwt>
<pdfrwt beam="2">  1       -1 0.16468563E-01 0.92776213E+02</pdfrwt>
<totfact> 0.76802096E+04</totfact>
</mgrwt>
</event>
<event>
 5    1  0.1256986E+001  0.9321390E+02  0.7546771E-02  0.1295250E+00
          2   -1    0    0  501    0  0.00000000000E+00  0.00000000000E+00  0.11022728763E+03  0.11022728763E+03  0.00000000000E+00 0. -1.
         -2   -1    0    0    0  501 -0.00000000000E+00 -0.00000000000E+00 -0.19706624518E+02  0.19706624518E+02  0.00000000000E+00 0.  1.
         23    2    1    2    0    0  0.00000000000E+00  0.00000000000E+00  0.90520663113E+02  0.12993391215E+03  0.93213899585E+02 0.  0.
        -11    1    3    3    0    0  0.17855555663E+02  0.20271499155E+02 -0.76807375039E+01  0.28084662622E+02  0.00000000000E+00 0.  1.
         11    1    3    3    0    0 -0.17855555663E+02 -0.20271499155E+02  0.98201400616E+02  0.10184924953E+03  0.00000000000E+00 0. -1.
<mgrwt>
<rscale>  0 0.93213900E+02</rscale>
<asrwt>0</asrwt>
<pdfrwt beam="1">  1        2 0.16958044E-01 0.93213900E+02</pdfrwt>
<pdfrwt beam="2">  1       -2 0.30317884E-02 0.93213900E+02</pdfrwt>
<totfact> 0.11896814E+05</totfact>
</mgrwt>
</event>
<event>
 5    1  0.1256986E+001  0.9175001E+02  0.7546771E-02  0.1298668E+00
          4   -1    0    0  501    0  0.00000000000E+00  0.00000000000E+00  0.18443035648E+02  0.18443035648E+02  0.00000000000E+00 0. -1.
         -4   -1    0    0    0  501 -0.00000000000E+00 -0.00000000000E+00 -0.11410897842E+03  0.11410897842E+03  0.00000000000E+00 0.  1.
         23    2    1    2    0    0  0.00000000000E+00  0.00000000000E+00 -0.95665942775E+02  0.13255201407E+03  0.91750007232E+02 0.  0.
        -11    1    3    3    0    0  0.13179152185E+02 -0.43926142248E+02 -0.49492772111E+02  0.67473924714E+02  0.00000000000E+00 0.  1.
         11    1    3    3    0    0 -0.13179152185E+02  0.43926142248E+02 -0.46173170663E+02  0.65078089356E+02  0.00000000000E+00 0. -1.
<mgrwt>
<rscale>  0 0.91750007E+02</rscale>
<asrwt>0</asrwt>
<pdfrwt beam="1">  1        4 0.28373901E-02 0.91750007E+02</pdfrwt>
<pdfrwt beam="2">  1       -4 0.17555227E-01 0.91750007E+02</pdfrwt>
<totfact> 0.24166992E+04</totfact>
</mgrwt>
</event>
<event>
 5    1  0.1256986E+001  0.9085058E+02  0.7546771E-02  0.1300805E+00
          2   -1    0    0  501    0  0.00000000000E+00  0.00000000000E+00  0.50318081780E+03  0.50318081780E+03  0.00000000000E+00 0.  1.
         -2   -1    0    0    0  501 -0.00000000000E+00 -0.00000000000E+00 -0.41008260068E+01  0.41008260068E+01  0.00000000000E+00 0. -1.
         23    2    1    2    0    0  0.00000000000E+00  0.00000000000E+00  0.49907999179E+03  0.50728164381E+03  0.90850580268E+02 0.  0.
        -11    1    3    3    0    0  0.44684225939E+02  0.81339608357E+01  0.24515896028E+03  0.24933061820E+03  0.00000000000E+00 0.  1.
         11    1    3    3    0    0 -0.44684225939E+02 -0.81339608357E+01  0.25392103151E+03  0.25795102560E+03  0.00000000000E+00 0. -1.
<mgrwt>
<rscale>  0 0.90850580E+02</rscale>
<asrwt>0</asrwt>
<pdfrwt beam="1">  1        2 0.77412384E-01 0.90850580E+02</pdfrwt>
<pdfrwt beam="2">  1       -2 0.63089671E-03 0.90850580E+02</pdfrwt>
<totfact> 0.21799830E+05</totfact>
</mgrwt>
</event>
<event>
 5    1  0.1256986E+001  0.9205627E+02  0.7546771E-02  0.1297947E+00
          2   -1    0    0  501    0  0.00000000000E+00  0.00000000000E+00  0.12954660129E+02  0.12954660129E+02  0.00000000000E+00 0.  1.
         -2   -1    0    0    0  501 -0.00000000000E+00 -0.00000000000E+00 -0.16353878453E+03  0.16353878453E+03  0.00000000000E+00 0. -1.
         23    2    1    2    0    0  0.00000000000E+00  0.00000000000E+00 -0.15058412441E+03  0.17649344466E+03  0.92056273475E+02 0.  0.
        -11    1    3    3    0    0  0.24114294182E+02  0.17206440162E+02 -0.77512801505E+01  0.30620958687E+02  0.00000000000E+00 0.  1.
         11    1    3    3    0    0 -0.24114294182E+02 -0.17206440162E+02 -0.14283284425E+03  0.14587248598E+03  0.00000000000E+00 0. -1.
<mgrwt>
<rscale>  0 0.92056273E+02</rscale>
<asrwt>0</asrwt>
<pdfrwt beam="1">  1        2 0.19930246E-02 0.92056273E+02</pdfrwt>
<pdfrwt beam="2">  1       -2 0.25159814E-01 0.92056273E+02</pdfrwt>
<totfact> 0.66010068E+04</totfact>
</mgrwt>
</event>
<event>
 5    1  0.1256986E+001  0.8738903E+02  0.7546771E-02  0.1309301E+00
          4   -1    0    0  501    0  0.00000000000E+00  0.00000000000E+00  0.21830818694E+02  0.21830818694E+02  0.00000000000E+00 0.  1.
         -4   -1    0    0    0  501 -0.00000000000E+00 -0.00000000000E+00 -0.87454830456E+02  0.87454830456E+02  0.00000000000E+00 0. -1.
         23    2    1    2    0    0  0.00000000000E+00  0.00000000000E+00 -0.65624011761E+02  0.10928564915E+03  0.87389027861E+02 0.  0.
        -13    1    3    3    0    0  0.27433887951E+02  0.28391616589E+02 -0.93990917439E+01  0.40583802511E+02  0.00000000000E+00 0.  1.
         13    1    3    3    0    0 -0.27433887951E+02 -0.28391616589E+02 -0.56224920017E+02  0.68701846639E+02  0.00000000000E+00 0. -1.
<mgrwt>
<rscale>  0 0.87389028E+02</rscale>
<asrwt>0</asrwt>
<pdfrwt beam="1">  1        4 0.33585875E-02 0.87389028E+02</pdfrwt>
<pdfrwt beam="2">  1       -4 0.13454589E-01 0.87389028E+02</pdfrwt>
<totfact> 0.29029932E+04</totfact>
</mgrwt>
</event>
<event>
 5    1  0.1256986E+001  0.9417956E+02  0.7546771E-02  0.1293035E+00
          3   -1    0    0  501    0  0.00000000000E+00  0.00000000000E+00  0.67742439585E+02  0.67742439585E+02  0.00000000000E+00 0. -1.
         -3   -1    0    0    0  501 -0.00000000000E+00 -0.00000000000E+00 -0.32733506202E+02  0.32733506202E+02  0.00000000000E+00 0.  1.
         23    2    1    2    0    0  0.00000000000E+00  0.00000000000E+00  0.35008933383E+02  0.10047594579E+03  0.94179563946E+02 0.  0.
        -11    1    3    3    0    0  0.34469898155E+02  0.20618270553E+02 -0.87184883197E+01  0.41101082686E+02  0.00000000000E+00 0.  1.
         11    1    3    3    0    0 -0.34469898155E+02 -0.20618270553E+02  0.43727421703E+02  0.59374863100E+02  0.00000000000E+00 0. -1.
<mgrwt>
<rscale>  0 0.94179564E+02</rscale>
<asrwt>0</asrwt>
<pdfrwt beam="1">  1        3 0.10421914E-01 0.94179564E+02</pdfrwt>
<pdfrwt beam="2">  1       -3 0.50359241E-02 0.94179564E+02</pdfrwt>
<totfact> 0.31702434E+04</totfact>
</mgrwt>
</event>
<event>
 4    1  0.1256986E+001  0.4492518E+02  0.7546771E-02  0.1474809E+00
          2   -1    0    0  501    0  0.00000000000E+00  0.00000000000E+00  0.18273732894E+03  0.18273732894E+03  0.00000000000E+00 0. -1.
         -2   -1    0    0    0  501 -0.00000000000E+00 -0.00000000000E+00 -0.27611648133E+01  0.27611648133E+01  0.00000000000E+00 0.  1.
        -11    1    1    2    0    0  0.21974144461E+02  0.44864600369E+01  0.84803636730E+02  0.87719143584E+02  0.00000000000E+00 0.  1.
         11    1    1    2    0    0 -0.21974144461E+02 -0.44864600369E+01  0.95172527393E+02  0.97779350165E+02  0.00000000000E+00 0. -1.
<mgrwt>
<rscale>  0 0.44925177E+02</rscale>
<asrwt>0</asrwt>
<pdfrwt beam="1">  1        2 0.28113426E-01 0.44925177E+02</pdfrwt>
<pdfrwt beam="2">  1       -2 0.42479473E-03 0.44925177E+02</pdfrwt>
<totfact> 0.93291568E+05</totfact>
</mgrwt>
</event>
<event>
 4    1  0.1256986E+001  0.2715494E+02  0.7546771E-02  0.1631849E+00
         -1   -1    0    0    0  501 -0.00000000000E+00  0.00000000000E+00  0.22134233441E+02  0.22134233441E+02  0.00000000000E+00 0. -1.
          1   -1    0    0  501    0  0.00000000000E+00 -0.00000000000E+00 -0.83286231857E+01  0.83286231857E+01  0.00000000000E+00 0.  1.
        -11    1    1    2    0    0  0.11405491410E+02 -0.56106959628E+01  0.12257354312E+02  0.17658082519E+02  0.00000000000E+00 0. -1.
         11    1    1    2    0    0 -0.11405491410E+02  0.56106959628E+01  0.15482559433E+01  0.12804774108E+02  0.00000000000E+00 0.  1.
<mgrwt>
<rscale>  0 0.27154940E+02</rscale>
<asrwt>0</asrwt>
<pdfrwt beam="2">  1        1 0.12813266E-02 0.27154940E+02</pdfrwt>
<pdfrwt beam="1">  1       -1 0.34052667E-02 0.27154940E+02</pdfrwt>
<totfact> 0.18701300E+06</totfact>
</mgrwt>
</event>
<event>
 5    1  0.1256986E+001  0.9109588E+02  0.7546771E-02  0.1300219E+00
          2   -1    0    0  501    0  0.00000000000E+00  0.00000000000E+00  0.42741469658E+02  0.42741469658E+02  0.00000000000E+00 0. -1.
         -2   -1    0    0    0  501 -0.00000000000E+00 -0.00000000000E+00 -0.48538689875E+02  0.48538689875E+02  0.00000000000E+00 0.  1.
         23    2    1    2    0    0  0.00000000000E+00  0.00000000000E+00 -0.57972202165E+01  0.91280159533E+02  0.91095882246E+02 0.  0.
        -13    1    3    3    0    0 -0.75650618746E+01 -0.34012437320E+02 -0.32292894684E+02  0.47506916346E+02  0.00000000000E+00 0.  1.
         13    1    3    3    0    0  0.75650618746E+01  0.34012437320E+02  0.26495674468E+02  0.43773243187E+02  0.00000000000E+00 0. -1.
<mgrwt>
<rscale>  0 0.91095882E+02</rscale>
<asrwt>0</asrwt>
<pdfrwt beam="1">  1        2 0.65756108E-02 0.91095882E+02</pdfrwt>
<pdfrwt beam="2">  1       -2 0.74674907E-02 0.91095882E+02</pdfrwt>
<totfact> 0.97288157E+04</totfact>
</mgrwt>
</event>
<event>
 5    1  0.1256986E+001  0.9065460E+02  0.7546771E-02  0.1301274E+00
         -3   -1    0    0    0  501 -0.00000000000E+00  0.00000000000E+00  0.74666647893E+01  0.74666647893E+01  0.00000000000E+00 0.  1.
          3   -1    0    0  501    0  0.00000000000E+00 -0.00000000000E+00 -0.27516491477E+03  0.27516491477E+03  0.00000000000E+00 0. -1.
         23    2    1    2    0    0  0.00000000000E+00  0.00000000000E+00 -0.26769824998E+03  0.28263157956E+03  0.90654601214E+02 0.  0.
        -13    1    3    3    0    0  0.20910797074E+02 -0.40041738796E+02 -0.14549851270E+03  0.15234966189E+03  0.00000000000E+00 0.  1.
         13    1    3    3    0    0 -0.20910797074E+02  0.40041738796E+02 -0.12219973728E+03  0.13028191766E+03  0.00000000000E+00 0. -1.
<mgrwt>
<rscale>  0 0.90654601E+02</rscale>
<asrwt>0</asrwt>
<pdfrwt beam="2">  1        3 0.42333066E-01 0.90654601E+02</pdfrwt>
<pdfrwt beam="1">  1       -3 0.11487176E-02 0.90654601E+02</pdfrwt>
<totfact> 0.25103040E+04</totfact>
</mgrwt>
</event>
<event>
 5    1  0.1256986E+001  0.9444125E+02  0.7546771E-02  0.1292440E+00
         -2   -1    0    0    0  501 -0.00000000000E+00  0.00000000000E+00  0.20406380616E+02  0.20406380616E+02  0.00000000000E+00 0. -1.
          2   -1    0    0  501    0  0.00000000000E+00 -0.00000000000E+00 -0.10926913011E+03  0.10926913011E+03  0.00000000000E+00 0.  1.
         23    2    1    2    0    0  0.00000000000E+00  0.00000000000E+00 -0.88862749497E+02  0.12967551073E+03  0.94441250704E+02 0.  0.
        -13    1    3    3    0    0 -0.26839282689E+02  0.37458373252E+02 -0.58588810418E+02  0.74539422644E+02  0.00000000000E+00 0. -1.
         13    1    3    3    0    0  0.26839282689E+02 -0.37458373252E+02 -0.30273939079E+02  0.55136088085E+02  0.00000000000E+00 0.  1.
<mgrwt>
<rscale>  0 0.94441251E+02</rscale>
<asrwt>0</asrwt>
<pdfrwt beam="2">  1        2 0.16810635E-01 0.94441251E+02</pdfrwt>
<pdfrwt beam="1">  1       -2 0.31394432E-02 0.94441251E+02</pdfrwt>
<totfact> 0.11443898E+05</totfact>
</mgrwt>
</event>
<event>
 5    1  0.1256986E+001  0.9043714E+02  0.7546771E-02  0.1301797E+00
         -2   -1    0    0    0  501 -0.00000000000E+00  0.00000000000E+00  0.28558583101E+02  0.28558583101E+02  0.00000000000E+00 0. -1.
          2   -1    0    0  501    0  0.00000000000E+00 -0.00000000000E+00 -0.71597357994E+02  0.71597357994E+02  0.00000000000E+00 0.  1.
         23    2    1    2    0    0  0.00000000000E+00  0.00000000000E+00 -0.43038774893E+02  0.10015594110E+03  0.90437140558E+02 0.  0.
        -13    1    3    3    0    0  0.42098113521E+02 -0.15378283303E+02 -0.28161991643E+02  0.52932414763E+02  0.00000000000E+00 0.  1.
         13    1    3    3    0    0 -0.42098113521E+02  0.15378283303E+02 -0.14876783251E+02  0.47223526332E+02  0.00000000000E+00 0. -1.
<mgrwt>
<rscale>  0 0.90437141E+02</rscale>
<asrwt>0</asrwt>
<pdfrwt beam="2">  1        2 0.11014978E-01 0.90437141E+02</pdfrwt>
<pdfrwt beam="1">  1       -2 0.43936282E-02 0.90437141E+02</pdfrwt>
<totfact> 0.11387463E+05</totfact>
</mgrwt>
</event>
<event>
 5    1  0.1256986E+001  0.9131290E+02  0.7546771E-02  0.1299703E+00
          1   -1    0    0  501    0  0.00000000000E+00  0.00000000000E+00  0.23718177136E+03  0.23718177136E+03  0.00000000000E+00 0. -1.
         -1   -1    0    0    0  501 -0.00000000000E+00 -0.00000000000E+00 -0.87886660472E+01  0.87886660472E+01  0.00000000000E+00 0.  1.
         23    2    1    2    0    0  0.00000000000E+00  0.00000000000E+00  0.22839310531E+03  0.24597043741E+03  0.91312899000E+02 0.  0.
        -13    1    3    3    0    0 -0.74003412612E+00 -0.41270158006E+02  0.16675757138E+03  0.17179016621E+03  0.00000000000E+00 0.  1.
         13    1    3    3    0    0  0.74003412612E+00  0.41270158006E+02  0.61635533930E+02  0.74180271199E+02  0.00000000000E+00 0. -1.
<mgrwt>
<rscale>  0 0.91312899E+02</rscale>
<asrwt>0</asrwt>
<pdfrwt beam="1">  1        1 0.36489498E-01 0.91312899E+02</pdfrwt>
<pdfrwt beam="2">  1       -1 0.13521027E-02 0.91312899E+02</pdfrwt>
<totfact> 0.12191995E+05</totfact>
</mgrwt>
</event>
<event>
 5    1  0.1256986E+001  0.9041621E+02  0.7546771E-02  0.1301847E+00
         -2   -1    0    0    0  501 -0.00000000000E+00  0.00000000000E+00  0.20155796064E+02  0.20155796064E+02  0.00000000000E+00 0.  1.
          2   -1    0    0  501    0  0.00000000000E+00 -0.00000000000E+00 -0.10139877006E+03  0.10139877006E+03  0.00000000000E+00 0. -1.
         23    2    1    2    0    0  0.00000000000E+00  0.00000000000E+00 -0.81242974000E+02  0.12155456613E+03  0.90416213824E+02 0.  0.
        -13    1    3    3    0    0 -0.28157794629E+02 -0.58007735018E+00  0.69207747898E+01  0.29001638088E+02  0.00000000000E+00 0.  1.
         13    1    3    3    0    0  0.28157794629E+02  0.58007735018E+00 -0.88163748790E+02  0.92552928040E+02  0.00000000000E+00 0. -1.
<mgrwt>
<rscale>  0 0.90416214E+02</rscale>
<asrwt>0</asrwt>
<pdfrwt beam="2">  1        2 0.15599811E-01 0.90416214E+02</pdfrwt>
<pdfrwt beam="1">  1       -2 0.31008917E-02 0.90416214E+02</pdfrwt>
<totfact> 0.12606639E+05</totfact>
</mgrwt>
</event>
<event>
 5    1  0.1256986E+001  0.6601254E+02  0.7546771E-02  0.1374203E+00
         -2   -1    0    0    0  501 -0.00000000000E+00  0.00000000000E+00  0.25213566984E+02  0.25213566984E+02  0.00000000000E+00 0. -1.
          2   -1    0    0  501    0  0.00000000000E+00 -0.00000000000E+00 -0.43207442733E+02  0.43207442733E+02  0.00000000000E+00 0.  1.
         23    2    1    2    0    0  0.00000000000E+00  0.00000000000E+00 -0.17993875749E+02  0.68421009718E+02  0.66012536736E+02 0.  0.
        -11    1    3    3    0    0 -0.50424781373E+01 -0.12955138307E+02 -0.40024938297E+02  0.42370483594E+02  0.00000000000E+00 0.  1.
         11    1    3    3    0    0  0.50424781373E+01  0.12955138307E+02  0.22031062548E+02  0.26050526124E+02  0.00000000000E+00 0. -1.
<mgrwt>
<rscale>  0 0.66012537E+02</rscale>
<asrwt>0</asrwt>
<pdfrwt beam="2">  1        2 0.66472988E-02 0.66012537E+02</pdfrwt>
<pdfrwt beam="1">  1       -2 0.38790103E-02 0.66012537E+02</pdfrwt>
<totfact> 0.23953850E+05</totfact>
</mgrwt>
</event>
<event>
 5    1  0.1256986E+001  0.9068039E+02  0.7546771E-02  0.1301212E+00
         -2   -1    0    0    0  501 -0.00000000000E+00  0.00000000000E+00  0.20474592017E+03  0.20474592017E+03  0.00000000000E+00 0.  1.
          2   -1    0    0  501    0  0.00000000000E+00 -0.00000000000E+00 -0.10040411811E+02  0.10040411811E+02  0.00000000000E+00 0. -1.
         23    2    1    2    0    0  0.00000000000E+00  0.00000000000E+00  0.19470550836E+03  0.21478633198E+03  0.90680391597E+02 0.  0.
        -11    1    3    3    0    0  0.27982118964E+02 -0.11806006071E+02  0.17612837790E+02  0.35108301242E+02  0.00000000000E+00 0. -1.
         11    1    3    3    0    0 -0.27982118964E+02  0.11806006071E+02  0.17709267057E+03  0.17967803074E+03  0.00000000000E+00 0.  1.
<mgrwt>
<rscale>  0 0.90680392E+02</rscale>
<asrwt>0</asrwt>
<pdfrwt beam="2">  1        2 0.15446789E-02 0.90680392E+02</pdfrwt>
<pdfrwt beam="1">  1       -2 0.31499369E-01 0.90680392E+02</pdfrwt>
<totfact> 0.62551175E+04</totfact>
</mgrwt>
</event>
<event>
 5    1  0.1256986E+001  0.9326863E+02  0.7546771E-02  0.1295124E+00
         -1   -1    0    0    0  501 -0.00000000000E+00  0.00000000000E+00  0.43920987701E+02  0.43920987701E+02  0.00000000000E+00 0.  1.
          1   -1    0    0  501    0  0.00000000000E+00 -0.00000000000E+00 -0.49515264613E+02  0.49515264613E+02  0.00000000000E+00 0. -1.
         23    2    1    2    0    0  0.00000000000E+00  0.00000000000E+00 -0.55942769118E+01  0.93436252314E+02  0.93268629840E+02 0.  0.
        -13    1    3    3    0    0 -0.30056611223E+01  0.26819491266E+02  0.35303307434E+02  0.44436951137E+02  0.00000000000E+00 0.  1.
         13    1    3    3    0    0  0.30056611223E+01 -0.26819491266E+02 -0.40897584346E+02  0.48999301177E+02  0.00000000000E+00 0. -1.
<mgrwt>
<rscale>  0 0.93268630E+02</rscale>
<asrwt>0</asrwt>
<pdfrwt beam="2">  1        1 0.76177329E-02 0.93268630E+02</pdfrwt>
<pdfrwt beam="1">  1       -1 0.67570751E-02 0.93268630E+02</pdfrwt>
<totfact> 0.87857088E+04</totfact>
</mgrwt>
</event>
<event>
 5    1  0.1256986E+001  0.8931605E+02  0.7546771E-02  0.1304516E+00
          3   -1    0    0  501    0  0.00000000000E+00  0.00000000000E+00  0.16153608545E+03  0.16153608545E+03  0.00000000000E+00 0. -1.
         -3   -1    0    0    0  501 -0.00000000000E+00 -0.00000000000E+00 -0.12346091978E+02  0.12346091978E+02  0.00000000000E+00 0.  1.
         23    2    1    2    0    0  0.00000000000E+00  0.00000000000E+00  0.14918999347E+03  0.17388217742E+03  0.89316053847E+02 0.  0.
        -11    1    3    3    0    0 -0.11371991333E+01 -0.43507825137E+02  0.55115588158E+02  0.70227858632E+02  0.00000000000E+00 0.  1.
         11    1    3    3    0    0  0.11371991333E+01  0.43507825137E+02  0.94074405310E+02  0.10365431879E+03  0.00000000000E+00 0. -1.
<mgrwt>
<rscale>  0 0.89316054E+02</rscale>
<asrwt>0</asrwt>
<pdfrwt beam="1">  1        3 0.24851704E-01 0.89316054E+02</pdfrwt>
<pdfrwt beam="2">  1       -3 0.18993989E-02 0.89316054E+02</pdfrwt>
<totfact> 0.31616133E+04</totfact>
</mgrwt>
</event>
<event>
 5    1  0.1256986E+001  0.8781624E+02  0.7546771E-02  0.1308228E+00
         -3   -1    0    0    0  501 -0.00000000000E+00  0.00000000000E+00  0.20446245814E+02  0.20446245814E+02  0.00000000000E+00 0.  1.
          3   -1    0    0  501    0  0.00000000000E+00 -0.00000000000E+00 -0.94292265081E+02  0.94292265081E+02  0.00000000000E+00 0. -1.
         23    2    1    2    0    0  0.00000000000E+00  0.00000000000E+00 -0.73846019267E+02  0.11473851090E+03  0.87816236089E+02 0.  0.
        -13    1    3    3    0    0 -0.12429169548E+02  0.22717155904E+02  0.94073673781E+01  0.27550898152E+02  0.00000000000E+00 0.  1.
         13    1    3    3    0    0  0.12429169548E+02 -0.22717155904E+02 -0.83253386645E+02  0.87187612743E+02  0.00000000000E+00 0. -1.
<mgrwt>
<rscale>  0 0.87816236E+02</rscale>
<asrwt>0</asrwt>
<pdfrwt beam="2">  1        3 0.14506502E-01 0.87816236E+02</pdfrwt>
<pdfrwt beam="1">  1       -3 0.31455763E-02 0.87816236E+02</pdfrwt>
<totfact> 0.37206817E+04</totfact>
</mgrwt>
</event>
<event>
 5    1  0.1256986E+001  0.9131637E+02  0.7546771E-02  0.1299695E+00
          1   -1    0    0  501    0  0.00000000000E+00  0.00000000000E+00  0.26137369396E+03  0.26137369396E+03  0.00000000000E+00 0. -1.
         -1   -1    0    0    0  501 -0.00000000000E+00 -0.00000000000E+00 -0.79758204184E+01  0.79758204184E+01  0.00000000000E+00 0.  1.
         23    2    1    2    0    0  0.00000000000E+00  0.00000000000E+00  0.25339787354E+03  0.26934951437E+03  0.91316365348E+02 0.  0.
        -13    1    3    3    0    0  0.16560435973E+02  0.38757201056E+02  0.17849002383E+03  0.18339862944E+03  0.00000000000E+00 0. -1.
         13    1    3    3    0    0 -0.16560435973E+02 -0.38757201056E+02  0.74907849708E+02  0.85950884936E+02  0.00000000000E+00 0.  1.
<mgrwt>
<rscale>  0 0.91316365E+02</rscale>
<asrwt>0</asrwt>
<pdfrwt beam="1">  1        1 0.40211331E-01 0.91316365E+02</pdfrwt>
<pdfrwt beam="2">  1       -1 0.12270495E-02 0.91316365E+02</pdfrwt>
<totfact> 0.12423977E+05</totfact>
</mgrwt>
</event>
<event>
 5    1  0.1256986E+001  0.9677112E+02  0.7546771E-02  0.1287236E+00
         -2   -1    0    0    0  501 -0.00000000000E+00  0.00000000000E+00  0.12585560570E+02  0.12585560570E+02  0.00000000000E+00 0.  1.
          2   -1    0    0  501    0  0.00000000000E+00 -0.00000000000E+00 -0.18601970511E+03  0.18601970511E+03  0.00000000000E+00 0. -1.
         23    2    1    2    0    0  0.00000000000E+00  0.00000000000E+00 -0.17343414454E+03  0.19860526568E+03  0.96771116889E+02 0.  0.
        -11    1    3    3    0    0 -0.13891159311E+02 -0.46311561820E+02 -0.82912135395E+02  0.95979931554E+02  0.00000000000E+00 0. -1.
         11    1    3    3    0    0  0.13891159311E+02  0.46311561820E+02 -0.90522009147E+02  0.10262533413E+03  0.00000000000E+00 0.  1.
<mgrwt>
<rscale>  0 0.96771117E+02</rscale>
<asrwt>0</asrwt>
<pdfrwt beam="2">  1        2 0.28618415E-01 0.96771117E+02</pdfrwt>
<pdfrwt beam="1">  1       -2 0.19362402E-02 0.96771117E+02</pdfrwt>
<totfact> 0.12825095E+05</totfact>
</mgrwt>
</event>
<event>
 4    1  0.1256986E+001  0.1455906E+03  0.7546771E-02  0.1205998E+00
         -2   -1    0    0    0  501 -0.00000000000E+00  0.00000000000E+00  0.86771058471E+01  0.86771058471E+01  0.00000000000E+00 0.  1.
          2   -1    0    0  501    0  0.00000000000E+00 -0.00000000000E+00 -0.61070529170E+03  0.61070529170E+03  0.00000000000E+00 0. -1.
        -13    1    1    2    0    0  0.67418381412E+02  0.22021705803E+02 -0.23124387961E+03  0.24187584736E+03  0.00000000000E+00 0.  1.
         13    1    1    2    0    0 -0.67418381412E+02 -0.22021705803E+02 -0.37078430624E+03  0.37750655018E+03  0.00000000000E+00 0. -1.
<mgrwt>
<rscale>  0 0.14559058E+03</rscale>
<asrwt>0</asrwt>
<pdfrwt beam="2">  1        2 0.93954657E-01 0.14559058E+03</pdfrwt>
<pdfrwt beam="1">  1       -2 0.13349394E-02 0.14559058E+03</pdfrwt>
<totfact> 0.64564468E+04</totfact>
</mgrwt>
</event>
<event>
 5    1  0.1256986E+001  0.9614590E+02  0.7546771E-02  0.1288616E+00
          1   -1    0    0  501    0  0.00000000000E+00  0.00000000000E+00  0.23281970132E+03  0.23281970132E+03  0.00000000000E+00 0. -1.
         -1   -1    0    0    0  501 -0.00000000000E+00 -0.00000000000E+00 -0.99261719579E+01  0.99261719579E+01  0.00000000000E+00 0.  1.
         23    2    1    2    0    0  0.00000000000E+00  0.00000000000E+00  0.22289352936E+03  0.24274587328E+03  0.96145897270E+02 0.  0.
        -11    1    3    3    0    0 -0.18034482894E+02 -0.35230409355E+02  0.42553308885E+02  0.58113754083E+02  0.00000000000E+00 0.  1.
         11    1    3    3    0    0  0.18034482894E+02  0.35230409355E+02  0.18034022047E+03  0.18463211919E+03  0.00000000000E+00 0. -1.
<mgrwt>
<rscale>  0 0.96145897E+02</rscale>
<asrwt>0</asrwt>
<pdfrwt beam="1">  1        1 0.35818412E-01 0.96145897E+02</pdfrwt>
<pdfrwt beam="2">  1       -1 0.15271035E-02 0.96145897E+02</pdfrwt>
<totfact> 0.10577334E+05</totfact>
</mgrwt>
</event>
<event>
 5    1  0.1256986E+001  0.9597931E+02  0.7546771E-02  0.1288986E+00
         -2   -1    0    0    0  501 -0.00000000000E+00  0.00000000000E+00  0.45999673642E+02  0.45999673642E+02  0.00000000000E+00 0.  1.
          2   -1    0    0  501    0  0.00000000000E+00 -0.00000000000E+00 -0.50065719923E+02  0.50065719923E+02  0.00000000000E+00 0. -1.
         23    2    1    2    0    0  0.00000000000E+00  0.00000000000E+00 -0.40660462807E+01  0.96065393565E+02  0.95979305626E+02 0.  0.
        -11    1    3    3    0    0  0.39050987545E+02 -0.24493370134E+02  0.11324431939E+02  0.47467331582E+02  0.00000000000E+00 0.  1.
         11    1    3    3    0    0 -0.39050987545E+02  0.24493370134E+02 -0.15390478220E+02  0.48598061984E+02  0.00000000000E+00 0. -1.
<mgrwt>
<rscale>  0 0.95979306E+02</rscale>
<asrwt>0</asrwt>
<pdfrwt beam="2">  1        2 0.77024184E-02 0.95979306E+02</pdfrwt>
<pdfrwt beam="1">  1       -2 0.70768729E-02 0.95979306E+02</pdfrwt>
<totfact> 0.87265833E+04</totfact>
</mgrwt>
</event>
<event>
 5    1  0.1256986E+001  0.9129472E+02  0.7546771E-02  0.1299746E+00
          4   -1    0    0  501    0  0.00000000000E+00  0.00000000000E+00  0.21731472111E+02  0.21731472111E+02  0.00000000000E+00 0.  1.
         -4   -1    0    0    0  501 -0.00000000000E+00 -0.00000000000E+00 -0.95883117607E+02  0.95883117607E+02  0.00000000000E+00 0. -1.
         23    2    1    2    0    0  0.00000000000E+00  0.00000000000E+00 -0.74151645496E+02  0.11761458972E+03  0.91294716084E+02 0.  0.
        -13    1    3    3    0    0 -0.24503961365E+02 -0.12141898602E+02  0.10009780627E+02  0.29121564732E+02  0.00000000000E+00 0.  1.
         13    1    3    3    0    0  0.24503961365E+02  0.12141898602E+02 -0.84161426123E+02  0.88493024987E+02  0.00000000000E+00 0. -1.
<mgrwt>
<rscale>  0 0.91294716E+02</rscale>
<asrwt>0</asrwt>
<pdfrwt beam="1">  1        4 0.33433034E-02 0.91294716E+02</pdfrwt>
<pdfrwt beam="2">  1       -4 0.14751249E-01 0.91294716E+02</pdfrwt>
<totfact> 0.25319931E+04</totfact>
</mgrwt>
</event>
<event>
 5    1  0.1256986E+001  0.9074522E+02  0.7546771E-02  0.1301057E+00
         -3   -1    0    0    0  501 -0.00000000000E+00  0.00000000000E+00  0.90864721983E+02  0.90864721983E+02  0.00000000000E+00 0.  1.
          3   -1    0    0  501    0  0.00000000000E+00 -0.00000000000E+00 -0.22656466566E+02  0.22656466566E+02  0.00000000000E+00 0. -1.
         23    2    1    2    0    0  0.00000000000E+00  0.00000000000E+00  0.68208255417E+02  0.11352118855E+03  0.90745215535E+02 0.  0.
        -11    1    3    3    0    0  0.35804499050E+02  0.24846372559E+02  0.18311466211E+02  0.47271705875E+02  0.00000000000E+00 0. -1.
         11    1    3    3    0    0 -0.35804499050E+02 -0.24846372559E+02  0.49896789206E+02  0.66249482674E+02  0.00000000000E+00 0.  1.
<mgrwt>
<rscale>  0 0.90745216E+02</rscale>
<asrwt>0</asrwt>
<pdfrwt beam="2">  1        3 0.34856103E-02 0.90745216E+02</pdfrwt>
<pdfrwt beam="1">  1       -3 0.13979188E-01 0.90745216E+02</pdfrwt>
<totfact> 0.34134072E+04</totfact>
</mgrwt>
</event>
<event>
 4    1  0.1256986E+001  0.5396310E+02  0.7546771E-02  0.1425067E+00
          2   -1    0    0  501    0  0.00000000000E+00  0.00000000000E+00  0.12075375714E+02  0.12075375714E+02  0.00000000000E+00 0.  1.
         -2   -1    0    0    0  501 -0.00000000000E+00 -0.00000000000E+00 -0.60288310858E+02  0.60288310858E+02  0.00000000000E+00 0. -1.
        -13    1    1    2    0    0  0.14926604290E+02  0.55325028385E+01  0.51070575662E+01  0.16718078247E+02  0.00000000000E+00 0.  1.
         13    1    1    2    0    0 -0.14926604290E+02 -0.55325028385E+01 -0.53319992710E+02  0.55645608326E+02  0.00000000000E+00 0. -1.
<mgrwt>
<rscale>  0 0.53963099E+02</rscale>
<asrwt>0</asrwt>
<pdfrwt beam="1">  1        2 0.18577501E-02 0.53963099E+02</pdfrwt>
<pdfrwt beam="2">  1       -2 0.92751247E-02 0.53963099E+02</pdfrwt>
<totfact> 0.32771027E+05</totfact>
</mgrwt>
</event>
<event>
 5    1  0.1256986E+001  0.8933545E+02  0.7546771E-02  0.1304469E+00
          2   -1    0    0  501    0  0.00000000000E+00  0.00000000000E+00  0.77254380809E+02  0.77254380809E+02  0.00000000000E+00 0. -1.
         -2   -1    0    0    0  501 -0.00000000000E+00 -0.00000000000E+00 -0.25826440148E+02  0.25826440148E+02  0.00000000000E+00 0.  1.
         23    2    1    2    0    0  0.00000000000E+00  0.00000000000E+00  0.51427940661E+02  0.10308082096E+03  0.89335449675E+02 0.  0.
        -11    1    3    3    0    0  0.16609863509E+02 -0.11978731930E+02  0.71518502875E+02  0.74392700166E+02  0.00000000000E+00 0. -1.
         11    1    3    3    0    0 -0.16609863509E+02  0.11978731930E+02 -0.20090562214E+02  0.28688120791E+02  0.00000000000E+00 0.  1.
<mgrwt>
<rscale>  0 0.89335450E+02</rscale>
<asrwt>0</asrwt>
<pdfrwt beam="1">  1        2 0.11885289E-01 0.89335450E+02</pdfrwt>
<pdfrwt beam="2">  1       -2 0.39732985E-02 0.89335450E+02</pdfrwt>
<totfact> 0.12034819E+05</totfact>
</mgrwt>
</event>
<event>
 5    1  0.1256986E+001  0.9119865E+02  0.7546771E-02  0.1299975E+00
         -2   -1    0    0    0  501 -0.00000000000E+00  0.00000000000E+00  0.72926244530E+02  0.72926244530E+02  0.00000000000E+00 0. -1.
          2   -1    0    0  501    0  0.00000000000E+00 -0.00000000000E+00 -0.28512346411E+02  0.28512346411E+02  0.00000000000E+00 0.  1.
         23    2    1    2    0    0  0.00000000000E+00  0.00000000000E+00  0.44413898119E+02  0.10143859094E+03  0.91198647939E+02 0.  0.
        -13    1    3    3    0    0 -0.44755797191E+02 -0.49921294508E+01  0.30173216792E+02  0.54207248134E+02  0.00000000000E+00 0.  1.
         13    1    3    3    0    0  0.44755797191E+02  0.49921294508E+01  0.14240681328E+02  0.47231342807E+02  0.00000000000E+00 0. -1.
<mgrwt>
<rscale>  0 0.91198648E+02</rscale>
<asrwt>0</asrwt>
<pdfrwt beam="2">  1        2 0.43865149E-02 0.91198648E+02</pdfrwt>
<pdfrwt beam="1">  1       -2 0.11219422E-01 0.91198648E+02</pdfrwt>
<totfact> 0.87204491E+04</totfact>
</mgrwt>
</event>
<event>
 5    1  0.1256986E+001  0.8774215E+02  0.7546771E-02  0.1308413E+00
          3   -1    0    0  501    0  0.00000000000E+00  0.00000000000E+00  0.24866998067E+02  0.24866998067E+02  0.00000000000E+00 0. -1.
         -3   -1    0    0    0  501 -0.00000000000E+00 -0.00000000000E+00 -0.77398607362E+02  0.77398607362E+02  0.00000000000E+00 0.  1.
         23    2    1    2    0    0  0.00000000000E+00  0.00000000000E+00 -0.52531609295E+02  0.10226560543E+03  0.87742145395E+02 0.  0.
        -13    1    3    3    0    0  0.39380457263E+02  0.71488008294E+01 -0.47204579912E+02  0.61888594524E+02  0.00000000000E+00 0.  1.
         13    1    3    3    0    0 -0.39380457263E+02 -0.71488008294E+01 -0.53270293837E+01  0.40377010904E+02  0.00000000000E+00 0. -1.
<mgrwt>
<rscale>  0 0.87742145E+02</rscale>
<asrwt>0</asrwt>
<pdfrwt beam="1">  1        3 0.38256921E-02 0.87742145E+02</pdfrwt>
<pdfrwt beam="2">  1       -3 0.11907478E-01 0.87742145E+02</pdfrwt>
<totfact> 0.38290567E+04</totfact>
</mgrwt>
</event>
<event>
 5    1  0.1256986E+001  0.9001423E+02  0.7546771E-02  0.1302817E+00
         -1   -1    0    0    0  501 -0.00000000000E+00  0.00000000000E+00  0.28577146938E+02  0.28577146938E+02  0.00000000000E+00 0.  1.
          1   -1    0    0  501    0  0.00000000000E+00 -0.00000000000E+00 -0.70883233720E+02  0.70883233720E+02  0.00000000000E+00 0. -1.
         23    2    1    2    0    0  0.00000000000E+00  0.00000000000E+00 -0.42306086782E+02  0.99460380658E+02  0.90014234107E+02 0.  0.
        -11    1    3    3    0    0 -0.31272320094E+02  0.25116042012E+02  0.14068837495E+01  0.40134186080E+02  0.00000000000E+00 0. -1.
         11    1    3    3    0    0  0.31272320094E+02 -0.25116042012E+02 -0.43712970532E+02  0.59326194578E+02  0.00000000000E+00 0.  1.
<mgrwt>
<rscale>  0 0.90014234E+02</rscale>
<asrwt>0</asrwt>
<pdfrwt beam="2">  1        1 0.10905113E-01 0.90014234E+02</pdfrwt>
<pdfrwt beam="1">  1       -1 0.43964842E-02 0.90014234E+02</pdfrwt>
<totfact> 0.10241209E+05</totfact>
</mgrwt>
</event>
<event>
 5    1  0.1256986E+001  0.1018145E+03  0.7546771E-02  0.1276526E+00
         -2   -1    0    0    0  501 -0.00000000000E+00  0.00000000000E+00  0.98642472649E+01  0.98642472649E+01  0.00000000000E+00 0.  1.
          2   -1    0    0  501    0  0.00000000000E+00 -0.00000000000E+00 -0.26272133293E+03  0.26272133293E+03  0.00000000000E+00 0. -1.
         23    2    1    2    0    0  0.00000000000E+00  0.00000000000E+00 -0.25285708566E+03  0.27258558019E+03  0.10181450171E+03 0.  0.
        -11    1    3    3    0    0 -0.18816859260E+02  0.46591953990E+02 -0.14828794791E+03  0.15657011166E+03  0.00000000000E+00 0. -1.
         11    1    3    3    0    0  0.18816859260E+02 -0.46591953990E+02 -0.10456913775E+03  0.11601546853E+03  0.00000000000E+00 0.  1.
<mgrwt>
<rscale>  0 0.10181450E+03</rscale>
<asrwt>0</asrwt>
<pdfrwt beam="2">  1        2 0.40418670E-01 0.10181450E+03</pdfrwt>
<pdfrwt beam="1">  1       -2 0.15175764E-02 0.10181450E+03</pdfrwt>
<totfact> 0.12702068E+05</totfact>
</mgrwt>
</event>
<event>
 5    1  0.1256986E+001  0.9070246E+02  0.7546771E-02  0.1301159E+00
         -3   -1    0    0    0  501 -0.00000000000E+00  0.00000000000E+00  0.34811489267E+02  0.34811489267E+02  0.00000000000E+00 0.  1.
          3   -1    0    0  501    0  0.00000000000E+00 -0.00000000000E+00 -0.59082048815E+02  0.59082048815E+02  0.00000000000E+00 0. -1.
         23    2    1    2    0    0  0.00000000000E+00  0.00000000000E+00 -0.24270559548E+02  0.93893538081E+02  0.90702461007E+02 0.  0.
        -13    1    3    3    0    0 -0.95063228348E+01 -0.37248517370E+02  0.12771803201E+02  0.40508532152E+02  0.00000000000E+00 0. -1.
         13    1    3    3    0    0  0.95063228348E+01  0.37248517370E+02 -0.37042362749E+02  0.53385005930E+02  0.00000000000E+00 0.  1.
<mgrwt>
<rscale>  0 0.90702461E+02</rscale>
<asrwt>0</asrwt>
<pdfrwt beam="2">  1        3 0.90895460E-02 0.90702461E+02</pdfrwt>
<pdfrwt beam="1">  1       -3 0.53556137E-02 0.90702461E+02</pdfrwt>
<totfact> 0.35632841E+04</totfact>
</mgrwt>
</event>
<event>
 5    1  0.1256986E+001  0.9639086E+02  0.7546771E-02  0.1288074E+00
         -1   -1    0    0    0  501 -0.00000000000E+00  0.00000000000E+00  0.26780862764E+02  0.26780862764E+02  0.00000000000E+00 0.  1.
          1   -1    0    0  501    0  0.00000000000E+00 -0.00000000000E+00 -0.86733549256E+02  0.86733549256E+02  0.00000000000E+00 0. -1.
         23    2    1    2    0    0  0.00000000000E+00  0.00000000000E+00 -0.59952686492E+02  0.11351441202E+03  0.96390855992E+02 0.  0.
        -13    1    3    3    0    0  0.41525171389E+01  0.13378948505E+02 -0.84283110145E+02  0.85439348765E+02  0.00000000000E+00 0. -1.
         13    1    3    3    0    0 -0.41525171389E+01 -0.13378948505E+02  0.24330423653E+02  0.28075063256E+02  0.00000000000E+00 0.  1.
<mgrwt>
<rscale>  0 0.96390856E+02</rscale>
<asrwt>0</asrwt>
<pdfrwt beam="2">  1        1 0.13343623E-01 0.96390856E+02</pdfrwt>
<pdfrwt beam="1">  1       -1 0.41201327E-02 0.96390856E+02</pdfrwt>
<totfact> 0.87576814E+04</totfact>
</mgrwt>
</event>
<event>
 5    1  0.1256986E+001  0.9214500E+02  0.7546771E-02  0.1297739E+00
          3   -1    0    0  501    0  0.00000000000E+00  0.00000000000E+00  0.40284112047E+02  0.40284112047E+02  0.00000000000E+00 0. -1.
         -3   -1    0    0    0  501 -0.00000000000E+00 -0.00000000000E+00 -0.52692615448E+02  0.52692615448E+02  0.00000000000E+00 0.  1.
         23    2    1    2    0    0  0.00000000000E+00  0.00000000000E+00 -0.12408503401E+02  0.92976727495E+02  0.92144999316E+02 0.  0.
        -11    1    3    3    0    0  0.18663619119E+02 -0.21398124962E+02 -0.42814873899E+02  0.51374350191E+02  0.00000000000E+00 0.  1.
         11    1    3    3    0    0 -0.18663619119E+02  0.21398124962E+02  0.30406370497E+02  0.41602377304E+02  0.00000000000E+00 0. -1.
<mgrwt>
<rscale>  0 0.92144999E+02</rscale>
<asrwt>0</asrwt>
<pdfrwt beam="1">  1        3 0.61975558E-02 0.92144999E+02</pdfrwt>
<pdfrwt beam="2">  1       -3 0.81065562E-02 0.92144999E+02</pdfrwt>
<totfact> 0.34200760E+04</totfact>
</mgrwt>
</event>
<event>
 5    1  0.1256986E+001  0.9309772E+02  0.7546771E-02  0.1295519E+00
          3   -1    0    0  501    0  0.00000000000E+00  0.00000000000E+00  0.21115123488E+03  0.21115123488E+03  0.00000000000E+00 0. -1.
         -3   -1    0    0    0  501 -0.00000000000E+00 -0.00000000000E+00 -0.10261822163E+02  0.10261822163E+02  0.00000000000E+00 0.  1.
         23    2    1    2    0    0  0.00000000000E+00  0.00000000000E+00  0.20088941272E+03  0.22141305704E+03  0.93097721172E+02 0.  0.
        -13    1    3    3    0    0 -0.17123684259E+02 -0.32419042225E+02  0.16865558796E+03  0.17259467608E+03  0.00000000000E+00 0. -1.
         13    1    3    3    0    0  0.17123684259E+02  0.32419042225E+02  0.32233824760E+02  0.48818380966E+02  0.00000000000E+00 0.  1.
<mgrwt>
<rscale>  0 0.93097721E+02</rscale>
<asrwt>0</asrwt>
<pdfrwt beam="1">  1        3 0.32484802E-01 0.93097721E+02</pdfrwt>
<pdfrwt beam="2">  1       -3 0.15787420E-02 0.93097721E+02</pdfrwt>
<totfact> 0.25925999E+04</totfact>
</mgrwt>
</event>
<event>
 5    1  0.1256986E+001  0.9084429E+02  0.7546771E-02  0.1300820E+00
          1   -1    0    0  501    0  0.00000000000E+00  0.00000000000E+00  0.49828632012E+01  0.49828632012E+01  0.00000000000E+00 0. -1.
         -1   -1    0    0    0  501 -0.00000000000E+00 -0.00000000000E+00 -0.41405332270E+03  0.41405332270E+03  0.00000000000E+00 0.  1.
         23    2    1    2    0    0  0.00000000000E+00  0.00000000000E+00 -0.40907045950E+03  0.41903618590E+03  0.90844285787E+02 0.  0.
        -11    1    3    3    0    0  0.20977343686E+02 -0.38389358351E+02 -0.14815860159E+03  0.15448224173E+03  0.00000000000E+00 0. -1.
         11    1    3    3    0    0 -0.20977343686E+02  0.38389358351E+02 -0.26091185791E+03  0.26455394418E+03  0.00000000000E+00 0.  1.
<mgrwt>
<rscale>  0 0.90844286E+02</rscale>
<asrwt>0</asrwt>
<pdfrwt beam="1">  1        1 0.76659425E-03 0.90844286E+02</pdfrwt>
<pdfrwt beam="2">  1       -1 0.63700518E-01 0.90844286E+02</pdfrwt>
<totfact> 0.52857899E+04</totfact>
</mgrwt>
</event>
<event>
 5    1  0.1256986E+001  0.9049367E+02  0.7546771E-02  0.1301661E+00
          1   -1    0    0  501    0  0.00000000000E+00  0.00000000000E+00  0.94615287282E+02  0.94615287282E+02  0.00000000000E+00 0. -1.
         -1   -1    0    0    0  501 -0.00000000000E+00 -0.00000000000E+00 -0.21637897639E+02  0.21637897639E+02  0.00000000000E+00 0.  1.
         23    2    1    2    0    0  0.00000000000E+00  0.00000000000E+00  0.72977389643E+02  0.11625318492E+03  0.90493666106E+02 0.  0.
        -11    1    3    3    0    0 -0.54026040509E+01  0.39360475300E+02  0.86723952229E+01  0.40665041316E+02  0.00000000000E+00 0.  1.
         11    1    3    3    0    0  0.54026040509E+01 -0.39360475300E+02  0.64304994420E+02  0.75588143606E+02  0.00000000000E+00 0. -1.
<mgrwt>
<rscale>  0 0.90493666E+02</rscale>
<asrwt>0</asrwt>
<pdfrwt beam="1">  1        1 0.14556198E-01 0.90493666E+02</pdfrwt>
<pdfrwt beam="2">  1       -1 0.33289074E-02 0.90493666E+02</pdfrwt>
<totfact> 0.10564639E+05</totfact>
</mgrwt>
</event>
<event>
 5    1  0.1256986E+001  0.9498178E+02  0.7546771E-02  0.1291217E+00
          2   -1    0    0  501    0  0.00000000000E+00  0.00000000000E+00  0.57067989738E+02  0.57067989738E+02  0.00000000000E+00 0. -1.
         -2   -1    0    0    0  501 -0.00000000000E+00 -0.00000000000E+00 -0.39521009477E+02  0.39521009477E+02  0.00000000000E+00 0.  1.
         23    2    1    2    0    0  0.00000000000E+00  0.00000000000E+00  0.17546980261E+02  0.96588999215E+02  0.94981778532E+02 0.  0.
        -11    1    3    3    0    0 -0.33992516101E+02 -0.11947160757E+02  0.40234985328E+02  0.54009997643E+02  0.00000000000E+00 0. -1.
         11    1    3    3    0    0  0.33992516101E+02  0.11947160757E+02 -0.22688005067E+02  0.42579001573E+02  0.00000000000E+00 0.  1.
<mgrwt>
<rscale>  0 0.94981779E+02</rscale>
<asrwt>0</asrwt>
<pdfrwt beam="1">  1        2 0.87796907E-02 0.94981779E+02</pdfrwt>
<pdfrwt beam="2">  1       -2 0.60801553E-02 0.94981779E+02</pdfrwt>
<totfact> 0.93178938E+04</totfact>
</mgrwt>
</event>
<event>
 5    1  0.1256986E+001  0.5508427E+02  0.7546771E-02  0.1419701E+00
         -2   -1    0    0    0  501 -0.00000000000E+00  0.00000000000E+00  0.65714104837E+01  0.65714104837E+01  0.00000000000E+00 0. -1.
          2   -1    0    0  501    0  0.00000000000E+00 -0.00000000000E+00 -0.11543476558E+03  0.11543476558E+03  0.00000000000E+00 0.  1.
         23    2    1    2    0    0  0.00000000000E+00  0.00000000000E+00 -0.10886335510E+03  0.12200617606E+03  0.55084271030E+02 0.  0.
        -11    1    3    3    0    0 -0.19909873198E+02  0.85799554122E+01 -0.16807660965E+02  0.27432027865E+02  0.00000000000E+00 0. -1.
         11    1    3    3    0    0  0.19909873198E+02 -0.85799554122E+01 -0.92055694132E+02  0.94574148200E+02  0.00000000000E+00 0.  1.
<mgrwt>
<rscale>  0 0.55084271E+02</rscale>
<asrwt>0</asrwt>
<pdfrwt beam="2">  1        2 0.17759195E-01 0.55084271E+02</pdfrwt>
<pdfrwt beam="1">  1       -2 0.10109862E-02 0.55084271E+02</pdfrwt>
<totfact> 0.48644217E+05</totfact>
</mgrwt>
</event>
<event>
 5    1  0.1256986E+001  0.9160259E+02  0.7546771E-02  0.1299017E+00
         -3   -1    0    0    0  501 -0.00000000000E+00  0.00000000000E+00  0.79178585606E+02  0.79178585606E+02  0.00000000000E+00 0. -1.
          3   -1    0    0  501    0  0.00000000000E+00 -0.00000000000E+00 -0.26494015493E+02  0.26494015493E+02  0.00000000000E+00 0.  1.
         23    2    1    2    0    0  0.00000000000E+00  0.00000000000E+00  0.52684570113E+02  0.10567260110E+03  0.91602591093E+02 0.  0.
        -11    1    3    3    0    0  0.11587577224E+02 -0.26265391321E+02 -0.14827052906E+02  0.32310744730E+02  0.00000000000E+00 0.  1.
         11    1    3    3    0    0 -0.11587577224E+02  0.26265391321E+02  0.67511623019E+02  0.73361856369E+02  0.00000000000E+00 0. -1.
<mgrwt>
<rscale>  0 0.91602591E+02</rscale>
<asrwt>0</asrwt>
<pdfrwt beam="2">  1        3 0.40760024E-02 0.91602591E+02</pdfrwt>
<pdfrwt beam="1">  1       -3 0.12181321E-01 0.91602591E+02</pdfrwt>
<totfact> 0.33824955E+04</totfact>
</mgrwt>
</event>
<event>
 5    1  0.1256986E+001  0.9080648E+02  0.7546771E-02  0.1300910E+00
         -1   -1    0    0    0  501 -0.00000000000E+00  0.00000000000E+00  0.29004577473E+02  0.29004577473E+02  0.00000000000E+00 0.  1.
          1   -1    0    0  501    0  0.00000000000E+00 -0.00000000000E+00 -0.71073411637E+02  0.71073411637E+02  0.00000000000E+00 0. -1.
         23    2    1    2    0    0  0.00000000000E+00  0.00000000000E+00 -0.42068834164E+02  0.10007798911E+03  0.90806481577E+02 0.  0.
        -11    1    3    3    0    0  0.38401266796E+02 -0.59846098003E+01 -0.46904046166E+02  0.60913564933E+02  0.00000000000E+00 0. -1.
         11    1    3    3    0    0 -0.38401266796E+02  0.59846098003E+01  0.48352120023E+01  0.39164424177E+02  0.00000000000E+00 0.  1.
<mgrwt>
<rscale>  0 0.90806482E+02</rscale>
<asrwt>0</asrwt>
<pdfrwt beam="2">  1        1 0.10934371E-01 0.90806482E+02</pdfrwt>
<pdfrwt beam="1">  1       -1 0.44622428E-02 0.90806482E+02</pdfrwt>
<totfact> 0.10001451E+05</totfact>
</mgrwt>
</event>
<event>
 5    1  0.1256986E+001  0.9111799E+02  0.7546771E-02  0.1300167E+00
         -2   -1    0    0    0  501 -0.00000000000E+00  0.00000000000E+00  0.10831838292E+03  0.10831838292E+03  0.00000000000E+00 0.  1.
          2   -1    0    0  501    0  0.00000000000E+00 -0.00000000000E+00 -0.19162233225E+02  0.19162233225E+02  0.00000000000E+00 0. -1.
         23    2    1    2    0    0  0.00000000000E+00  0.00000000000E+00  0.89156149696E+02  0.12748061615E+03  0.91117991991E+02 0.  0.
        -13    1    3    3    0    0  0.31067635081E+02 -0.44559591186E+01 -0.16245348691E+01  0.31427577614E+02  0.00000000000E+00 0. -1.
         13    1    3    3    0    0 -0.31067635081E+02  0.44559591186E+01  0.90780684565E+02  0.96053038532E+02  0.00000000000E+00 0.  1.
<mgrwt>
<rscale>  0 0.91117992E+02</rscale>
<asrwt>0</asrwt>
<pdfrwt beam="2">  1        2 0.29480360E-02 0.91117992E+02</pdfrwt>
<pdfrwt beam="1">  1       -2 0.16664366E-01 0.91117992E+02</pdfrwt>
<totfact> 0.78021384E+04</totfact>
</mgrwt>
</event>
<event>
 5    1  0.1256986E+001  0.8773770E+02  0.7546771E-02  0.1308425E+00
         -2   -1    0    0    0  501 -0.00000000000E+00  0.00000000000E+00  0.51157879973E+01  0.51157879973E+01  0.00000000000E+00 0.  1.
          2   -1    0    0  501    0  0.00000000000E+00 -0.00000000000E+00 -0.37618370791E+03  0.37618370791E+03  0.00000000000E+00 0. -1.
         23    2    1    2    0    0  0.00000000000E+00  0.00000000000E+00 -0.37106791991E+03  0.38129949591E+03  0.87737702220E+02 0.  0.
        -11    1    3    3    0    0  0.19950631619E+02 -0.38823430324E+02 -0.16649630104E+03  0.17212293486E+03  0.00000000000E+00 0.  1.
         11    1    3    3    0    0 -0.19950631619E+02  0.38823430324E+02 -0.20457161887E+03  0.20917656105E+03  0.00000000000E+00 0. -1.
<mgrwt>
<rscale>  0 0.87737702E+02</rscale>
<asrwt>0</asrwt>
<pdfrwt beam="2">  1        2 0.57874410E-01 0.87737702E+02</pdfrwt>
<pdfrwt beam="1">  1       -2 0.78704440E-03 0.87737702E+02</pdfrwt>
<totfact> 0.21620594E+05</totfact>
</mgrwt>
</event>
<event>
 5    1  0.1256986E+001  0.1005770E+03  0.7546771E-02  0.1279087E+00
          2   -1    0    0  501    0  0.00000000000E+00  0.00000000000E+00  0.12871842674E+02  0.12871842674E+02  0.00000000000E+00 0.  1.
         -2   -1    0    0    0  501 -0.00000000000E+00 -0.00000000000E+00 -0.19647010669E+03  0.19647010669E+03  0.00000000000E+00 0. -1.
         23    2    1    2    0    0  0.00000000000E+00  0.00000000000E+00 -0.18359826401E+03  0.20934194936E+03  0.10057698153E+03 0.  0.
        -11    1    3    3    0    0  0.46064953124E+02 -0.18655305717E+02 -0.75820737865E+02  0.90657512806E+02  0.00000000000E+00 0. -1.
         11    1    3    3    0    0 -0.46064953124E+02  0.18655305717E+02 -0.10777752615E+03  0.11868443655E+03  0.00000000000E+00 0.  1.
<mgrwt>
<rscale>  0 0.10057698E+03</rscale>
<asrwt>0</asrwt>
<pdfrwt beam="1">  1        2 0.19802835E-02 0.10057698E+03</pdfrwt>
<pdfrwt beam="2">  1       -2 0.30226170E-01 0.10057698E+03</pdfrwt>
<totfact> 0.48865585E+04</totfact>
</mgrwt>
</event>
<event>
 5    1  0.1256986E+001  0.9140732E+02  0.7546771E-02  0.1299479E+00
          3   -1    0    0  501    0  0.00000000000E+00  0.00000000000E+00  0.15813283377E+03  0.15813283377E+03  0.00000000000E+00 0. -1.
         -3   -1    0    0    0  501 -0.00000000000E+00 -0.00000000000E+00 -0.13209302531E+02  0.13209302531E+02  0.00000000000E+00 0.  1.
         23    2    1    2    0    0  0.00000000000E+00  0.00000000000E+00  0.14492353124E+03  0.17134213630E+03  0.91407317901E+02 0.  0.
        -13    1    3    3    0    0  0.37510372982E+02 -0.25020038919E+00  0.23518762718E+02  0.44274404358E+02  0.00000000000E+00 0.  1.
         13    1    3    3    0    0 -0.37510372982E+02  0.25020038919E+00  0.12140476852E+03  0.12706773195E+03  0.00000000000E+00 0. -1.
<mgrwt>
<rscale>  0 0.91407318E+02</rscale>
<asrwt>0</asrwt>
<pdfrwt beam="1">  1        3 0.24328127E-01 0.91407318E+02</pdfrwt>
<pdfrwt beam="2">  1       -3 0.20322005E-02 0.91407318E+02</pdfrwt>
<totfact> 0.29845484E+04</totfact>
</mgrwt>
</event>
<event>
 5    1  0.1256986E+001  0.9111525E+02  0.7546771E-02  0.1300173E+00
         -2   -1    0    0    0  501 -0.00000000000E+00  0.00000000000E+00  0.87296846897E+01  0.87296846897E+01  0.00000000000E+00 0.  1.
          2   -1    0    0  501    0  0.00000000000E+00 -0.00000000000E+00 -0.23775168838E+03  0.23775168838E+03  0.00000000000E+00 0. -1.
         23    2    1    2    0    0  0.00000000000E+00  0.00000000000E+00 -0.22902200369E+03  0.24648137307E+03  0.91115251721E+02 0.  0.
        -11    1    3    3    0    0  0.31988733393E+02 -0.19984491451E+02 -0.45392257210E+02  0.59017929286E+02  0.00000000000E+00 0.  1.
         11    1    3    3    0    0 -0.31988733393E+02  0.19984491451E+02 -0.18362974648E+03  0.18746344379E+03  0.00000000000E+00 0. -1.
<mgrwt>
<rscale>  0 0.91115252E+02</rscale>
<asrwt>0</asrwt>
<pdfrwt beam="2">  1        2 0.36577173E-01 0.91115252E+02</pdfrwt>
<pdfrwt beam="1">  1       -2 0.13430288E-02 0.91115252E+02</pdfrwt>
<totfact> 0.16507275E+05</totfact>
</mgrwt>
</event>
<event>
 5    1  0.1256986E+001  0.9590381E+02  0.7546771E-02  0.1289153E+00
          2   -1    0    0  501    0  0.00000000000E+00  0.00000000000E+00  0.72782616951E+02  0.72782616951E+02  0.00000000000E+00 0. -1.
         -2   -1    0    0    0  501 -0.00000000000E+00 -0.00000000000E+00 -0.31592503930E+02  0.31592503930E+02  0.00000000000E+00 0.  1.
         23    2    1    2    0    0  0.00000000000E+00  0.00000000000E+00  0.41190113021E+02  0.10437512088E+03  0.95903808310E+02 0.  0.
        -13    1    3    3    0    0  0.29236582424E+02  0.18016733517E+02  0.57017665851E+02  0.66561209856E+02  0.00000000000E+00 0. -1.
         13    1    3    3    0    0 -0.29236582424E+02 -0.18016733517E+02 -0.15827552830E+02  0.37813911025E+02  0.00000000000E+00 0.  1.
<mgrwt>
<rscale>  0 0.95903808E+02</rscale>
<asrwt>0</asrwt>
<pdfrwt beam="1">  1        2 0.11197326E-01 0.95903808E+02</pdfrwt>
<pdfrwt beam="2">  1       -2 0.48603852E-02 0.95903808E+02</pdfrwt>
<totfact> 0.97037268E+04</totfact>
</mgrwt>
</event>
<event>
 5    1  0.1256986E+001  0.9043667E+02  0.7546771E-02  0.1301798E+00
          2   -1    0    0  501    0  0.00000000000E+00  0.00000000000E+00  0.21810570829E+03  0.21810570829E+03  0.00000000000E+00 0. -1.
         -2   -1    0    0    0  501 -0.00000000000E+00 -0.00000000000E+00 -0.93748026836E+01  0.93748026836E+01  0.00000000000E+00 0.  1.
         23    2    1    2    0    0  0.00000000000E+00  0.00000000000E+00  0.20873090561E+03  0.22748051098E+03  0.90436673522E+02 0.  0.
        -11    1    3    3    0    0 -0.21073489126E+02 -0.25785834400E+02  0.18130811044E+03  0.18434107548E+03  0.00000000000E+00 0. -1.
         11    1    3    3    0    0  0.21073489126E+02  0.25785834400E+02  0.27422795171E+02  0.43139435493E+02  0.00000000000E+00 0.  1.
<mgrwt>
<rscale>  0 0.90436674E+02</rscale>
<asrwt>0</asrwt>
<pdfrwt beam="1">  1        2 0.33554720E-01 0.90436674E+02</pdfrwt>
<pdfrwt beam="2">  1       -2 0.14422775E-02 0.90436674E+02</pdfrwt>
<totfact> 0.16316518E+05</totfact>
</mgrwt>
</event>
<event>
 5    1  0.1256986E+001  0.9725098E+02  0.7546771E-02  0.1286185E+00
          2   -1    0    0  501    0  0.00000000000E+00  0.00000000000E+00  0.21276153696E+03  0.21276153696E+03  0.00000000000E+00 0. -1.
         -2   -1    0    0    0  501 -0.00000000000E+00 -0.00000000000E+00 -0.11113090525E+02  0.11113090525E+02  0.00000000000E+00 0.  1.
         23    2    1    2    0    0  0.00000000000E+00  0.00000000000E+00  0.20164844643E+03  0.22387462748E+03  0.97250978822E+02 0.  0.
        -11    1    3    3    0    0 -0.41216004464E+02 -0.95553404657E+01  0.45653518324E+02  0.62243933767E+02  0.00000000000E+00 0.  1.
         11    1    3    3    0    0  0.41216004464E+02  0.95553404657E+01  0.15599492811E+03  0.16163069372E+03  0.00000000000E+00 0. -1.
<mgrwt>
<rscale>  0 0.97250979E+02</rscale>
<asrwt>0</asrwt>
<pdfrwt beam="1">  1        2 0.32732541E-01 0.97250979E+02</pdfrwt>
<pdfrwt beam="2">  1       -2 0.17097064E-02 0.97250979E+02</pdfrwt>
<totfact> 0.13291009E+05</totfact>
</mgrwt>
</event>
<event>
 5    1  0.1256986E+001  0.9277851E+02  0.7546771E-02  0.1296259E+00
          2   -1    0    0  501    0  0.00000000000E+00  0.00000000000E+00  0.57446574924E+02  0.57446574924E+02  0.00000000000E+00 0.  1.
         -2   -1    0    0    0  501 -0.00000000000E+00 -0.00000000000E+00 -0.37460252169E+02  0.37460252169E+02  0.00000000000E+00 0. -1.
         23    2    1    2    0    0  0.00000000000E+00  0.00000000000E+00  0.19986322755E+02  0.94906827092E+02  0.92778514385E+02 0.  0.
        -11    1    3    3    0    0  0.20460948168E+02 -0.38758062949E+02 -0.55583936418E+01  0.44178428938E+02  0.00000000000E+00 0. -1.
         11    1    3    3    0    0 -0.20460948168E+02  0.38758062949E+02  0.25544716397E+02  0.50728398155E+02  0.00000000000E+00 0.  1.
<mgrwt>
<rscale>  0 0.92778514E+02</rscale>
<asrwt>0</asrwt>
<pdfrwt beam="1">  1        2 0.88379346E-02 0.92778514E+02</pdfrwt>
<pdfrwt beam="2">  1       -2 0.57631157E-02 0.92778514E+02</pdfrwt>
<totfact> 0.99793612E+04</totfact>
</mgrwt>
</event>
<event>
 5    1  0.1256986E+001  0.9152522E+02  0.7546771E-02  0.1299200E+00
         -3   -1    0    0    0  501 -0.00000000000E+00  0.00000000000E+00  0.21665520841E+03  0.21665520841E+03  0.00000000000E+00 0.  1.
          3   -1    0    0  501    0  0.00000000000E+00 -0.00000000000E+00 -0.96661258639E+01  0.96661258639E+01  0.00000000000E+00 0. -1.
         23    2    1    2    0    0  0.00000000000E+00  0.00000000000E+00  0.20698908255E+03  0.22632133428E+03  0.91525220865E+02 0.  0.
        -13    1    3    3    0    0 -0.24915453673E+02  0.20972318032E+02  0.23995725996E+02  0.40452599687E+02  0.00000000000E+00 0. -1.
         13    1    3    3    0    0  0.24915453673E+02 -0.20972318032E+02  0.18299335655E+03  0.18586873459E+03  0.00000000000E+00 0.  1.
<mgrwt>
<rscale>  0 0.91525221E+02</rscale>
<asrwt>0</asrwt>
<pdfrwt beam="2">  1        3 0.14870964E-02 0.91525221E+02</pdfrwt>
<pdfrwt beam="1">  1       -3 0.33331567E-01 0.91525221E+02</pdfrwt>
<totfact> 0.26911482E+04</totfact>
</mgrwt>
</event>
<event>
 5    1  0.1256986E+001  0.9123815E+02  0.7546771E-02  0.1299881E+00
          2   -1    0    0  501    0  0.00000000000E+00  0.00000000000E+00  0.23761475839E+03  0.23761475839E+03  0.00000000000E+00 0. -1.
         -2   -1    0    0    0  501 -0.00000000000E+00 -0.00000000000E+00 -0.87582941230E+01  0.87582941230E+01  0.00000000000E+00 0.  1.
         23    2    1    2    0    0  0.00000000000E+00  0.00000000000E+00  0.22885646427E+03  0.24637305251E+03  0.91238148643E+02 0.  0.
        -13    1    3    3    0    0 -0.27547561889E+02  0.24745132458E+02  0.42480278373E+02  0.56353915543E+02  0.00000000000E+00 0.  1.
         13    1    3    3    0    0  0.27547561889E+02 -0.24745132458E+02  0.18637618590E+03  0.19001913697E+03  0.00000000000E+00 0. -1.
<mgrwt>
<rscale>  0 0.91238149E+02</rscale>
<asrwt>0</asrwt>
<pdfrwt beam="1">  1        2 0.36556112E-01 0.91238149E+02</pdfrwt>
<pdfrwt beam="2">  1       -2 0.13474300E-02 0.91238149E+02</pdfrwt>
<totfact> 0.16444191E+05</totfact>
</mgrwt>
</event>
<event>
 5    1  0.1256986E+001  0.9098649E+02  0.7546771E-02  0.1300480E+00
          2   -1    0    0  501    0  0.00000000000E+00  0.00000000000E+00  0.24065785937E+02  0.24065785937E+02  0.00000000000E+00 0. -1.
         -2   -1    0    0    0  501 -0.00000000000E+00 -0.00000000000E+00 -0.85999077838E+02  0.85999077838E+02  0.00000000000E+00 0.  1.
         23    2    1    2    0    0  0.00000000000E+00  0.00000000000E+00 -0.61933291901E+02  0.11006486377E+03  0.90986491261E+02 0.  0.
        -13    1    3    3    0    0 -0.25286105358E+02 -0.92206154287E+01  0.13401350425E+02  0.30066643748E+02  0.00000000000E+00 0. -1.
         13    1    3    3    0    0  0.25286105358E+02  0.92206154287E+01 -0.75334642326E+02  0.79998220027E+02  0.00000000000E+00 0.  1.
<mgrwt>
<rscale>  0 0.90986491E+02</rscale>
<asrwt>0</asrwt>
<pdfrwt beam="1">  1        2 0.37024286E-02 0.90986491E+02</pdfrwt>
<pdfrwt beam="2">  1       -2 0.13230627E-01 0.90986491E+02</pdfrwt>
<totfact> 0.83809022E+04</totfact>
</mgrwt>
</event>
<event>
 5    1  0.1256986E+001  0.9282524E+02  0.7546771E-02  0.1296151E+00
         -1   -1    0    0    0  501 -0.00000000000E+00  0.00000000000E+00  0.18346376878E+02  0.18346376878E+02  0.00000000000E+00 0.  1.
          1   -1    0    0  501    0  0.00000000000E+00 -0.00000000000E+00 -0.11741452964E+03  0.11741452964E+03  0.00000000000E+00 0. -1.
         23    2    1    2    0    0  0.00000000000E+00  0.00000000000E+00 -0.99068152763E+02  0.13576090652E+03  0.92825238200E+02 0.  0.
        -11    1    3    3    0    0  0.33457545225E+02 -0.31452253140E+01 -0.96354450155E+02  0.10204645922E+03  0.00000000000E+00 0. -1.
         11    1    3    3    0    0 -0.33457545225E+02  0.31452253140E+01 -0.27137026078E+01  0.33714447298E+02  0.00000000000E+00 0.  1.
<mgrwt>
<rscale>  0 0.92825238E+02</rscale>
<asrwt>0</asrwt>
<pdfrwt beam="2">  1        1 0.18063774E-01 0.92825238E+02</pdfrwt>
<pdfrwt beam="1">  1       -1 0.28225195E-02 0.92825238E+02</pdfrwt>
<totfact> 0.10222910E+05</totfact>
</mgrwt>
</event>
<event>
 5    1  0.1256986E+001  0.9198942E+02  0.7546771E-02  0.1298104E+00
          1   -1    0    0  501    0  0.00000000000E+00  0.00000000000E+00  0.41962383976E+02  0.41962383976E+02  0.00000000000E+00 0. -1.
         -1   -1    0    0    0  501 -0.00000000000E+00 -0.00000000000E+00 -0.50414519966E+02  0.50414519966E+02  0.00000000000E+00 0.  1.
         23    2    1    2    0    0  0.00000000000E+00  0.00000000000E+00 -0.84521359898E+01  0.92376903942E+02  0.91989422104E+02 0.  0.
        -11    1    3    3    0    0  0.34419897916E+02  0.22913874016E+02 -0.24453865381E+02  0.48039218634E+02  0.00000000000E+00 0.  1.
         11    1    3    3    0    0 -0.34419897916E+02 -0.22913874016E+02  0.16001729391E+02  0.44337685307E+02  0.00000000000E+00 0. -1.
<mgrwt>
<rscale>  0 0.91989422E+02</rscale>
<asrwt>0</asrwt>
<pdfrwt beam="1">  1        1 0.64557514E-02 0.91989422E+02</pdfrwt>
<pdfrwt beam="2">  1       -1 0.77560800E-02 0.91989422E+02</pdfrwt>
<totfact> 0.89065257E+04</totfact>
</mgrwt>
</event>
<event>
 5    1  0.1256986E+001  0.1010285E+03  0.7546771E-02  0.1278148E+00
          2   -1    0    0  501    0  0.00000000000E+00  0.00000000000E+00  0.96981860323E+01  0.96981860323E+01  0.00000000000E+00 0. -1.
         -2   -1    0    0    0  501 -0.00000000000E+00 -0.00000000000E+00 -0.26311014828E+03  0.26311014828E+03  0.00000000000E+00 0.  1.
         23    2    1    2    0    0  0.00000000000E+00  0.00000000000E+00 -0.25341196225E+03  0.27280833431E+03  0.10102853389E+03 0.  0.
        -13    1    3    3    0    0 -0.44648778489E+02  0.16293469846E+02 -0.17290421555E+03  0.17931775801E+03  0.00000000000E+00 0.  1.
         13    1    3    3    0    0  0.44648778489E+02 -0.16293469846E+02 -0.80507746692E+02  0.93490576304E+02  0.00000000000E+00 0. -1.
<mgrwt>
<rscale>  0 0.10102853E+03</rscale>
<asrwt>0</asrwt>
<pdfrwt beam="1">  1        2 0.14920285E-02 0.10102853E+03</pdfrwt>
<pdfrwt beam="2">  1       -2 0.40478488E-01 0.10102853E+03</pdfrwt>
<totfact> 0.42027261E+04</totfact>
</mgrwt>
</event>
<event>
 5    1  0.1256986E+001  0.9106407E+02  0.7546771E-02  0.1300295E+00
          2   -1    0    0  501    0  0.00000000000E+00  0.00000000000E+00  0.29633737152E+02  0.29633737152E+02  0.00000000000E+00 0. -1.
         -2   -1    0    0    0  501 -0.00000000000E+00 -0.00000000000E+00 -0.69959659718E+02  0.69959659718E+02  0.00000000000E+00 0.  1.
         23    2    1    2    0    0  0.00000000000E+00  0.00000000000E+00 -0.40325922566E+02  0.99593396871E+02  0.91064069036E+02 0.  0.
        -13    1    3    3    0    0  0.16963691662E+02 -0.40795471659E+02 -0.81262665954E+01  0.44922973538E+02  0.00000000000E+00 0. -1.
         13    1    3    3    0    0 -0.16963691662E+02  0.40795471659E+02 -0.32199655971E+02  0.54670423332E+02  0.00000000000E+00 0.  1.
<mgrwt>
<rscale>  0 0.91064069E+02</rscale>
<asrwt>0</asrwt>
<pdfrwt beam="1">  1        2 0.45590365E-02 0.91064069E+02</pdfrwt>
<pdfrwt beam="2">  1       -2 0.10763024E-01 0.91064069E+02</pdfrwt>
<totfact> 0.88501084E+04</totfact>
</mgrwt>
</event>
<event>
 5    1  0.1256986E+001  0.9029823E+02  0.7546771E-02  0.1302131E+00
         -2   -1    0    0    0  501 -0.00000000000E+00  0.00000000000E+00  0.54360444032E+01  0.54360444032E+01  0.00000000000E+00 0. -1.
          2   -1    0    0  501    0  0.00000000000E+00 -0.00000000000E+00 -0.37498641123E+03  0.37498641123E+03  0.00000000000E+00 0.  1.
         23    2    1    2    0    0  0.00000000000E+00  0.00000000000E+00 -0.36955036682E+03  0.38042245563E+03  0.90298234357E+02 0.  0.
        -13    1    3    3    0    0  0.37345499381E+02  0.20427442619E+02 -0.24817646303E+03  0.25180056302E+03  0.00000000000E+00 0.  1.
         13    1    3    3    0    0 -0.37345499381E+02 -0.20427442619E+02 -0.12137390379E+03  0.12862189261E+03  0.00000000000E+00 0. -1.
<mgrwt>
<rscale>  0 0.90298234E+02</rscale>
<asrwt>0</asrwt>
<pdfrwt beam="2">  1        2 0.57690245E-01 0.90298234E+02</pdfrwt>
<pdfrwt beam="1">  1       -2 0.83631412E-03 0.90298234E+02</pdfrwt>
<totfact> 0.20010979E+05</totfact>
</mgrwt>
</event>
<event>
 4    1  0.1256986E+001  0.1486081E+03  0.7546771E-02  0.1202194E+00
         -3   -1    0    0    0  501 -0.00000000000E+00  0.00000000000E+00  0.40511664868E+02  0.40511664868E+02  0.00000000000E+00 0.  1.
          3   -1    0    0  501    0  0.00000000000E+00 -0.00000000000E+00 -0.13628400600E+03  0.13628400600E+03  0.00000000000E+00 0. -1.
        -13    1    1    2    0    0  0.11934749586E+02 -0.29182666559E+02  0.32159089454E+02  0.45036355422E+02  0.00000000000E+00 0.  1.
         13    1    1    2    0    0 -0.11934749586E+02  0.29182666559E+02 -0.12793143058E+03  0.13175931544E+03  0.00000000000E+00 0. -1.
<mgrwt>
<rscale>  0 0.14860810E+03</rscale>
<asrwt>0</asrwt>
<pdfrwt beam="2">  1        3 0.20966770E-01 0.14860810E+03</pdfrwt>
<pdfrwt beam="1">  1       -3 0.62325639E-02 0.14860810E+03</pdfrwt>
<totfact> 0.76281602E+03</totfact>
</mgrwt>
</event>
<event>
 5    1  0.1256986E+001  0.9188002E+02  0.7546771E-02  0.1298362E+00
          2   -1    0    0  501    0  0.00000000000E+00  0.00000000000E+00  0.35123447207E+03  0.35123447207E+03  0.00000000000E+00 0. -1.
         -2   -1    0    0    0  501 -0.00000000000E+00 -0.00000000000E+00 -0.60087630412E+01  0.60087630412E+01  0.00000000000E+00 0.  1.
         23    2    1    2    0    0  0.00000000000E+00  0.00000000000E+00  0.34522570903E+03  0.35724323511E+03  0.91880024261E+02 0.  0.
        -13    1    3    3    0    0  0.13935918323E+01  0.44017310461E+02  0.12176588326E+03  0.12948511901E+03  0.00000000000E+00 0.  1.
         13    1    3    3    0    0 -0.13935918323E+01 -0.44017310461E+02  0.22345982576E+03  0.22775811610E+03  0.00000000000E+00 0. -1.
<mgrwt>
<rscale>  0 0.91880024E+02</rscale>
<asrwt>0</asrwt>
<pdfrwt beam="1">  1        2 0.54036056E-01 0.91880024E+02</pdfrwt>
<pdfrwt beam="2">  1       -2 0.92442536E-03 0.91880024E+02</pdfrwt>
<totfact> 0.18658524E+05</totfact>
</mgrwt>
</event>
<event>
 5    1  0.1256986E+001  0.8829051E+02  0.7546771E-02  0.1307045E+00
         -1   -1    0    0    0  501 -0.00000000000E+00  0.00000000000E+00  0.28869712919E+02  0.28869712919E+02  0.00000000000E+00 0.  1.
          1   -1    0    0  501    0  0.00000000000E+00 -0.00000000000E+00 -0.67503389939E+02  0.67503389939E+02  0.00000000000E+00 0. -1.
         23    2    1    2    0    0  0.00000000000E+00  0.00000000000E+00 -0.38633677020E+02  0.96373102859E+02  0.88290508859E+02 0.  0.
        -13    1    3    3    0    0  0.14165082884E+02 -0.15579170650E+02  0.23035172016E+02  0.31208641128E+02  0.00000000000E+00 0.  1.
         13    1    3    3    0    0 -0.14165082884E+02  0.15579170650E+02 -0.61668849036E+02  0.65164461731E+02  0.00000000000E+00 0. -1.
<mgrwt>
<rscale>  0 0.88290509E+02</rscale>
<asrwt>0</asrwt>
<pdfrwt beam="2">  1        1 0.10385137E-01 0.88290509E+02</pdfrwt>
<pdfrwt beam="1">  1       -1 0.44414943E-02 0.88290509E+02</pdfrwt>
<totfact> 0.10720170E+05</totfact>
</mgrwt>
</event>
<event>
 5    1  0.1256986E+001  0.9979585E+02  0.7546771E-02  0.1280726E+00
         -2   -1    0    0    0  501 -0.00000000000E+00  0.00000000000E+00  0.15067022476E+03  0.15067022476E+03  0.00000000000E+00 0.  1.
          2   -1    0    0  501    0  0.00000000000E+00 -0.00000000000E+00 -0.16524849441E+02  0.16524849441E+02  0.00000000000E+00 0. -1.
         23    2    1    2    0    0  0.00000000000E+00  0.00000000000E+00  0.13414537532E+03  0.16719507420E+03  0.99795847195E+02 0.  0.
        -11    1    3    3    0    0  0.27958459219E+01  0.45334463084E+02  0.10168329444E+03  0.11136661378E+03  0.00000000000E+00 0.  1.
         11    1    3    3    0    0 -0.27958459219E+01 -0.45334463084E+02  0.32462080881E+02  0.55828460418E+02  0.00000000000E+00 0. -1.
<mgrwt>
<rscale>  0 0.99795847E+02</rscale>
<asrwt>0</asrwt>
<pdfrwt beam="2">  1        2 0.25422846E-02 0.99795847E+02</pdfrwt>
<pdfrwt beam="1">  1       -2 0.23180034E-01 0.99795847E+02</pdfrwt>
<totfact> 0.55473326E+04</totfact>
</mgrwt>
</event>
<event>
 5    1  0.1256986E+001  0.9102856E+02  0.7546771E-02  0.1300380E+00
          3   -1    0    0  501    0  0.00000000000E+00  0.00000000000E+00  0.56943193833E+02  0.56943193833E+02  0.00000000000E+00 0. -1.
         -3   -1    0    0    0  501 -0.00000000000E+00 -0.00000000000E+00 -0.36379234103E+02  0.36379234103E+02  0.00000000000E+00 0.  1.
         23    2    1    2    0    0  0.00000000000E+00  0.00000000000E+00  0.20563959730E+02  0.93322427936E+02  0.91028562090E+02 0.  0.
        -13    1    3    3    0    0  0.32389642836E+01 -0.22180372043E+02 -0.30327953033E+02  0.37712657408E+02  0.00000000000E+00 0.  1.
         13    1    3    3    0    0 -0.32389642836E+01  0.22180372043E+02  0.50891912763E+02  0.55609770529E+02  0.00000000000E+00 0. -1.
<mgrwt>
<rscale>  0 0.91028562E+02</rscale>
<asrwt>0</asrwt>
<pdfrwt beam="1">  1        3 0.87604914E-02 0.91028562E+02</pdfrwt>
<pdfrwt beam="2">  1       -3 0.55968052E-02 0.91028562E+02</pdfrwt>
<totfact> 0.35330969E+04</totfact>
</mgrwt>
</event>
<event>
 5    1  0.1256986E+001  0.8851196E+02  0.7546771E-02  0.1306496E+00
         -4   -1    0    0    0  501 -0.00000000000E+00  0.00000000000E+00  0.35793189453E+02  0.35793189453E+02  0.00000000000E+00 0.  1.
          4   -1    0    0  501    0  0.00000000000E+00 -0.00000000000E+00 -0.54719672985E+02  0.54719672985E+02  0.00000000000E+00 0. -1.
         23    2    1    2    0    0  0.00000000000E+00  0.00000000000E+00 -0.18926483532E+02  0.90512862439E+02  0.88511956751E+02 0.  0.
        -11    1    3    3    0    0 -0.35234636105E+02  0.25099657250E+02 -0.19008010562E+02  0.47252268104E+02  0.00000000000E+00 0. -1.
         11    1    3    3    0    0  0.35234636105E+02 -0.25099657250E+02  0.81527029567E-01  0.43260594334E+02  0.00000000000E+00 0.  1.
<mgrwt>
<rscale>  0 0.88511957E+02</rscale>
<asrwt>0</asrwt>
<pdfrwt beam="2">  1        4 0.84184112E-02 0.88511957E+02</pdfrwt>
<pdfrwt beam="1">  1       -4 0.55066445E-02 0.88511957E+02</pdfrwt>
<totfact> 0.29319452E+04</totfact>
</mgrwt>
</event>
<event>
 5    1  0.1256986E+001  0.9261121E+02  0.7546771E-02  0.1296649E+00
          2   -1    0    0  501    0  0.00000000000E+00  0.00000000000E+00  0.15276973935E+02  0.15276973935E+02  0.00000000000E+00 0. -1.
         -2   -1    0    0    0  501 -0.00000000000E+00 -0.00000000000E+00 -0.14035561906E+03  0.14035561906E+03  0.00000000000E+00 0.  1.
         23    2    1    2    0    0  0.00000000000E+00  0.00000000000E+00 -0.12507864513E+03  0.15563259300E+03  0.92611211718E+02 0.  0.
        -11    1    3    3    0    0 -0.24324536874E+02  0.34043965181E+02 -0.95876465611E+02  0.10460865795E+03  0.00000000000E+00 0.  1.
         11    1    3    3    0    0  0.24324536874E+02 -0.34043965181E+02 -0.29202179514E+02  0.51023935048E+02  0.00000000000E+00 0. -1.
<mgrwt>
<rscale>  0 0.92611212E+02</rscale>
<asrwt>0</asrwt>
<pdfrwt beam="1">  1        2 0.23503036E-02 0.92611212E+02</pdfrwt>
<pdfrwt beam="2">  1       -2 0.21593173E-01 0.92611212E+02</pdfrwt>
<totfact> 0.68768147E+04</totfact>
</mgrwt>
</event>
<event>
 5    1  0.1256986E+001  0.9181626E+02  0.7546771E-02  0.1298512E+00
          1   -1    0    0  501    0  0.00000000000E+00  0.00000000000E+00  0.11617952599E+03  0.11617952599E+03  0.00000000000E+00 0. -1.
         -1   -1    0    0    0  501 -0.00000000000E+00 -0.00000000000E+00 -0.18140513262E+02  0.18140513262E+02  0.00000000000E+00 0.  1.
         23    2    1    2    0    0  0.00000000000E+00  0.00000000000E+00  0.98039012731E+02  0.13432003925E+03  0.91816256339E+02 0.  0.
        -13    1    3    3    0    0 -0.23766637768E+02  0.31704756228E+02  0.15102684772E+02  0.42404430495E+02  0.00000000000E+00 0.  1.
         13    1    3    3    0    0  0.23766637768E+02 -0.31704756228E+02  0.82936327960E+02  0.91915608760E+02  0.00000000000E+00 0. -1.
<mgrwt>
<rscale>  0 0.91816256E+02</rscale>
<asrwt>0</asrwt>
<pdfrwt beam="1">  1        1 0.17873773E-01 0.91816256E+02</pdfrwt>
<pdfrwt beam="2">  1       -1 0.27908483E-02 0.91816256E+02</pdfrwt>
<totfact> 0.10512140E+05</totfact>
</mgrwt>
</event>
<event>
 5    1  0.1256986E+001  0.9254250E+02  0.7546771E-02  0.1296809E+00
         -2   -1    0    0    0  501 -0.00000000000E+00  0.00000000000E+00  0.60425553844E+02  0.60425553844E+02  0.00000000000E+00 0. -1.
          2   -1    0    0  501    0  0.00000000000E+00 -0.00000000000E+00 -0.35432499731E+02  0.35432499731E+02  0.00000000000E+00 0.  1.
         23    2    1    2    0    0  0.00000000000E+00  0.00000000000E+00  0.24993054113E+02  0.95858053575E+02  0.92542496623E+02 0.  0.
        -13    1    3    3    0    0  0.10297540043E+02  0.44255470422E+02  0.21552906876E+02  0.50290295168E+02  0.00000000000E+00 0.  1.
         13    1    3    3    0    0 -0.10297540043E+02 -0.44255470422E+02  0.34401472364E+01  0.45567758407E+02  0.00000000000E+00 0. -1.
<mgrwt>
<rscale>  0 0.92542497E+02</rscale>
<asrwt>0</asrwt>
<pdfrwt beam="2">  1        2 0.54511538E-02 0.92542497E+02</pdfrwt>
<pdfrwt beam="1">  1       -2 0.92962390E-02 0.92542497E+02</pdfrwt>
<totfact> 0.88489678E+04</totfact>
</mgrwt>
</event>
<event>
 5    1  0.1256986E+001  0.9422391E+02  0.7546771E-02  0.1292934E+00
         -3   -1    0    0    0  501 -0.00000000000E+00  0.00000000000E+00  0.48229229369E+02  0.48229229369E+02  0.00000000000E+00 0.  1.
          3   -1    0    0  501    0  0.00000000000E+00 -0.00000000000E+00 -0.46020563581E+02  0.46020563581E+02  0.00000000000E+00 0. -1.
         23    2    1    2    0    0  0.00000000000E+00  0.00000000000E+00  0.22086657876E+01  0.94249792950E+02  0.94223910270E+02 0.  0.
        -11    1    3    3    0    0  0.24351478302E+02 -0.38148011264E+02  0.14194984701E+02  0.47431665051E+02  0.00000000000E+00 0. -1.
         11    1    3    3    0    0 -0.24351478302E+02  0.38148011264E+02 -0.11986318914E+02  0.46818127899E+02  0.00000000000E+00 0.  1.
<mgrwt>
<rscale>  0 0.94223910E+02</rscale>
<asrwt>0</asrwt>
<pdfrwt beam="2">  1        3 0.70800867E-02 0.94223910E+02</pdfrwt>
<pdfrwt beam="1">  1       -3 0.74198814E-02 0.94223910E+02</pdfrwt>
<totfact> 0.32087006E+04</totfact>
</mgrwt>
</event>
<event>
 5    1  0.1256986E+001  0.9085151E+02  0.7546771E-02  0.1300803E+00
          1   -1    0    0  501    0  0.00000000000E+00  0.00000000000E+00  0.10618935580E+03  0.10618935580E+03  0.00000000000E+00 0. -1.
         -1   -1    0    0    0  501 -0.00000000000E+00 -0.00000000000E+00 -0.19432258297E+02  0.19432258297E+02  0.00000000000E+00 0.  1.
         23    2    1    2    0    0  0.00000000000E+00  0.00000000000E+00  0.86757097508E+02  0.12562161410E+03  0.90851505003E+02 0.  0.
        -11    1    3    3    0    0  0.40621201796E+02 -0.55373907768E+01  0.16326992244E+02  0.44128396840E+02  0.00000000000E+00 0.  1.
         11    1    3    3    0    0 -0.40621201796E+02  0.55373907768E+01  0.70430105264E+02  0.81493217261E+02  0.00000000000E+00 0. -1.
<mgrwt>
<rscale>  0 0.90851505E+02</rscale>
<asrwt>0</asrwt>
<pdfrwt beam="1">  1        1 0.16336824E-01 0.90851505E+02</pdfrwt>
<pdfrwt beam="2">  1       -1 0.29895783E-02 0.90851505E+02</pdfrwt>
<totfact> 0.10653864E+05</totfact>
</mgrwt>
</event>
<event>
 5    1  0.1256986E+001  0.7488741E+02  0.7546771E-02  0.1344220E+00
         -4   -1    0    0    0  501 -0.00000000000E+00  0.00000000000E+00  0.70486814080E+01  0.70486814080E+01  0.00000000000E+00 0. -1.
          4   -1    0    0  501    0  0.00000000000E+00 -0.00000000000E+00 -0.19890683682E+03  0.19890683682E+03  0.00000000000E+00 0.  1.
         23    2    1    2    0    0  0.00000000000E+00  0.00000000000E+00 -0.19185815542E+03  0.20595551823E+03  0.74887406756E+02 0.  0.
        -13    1    3    3    0    0 -0.10833226696E+02 -0.31722568503E+02 -0.14181303364E+03  0.14572102341E+03  0.00000000000E+00 0.  1.
         13    1    3    3    0    0  0.10833226696E+02  0.31722568503E+02 -0.50045121778E+02  0.60234494825E+02  0.00000000000E+00 0. -1.
<mgrwt>
<rscale>  0 0.74887407E+02</rscale>
<asrwt>0</asrwt>
<pdfrwt beam="2">  1        4 0.30601055E-01 0.74887407E+02</pdfrwt>
<pdfrwt beam="1">  1       -4 0.10844124E-02 0.74887407E+02</pdfrwt>
<totfact> 0.35524478E+04</totfact>
</mgrwt>
</event>
<event>
 5    1  0.1256986E+001  0.8998733E+02  0.7546771E-02  0.1302882E+00
          2   -1    0    0  501    0  0.00000000000E+00  0.00000000000E+00  0.70233908021E+02  0.70233908021E+02  0.00000000000E+00 0. -1.
         -2   -1    0    0    0  501 -0.00000000000E+00 -0.00000000000E+00 -0.28824107642E+02  0.28824107642E+02  0.00000000000E+00 0.  1.
         23    2    1    2    0    0  0.00000000000E+00  0.00000000000E+00  0.41409800379E+02  0.99058015663E+02  0.89987326328E+02 0.  0.
        -11    1    3    3    0    0  0.35379952034E+02  0.24125636277E+02  0.35904005221E+02  0.55882778408E+02  0.00000000000E+00 0. -1.
         11    1    3    3    0    0 -0.35379952034E+02 -0.24125636277E+02  0.55057951582E+01  0.43175237255E+02  0.00000000000E+00 0.  1.
<mgrwt>
<rscale>  0 0.89987326E+02</rscale>
<asrwt>0</asrwt>
<pdfrwt beam="1">  1        2 0.10805217E-01 0.89987326E+02</pdfrwt>
<pdfrwt beam="2">  1       -2 0.44344781E-02 0.89987326E+02</pdfrwt>
<totfact> 0.11485682E+05</totfact>
</mgrwt>
</event>
<event>
 5    1  0.1256986E+001  0.9071942E+02  0.7546771E-02  0.1301119E+00
         -1   -1    0    0    0  501 -0.00000000000E+00  0.00000000000E+00  0.37122319792E+02  0.37122319792E+02  0.00000000000E+00 0.  1.
          1   -1    0    0  501    0  0.00000000000E+00 -0.00000000000E+00 -0.55424961146E+02  0.55424961146E+02  0.00000000000E+00 0. -1.
         23    2    1    2    0    0  0.00000000000E+00  0.00000000000E+00 -0.18302641354E+02  0.92547280938E+02  0.90719416491E+02 0.  0.
        -13    1    3    3    0    0 -0.14968539809E+01  0.12355197599E+02  0.35346474389E+02  0.37473520402E+02  0.00000000000E+00 0.  1.
         13    1    3    3    0    0  0.14968539809E+01 -0.12355197599E+02 -0.53649115744E+02  0.55073760536E+02  0.00000000000E+00 0. -1.
<mgrwt>
<rscale>  0 0.90719416E+02</rscale>
<asrwt>0</asrwt>
<pdfrwt beam="2">  1        1 0.85269171E-02 0.90719416E+02</pdfrwt>
<pdfrwt beam="1">  1       -1 0.57111261E-02 0.90719416E+02</pdfrwt>
<totfact> 0.96566334E+04</totfact>
</mgrwt>
</event>
<event>
 5    1  0.1256986E+001  0.9040034E+02  0.7546771E-02  0.1301885E+00
         -1   -1    0    0    0  501 -0.00000000000E+00  0.00000000000E+00  0.15999193164E+03  0.15999193164E+03  0.00000000000E+00 0.  1.
          1   -1    0    0  501    0  0.00000000000E+00 -0.00000000000E+00 -0.12769739691E+02  0.12769739691E+02  0.00000000000E+00 0. -1.
         23    2    1    2    0    0  0.00000000000E+00  0.00000000000E+00  0.14722219194E+03  0.17276167133E+03  0.90400338929E+02 0.  0.
        -11    1    3    3    0    0  0.43940001704E+02  0.10222888930E+02  0.78956676319E+02  0.90936175107E+02  0.00000000000E+00 0.  1.
         11    1    3    3    0    0 -0.43940001704E+02 -0.10222888930E+02  0.68265515626E+02  0.81825496219E+02  0.00000000000E+00 0. -1.
<mgrwt>
<rscale>  0 0.90400339E+02</rscale>
<asrwt>0</asrwt>
<pdfrwt beam="2">  1        1 0.19645754E-02 0.90400339E+02</pdfrwt>
<pdfrwt beam="1">  1       -1 0.24614142E-01 0.90400339E+02</pdfrwt>
<totfact> 0.75297359E+04</totfact>
</mgrwt>
</event>
<event>
 5    1  0.1256986E+001  0.9154508E+02  0.7546771E-02  0.1299153E+00
         -1   -1    0    0    0  501 -0.00000000000E+00  0.00000000000E+00  0.63741891988E+01  0.63741891988E+01  0.00000000000E+00 0.  1.
          1   -1    0    0  501    0  0.00000000000E+00 -0.00000000000E+00 -0.32868895249E+03  0.32868895249E+03  0.00000000000E+00 0. -1.
         23    2    1    2    0    0  0.00000000000E+00  0.00000000000E+00 -0.32231476329E+03  0.33506314169E+03  0.91545083335E+02 0.  0.
        -13    1    3    3    0    0 -0.20831063111E+02  0.39994056331E+02 -0.18989964706E+03  0.19518025947E+03  0.00000000000E+00 0.  1.
         13    1    3    3    0    0  0.20831063111E+02 -0.39994056331E+02 -0.13241511623E+03  0.13988288222E+03  0.00000000000E+00 0. -1.
<mgrwt>
<rscale>  0 0.91545083E+02</rscale>
<asrwt>0</asrwt>
<pdfrwt beam="2">  1        1 0.50567541E-01 0.91545083E+02</pdfrwt>
<pdfrwt beam="1">  1       -1 0.98064431E-03 0.91545083E+02</pdfrwt>
<totfact> 0.12894557E+05</totfact>
</mgrwt>
</event>
<event>
 5    1  0.1256986E+001  0.8467967E+02  0.7546771E-02  0.1316272E+00
          3   -1    0    0  501    0  0.00000000000E+00  0.00000000000E+00  0.18267473762E+02  0.18267473762E+02  0.00000000000E+00 0. -1.
         -3   -1    0    0    0  501 -0.00000000000E+00 -0.00000000000E+00 -0.98134084574E+02  0.98134084574E+02  0.00000000000E+00 0.  1.
         23    2    1    2    0    0  0.00000000000E+00  0.00000000000E+00 -0.79866610812E+02  0.11640155834E+03  0.84679674423E+02 0.  0.
        -11    1    3    3    0    0 -0.32269520641E+02  0.26254635533E+02 -0.50759962644E+02  0.65629274391E+02  0.00000000000E+00 0.  1.
         11    1    3    3    0    0  0.32269520641E+02 -0.26254635533E+02 -0.29106648168E+02  0.50772283945E+02  0.00000000000E+00 0. -1.
<mgrwt>
<rscale>  0 0.84679674E+02</rscale>
<asrwt>0</asrwt>
<pdfrwt beam="1">  1        3 0.28103806E-02 0.84679674E+02</pdfrwt>
<pdfrwt beam="2">  1       -3 0.15097551E-01 0.84679674E+02</pdfrwt>
<totfact> 0.40899507E+04</totfact>
</mgrwt>
</event>
<event>
 5    1  0.1256986E+001  0.9022442E+02  0.7546771E-02  0.1302309E+00
         -1   -1    0    0    0  501 -0.00000000000E+00  0.00000000000E+00  0.84520418890E+01  0.84520418890E+01  0.00000000000E+00 0.  1.
          1   -1    0    0  501    0  0.00000000000E+00 -0.00000000000E+00 -0.24078339973E+03  0.24078339973E+03  0.00000000000E+00 0. -1.
         23    2    1    2    0    0  0.00000000000E+00  0.00000000000E+00 -0.23233135784E+03  0.24923544162E+03  0.90224417553E+02 0.  0.
        -13    1    3    3    0    0  0.30375420792E+02  0.31008373836E+02 -0.15010222688E+03  0.15625256462E+03  0.00000000000E+00 0.  1.
         13    1    3    3    0    0 -0.30375420792E+02 -0.31008373836E+02 -0.82229130959E+02  0.92982876996E+02  0.00000000000E+00 0. -1.
<mgrwt>
<rscale>  0 0.90224418E+02</rscale>
<asrwt>0</asrwt>
<pdfrwt beam="2">  1        1 0.37043601E-01 0.90224418E+02</pdfrwt>
<pdfrwt beam="1">  1       -1 0.13003141E-02 0.90224418E+02</pdfrwt>
<totfact> 0.12625891E+05</totfact>
</mgrwt>
</event>
<event>
 5    1  0.1256986E+001  0.9143241E+02  0.7546771E-02  0.1299420E+00
         -4   -1    0    0    0  501 -0.00000000000E+00  0.00000000000E+00  0.94772880643E+02  0.94772880643E+02  0.00000000000E+00 0.  1.
          4   -1    0    0  501    0  0.00000000000E+00 -0.00000000000E+00 -0.22052422242E+02  0.22052422242E+02  0.00000000000E+00 0. -1.
         23    2    1    2    0    0  0.00000000000E+00  0.00000000000E+00  0.72720458401E+02  0.11682530288E+03  0.91432413968E+02 0.  0.
        -11    1    3    3    0    0 -0.23417017957E+02  0.23095689056E+02 -0.42103247218E+01  0.33158625080E+02  0.00000000000E+00 0. -1.
         11    1    3    3    0    0  0.23417017957E+02 -0.23095689056E+02  0.76930783122E+02  0.83666677804E+02  0.00000000000E+00 0.  1.
<mgrwt>
<rscale>  0 0.91432414E+02</rscale>
<asrwt>0</asrwt>
<pdfrwt beam="2">  1        4 0.33926804E-02 0.91432414E+02</pdfrwt>
<pdfrwt beam="1">  1       -4 0.14580443E-01 0.91432414E+02</pdfrwt>
<totfact> 0.25261727E+04</totfact>
</mgrwt>
</event>
<event>
 5    1  0.1256986E+001  0.1021641E+03  0.7546771E-02  0.1275810E+00
          1   -1    0    0  501    0  0.00000000000E+00  0.00000000000E+00  0.22764064919E+03  0.22764064919E+03  0.00000000000E+00 0. -1.
         -1   -1    0    0    0  501 -0.00000000000E+00 -0.00000000000E+00 -0.11462695848E+02  0.11462695848E+02  0.00000000000E+00 0.  1.
         23    2    1    2    0    0  0.00000000000E+00  0.00000000000E+00  0.21617795334E+03  0.23910334503E+03  0.10216409397E+03 0.  0.
        -13    1    3    3    0    0 -0.80821134051E+01  0.50021843094E+02  0.12323294809E+03  0.13324362964E+03  0.00000000000E+00 0. -1.
         13    1    3    3    0    0  0.80821134051E+01 -0.50021843094E+02  0.92945005247E+02  0.10585971540E+03  0.00000000000E+00 0.  1.
<mgrwt>
<rscale>  0 0.10216409E+03</rscale>
<asrwt>0</asrwt>
<pdfrwt beam="1">  1        1 0.35021635E-01 0.10216409E+03</pdfrwt>
<pdfrwt beam="2">  1       -1 0.17634918E-02 0.10216409E+03</pdfrwt>
<totfact> 0.89377164E+04</totfact>
</mgrwt>
</event>
<event>
 5    1  0.1256986E+001  0.9071434E+02  0.7546771E-02  0.1301131E+00
          1   -1    0    0  501    0  0.00000000000E+00  0.00000000000E+00  0.26358871619E+02  0.26358871619E+02  0.00000000000E+00 0. -1.
         -1   -1    0    0    0  501 -0.00000000000E+00 -0.00000000000E+00 -0.78048597991E+02  0.78048597991E+02  0.00000000000E+00 0.  1.
         23    2    1    2    0    0  0.00000000000E+00  0.00000000000E+00 -0.51689726372E+02  0.10440746961E+03  0.90714342294E+02 0.  0.
        -11    1    3    3    0    0 -0.85927813685E+01  0.44213671208E+02 -0.31998760486E+02  0.55250387202E+02  0.00000000000E+00 0.  1.
         11    1    3    3    0    0  0.85927813685E+01 -0.44213671208E+02 -0.19690965886E+02  0.49157082407E+02  0.00000000000E+00 0. -1.
<mgrwt>
<rscale>  0 0.90714342E+02</rscale>
<asrwt>0</asrwt>
<pdfrwt beam="1">  1        1 0.40552110E-02 0.90714342E+02</pdfrwt>
<pdfrwt beam="2">  1       -1 0.12007477E-01 0.90714342E+02</pdfrwt>
<totfact> 0.86115692E+04</totfact>
</mgrwt>
</event>
<event>
 5    1  0.1256986E+001  0.9179864E+02  0.7546771E-02  0.1298554E+00
          1   -1    0    0  501    0  0.00000000000E+00  0.00000000000E+00  0.30149254371E+02  0.30149254371E+02  0.00000000000E+00 0. -1.
         -1   -1    0    0    0  501 -0.00000000000E+00 -0.00000000000E+00 -0.69877275713E+02  0.69877275713E+02  0.00000000000E+00 0.  1.
         23    2    1    2    0    0  0.00000000000E+00  0.00000000000E+00 -0.39728021342E+02  0.10002653008E+03  0.91798644004E+02 0.  0.
        -11    1    3    3    0    0  0.14768964362E+02 -0.23959690875E+02 -0.59370544100E+02  0.65704266238E+02  0.00000000000E+00 0.  1.
         11    1    3    3    0    0 -0.14768964362E+02  0.23959690875E+02  0.19642522758E+02  0.34322263846E+02  0.00000000000E+00 0. -1.
<mgrwt>
<rscale>  0 0.91798644E+02</rscale>
<asrwt>0</asrwt>
<pdfrwt beam="1">  1        1 0.46383468E-02 0.91798644E+02</pdfrwt>
<pdfrwt beam="2">  1       -1 0.10750350E-01 0.91798644E+02</pdfrwt>
<totfact> 0.85075312E+04</totfact>
</mgrwt>
</event>
<event>
 5    1  0.1256986E+001  0.9311118E+02  0.7546771E-02  0.1295488E+00
          3   -1    0    0  501    0  0.00000000000E+00  0.00000000000E+00  0.57158651386E+02  0.57158651386E+02  0.00000000000E+00 0. -1.
         -3   -1    0    0    0  501 -0.00000000000E+00 -0.00000000000E+00 -0.37919422090E+02  0.37919422090E+02  0.00000000000E+00 0.  1.
         23    2    1    2    0    0  0.00000000000E+00  0.00000000000E+00  0.19239229297E+02  0.95078073476E+02  0.93111181455E+02 0.  0.
        -11    1    3    3    0    0  0.16426901295E+02 -0.37152332966E+02 -0.13604710302E+02  0.42839550341E+02  0.00000000000E+00 0.  1.
         11    1    3    3    0    0 -0.16426901295E+02  0.37152332966E+02  0.32843939598E+02  0.52238523135E+02  0.00000000000E+00 0. -1.
<mgrwt>
<rscale>  0 0.93111181E+02</rscale>
<asrwt>0</asrwt>
<pdfrwt beam="1">  1        3 0.87936387E-02 0.93111181E+02</pdfrwt>
<pdfrwt beam="2">  1       -3 0.58337572E-02 0.93111181E+02</pdfrwt>
<totfact> 0.33088665E+04</totfact>
</mgrwt>
</event>
<event>
 5    1  0.1256986E+001  0.9160929E+02  0.7546771E-02  0.1299001E+00
          4   -1    0    0  501    0  0.00000000000E+00  0.00000000000E+00  0.40168826579E+02  0.40168826579E+02  0.00000000000E+00 0. -1.
         -4   -1    0    0    0  501 -0.00000000000E+00 -0.00000000000E+00 -0.52231191617E+02  0.52231191617E+02  0.00000000000E+00 0.  1.
         23    2    1    2    0    0  0.00000000000E+00  0.00000000000E+00 -0.12062365038E+02  0.92400018196E+02  0.91609293810E+02 0.  0.
        -11    1    3    3    0    0  0.38353398936E+02  0.14304277195E+02 -0.26762672757E+02  0.48906402537E+02  0.00000000000E+00 0.  1.
         11    1    3    3    0    0 -0.38353398936E+02 -0.14304277195E+02  0.14700307719E+02  0.43493615659E+02  0.00000000000E+00 0. -1.
<mgrwt>
<rscale>  0 0.91609294E+02</rscale>
<asrwt>0</asrwt>
<pdfrwt beam="1">  1        4 0.61798195E-02 0.91609294E+02</pdfrwt>
<pdfrwt beam="2">  1       -4 0.80355680E-02 0.91609294E+02</pdfrwt>
<totfact> 0.26593429E+04</totfact>
</mgrwt>
</event>
<event>
 5    1  0.1256986E+001  0.9452481E+02  0.7546771E-02  0.1292250E+00
         -4   -1    0    0    0  501 -0.00000000000E+00  0.00000000000E+00  0.13818357185E+02  0.13818357185E+02  0.00000000000E+00 0.  1.
          4   -1    0    0  501    0  0.00000000000E+00 -0.00000000000E+00 -0.16164981822E+03  0.16164981822E+03  0.00000000000E+00 0. -1.
         23    2    1    2    0    0  0.00000000000E+00  0.00000000000E+00 -0.14783146104E+03  0.17546817541E+03  0.94524810014E+02 0.  0.
        -13    1    3    3    0    0 -0.46135423736E+02 -0.77665345255E+01 -0.61471671808E+02  0.77250002050E+02  0.00000000000E+00 0. -1.
         13    1    3    3    0    0  0.46135423736E+02  0.77665345255E+01 -0.86359789227E+02  0.98218173355E+02  0.00000000000E+00 0.  1.
<mgrwt>
<rscale>  0 0.94524810E+02</rscale>
<asrwt>0</asrwt>
<pdfrwt beam="2">  1        4 0.24869204E-01 0.94524810E+02</pdfrwt>
<pdfrwt beam="1">  1       -4 0.21259010E-02 0.94524810E+02</pdfrwt>
<totfact> 0.20376650E+04</totfact>
</mgrwt>
</event>
<event>
 5    1  0.1256986E+001  0.8300181E+02  0.7546771E-02  0.1320742E+00
          1   -1    0    0  501    0  0.00000000000E+00  0.00000000000E+00  0.22484438233E+02  0.22484438233E+02  0.00000000000E+00 0. -1.
         -1   -1    0    0    0  501 -0.00000000000E+00 -0.00000000000E+00 -0.76600765834E+02  0.76600765834E+02  0.00000000000E+00 0.  1.
         23    2    1    2    0    0  0.00000000000E+00  0.00000000000E+00 -0.54116327601E+02  0.99085204067E+02  0.83001811739E+02 0.  0.
        -13    1    3    3    0    0 -0.14729125430E+02  0.40110018749E-01 -0.73375523417E+02  0.74839268980E+02  0.00000000000E+00 0.  1.
         13    1    3    3    0    0  0.14729125430E+02 -0.40110018749E-01  0.19259195816E+02  0.24245935087E+02  0.00000000000E+00 0. -1.
<mgrwt>
<rscale>  0 0.83001812E+02</rscale>
<asrwt>0</asrwt>
<pdfrwt beam="1">  1        1 0.34591444E-02 0.83001812E+02</pdfrwt>
<pdfrwt beam="2">  1       -1 0.11784733E-01 0.83001812E+02</pdfrwt>
<totfact> 0.10836861E+05</totfact>
</mgrwt>
</event>
<event>
 5    1  0.1256986E+001  0.8979928E+02  0.7546771E-02  0.1303338E+00
         -2   -1    0    0    0  501 -0.00000000000E+00  0.00000000000E+00  0.20939429166E+02  0.20939429166E+02  0.00000000000E+00 0.  1.
          2   -1    0    0  501    0  0.00000000000E+00 -0.00000000000E+00 -0.96276629144E+02  0.96276629144E+02  0.00000000000E+00 0. -1.
         23    2    1    2    0    0  0.00000000000E+00  0.00000000000E+00 -0.75337199978E+02  0.11721605831E+03  0.89799279648E+02 0.  0.
        -13    1    3    3    0    0  0.20939311457E+02  0.27634607063E+02 -0.43056004197E+00  0.34674365946E+02  0.00000000000E+00 0.  1.
         13    1    3    3    0    0 -0.20939311457E+02 -0.27634607063E+02 -0.74906639936E+02  0.82541692364E+02  0.00000000000E+00 0. -1.
<mgrwt>
<rscale>  0 0.89799280E+02</rscale>
<asrwt>0</asrwt>
<pdfrwt beam="2">  1        2 0.14811789E-01 0.89799280E+02</pdfrwt>
<pdfrwt beam="1">  1       -2 0.32214506E-02 0.89799280E+02</pdfrwt>
<totfact> 0.12646321E+05</totfact>
</mgrwt>
</event>
<event>
 5    1  0.1256986E+001  0.9616654E+02  0.7546771E-02  0.1288570E+00
          1   -1    0    0  501    0  0.00000000000E+00  0.00000000000E+00  0.30166100102E+02  0.30166100102E+02  0.00000000000E+00 0. -1.
         -1   -1    0    0    0  501 -0.00000000000E+00 -0.00000000000E+00 -0.76642355002E+02  0.76642355002E+02  0.00000000000E+00 0.  1.
         23    2    1    2    0    0  0.00000000000E+00  0.00000000000E+00 -0.46476254901E+02  0.10680845510E+03  0.96166542062E+02 0.  0.
        -11    1    3    3    0    0  0.15972405463E+02 -0.19112044170E+02 -0.68918763083E+02  0.73281538422E+02  0.00000000000E+00 0.  1.
         11    1    3    3    0    0 -0.15972405463E+02  0.19112044170E+02  0.22442508183E+02  0.33526916681E+02  0.00000000000E+00 0. -1.
<mgrwt>
<rscale>  0 0.96166542E+02</rscale>
<asrwt>0</asrwt>
<pdfrwt beam="1">  1        1 0.46409386E-02 0.96166542E+02</pdfrwt>
<pdfrwt beam="2">  1       -1 0.11791131E-01 0.96166542E+02</pdfrwt>
<totfact> 0.74390330E+04</totfact>
</mgrwt>
</event>
<event>
 5    1  0.1256986E+001  0.9631602E+02  0.7546771E-02  0.1288239E+00
         -2   -1    0    0    0  501 -0.00000000000E+00  0.00000000000E+00  0.28104047109E+02  0.28104047109E+02  0.00000000000E+00 0.  1.
          2   -1    0    0  501    0  0.00000000000E+00 -0.00000000000E+00 -0.82521704387E+02  0.82521704387E+02  0.00000000000E+00 0. -1.
         23    2    1    2    0    0  0.00000000000E+00  0.00000000000E+00 -0.54417657278E+02  0.11062575150E+03  0.96316018764E+02 0.  0.
        -13    1    3    3    0    0  0.46810933105E+02  0.33073522352E+00 -0.14223323246E+02  0.48925205856E+02  0.00000000000E+00 0.  1.
         13    1    3    3    0    0 -0.46810933105E+02 -0.33073522352E+00 -0.40194334032E+02  0.61700545639E+02  0.00000000000E+00 0. -1.
<mgrwt>
<rscale>  0 0.96316019E+02</rscale>
<asrwt>0</asrwt>
<pdfrwt beam="2">  1        2 0.12695647E-01 0.96316019E+02</pdfrwt>
<pdfrwt beam="1">  1       -2 0.43236995E-02 0.96316019E+02</pdfrwt>
<totfact> 0.99445876E+04</totfact>
</mgrwt>
</event>
<event>
 5    1  0.1256986E+001  0.9182141E+02  0.7546771E-02  0.1298500E+00
          4   -1    0    0  501    0  0.00000000000E+00  0.00000000000E+00  0.28954326141E+02  0.28954326141E+02  0.00000000000E+00 0. -1.
         -4   -1    0    0    0  501 -0.00000000000E+00 -0.00000000000E+00 -0.72797161331E+02  0.72797161331E+02  0.00000000000E+00 0.  1.
         23    2    1    2    0    0  0.00000000000E+00  0.00000000000E+00 -0.43842835190E+02  0.10175148747E+03  0.91821408208E+02 0.  0.
        -13    1    3    3    0    0 -0.42701215648E+02  0.15830892209E+02 -0.28362192431E+02  0.53650954562E+02  0.00000000000E+00 0.  1.
         13    1    3    3    0    0  0.42701215648E+02 -0.15830892209E+02 -0.15480642759E+02  0.48100532909E+02  0.00000000000E+00 0. -1.
<mgrwt>
<rscale>  0 0.91821408E+02</rscale>
<asrwt>0</asrwt>
<pdfrwt beam="1">  1        4 0.44545118E-02 0.91821408E+02</pdfrwt>
<pdfrwt beam="2">  1       -4 0.11199563E-01 0.91821408E+02</pdfrwt>
<totfact> 0.25850834E+04</totfact>
</mgrwt>
</event>
<event>
 5    1  0.1256986E+001  0.9128217E+02  0.7546771E-02  0.1299776E+00
         -3   -1    0    0    0  501 -0.00000000000E+00  0.00000000000E+00  0.54348167282E+02  0.54348167282E+02  0.00000000000E+00 0.  1.
          3   -1    0    0  501    0  0.00000000000E+00 -0.00000000000E+00 -0.38328960378E+02  0.38328960378E+02  0.00000000000E+00 0. -1.
         23    2    1    2    0    0  0.00000000000E+00  0.00000000000E+00  0.16019206904E+02  0.92677127660E+02  0.91282172419E+02 0.  0.
        -13    1    3    3    0    0 -0.30412246964E+02  0.24786390547E+02 -0.15667125580E+02  0.42246050060E+02  0.00000000000E+00 0. -1.
         13    1    3    3    0    0  0.30412246964E+02 -0.24786390547E+02  0.31686332484E+02  0.50431077601E+02  0.00000000000E+00 0.  1.
<mgrwt>
<rscale>  0 0.91282172E+02</rscale>
<asrwt>0</asrwt>
<pdfrwt beam="2">  1        3 0.58967631E-02 0.91282172E+02</pdfrwt>
<pdfrwt beam="1">  1       -3 0.83612565E-02 0.91282172E+02</pdfrwt>
<totfact> 0.35113541E+04</totfact>
</mgrwt>
</event>
<event>
 5    1  0.1256986E+001  0.9050006E+02  0.7546771E-02  0.1301645E+00
         -1   -1    0    0    0  501 -0.00000000000E+00  0.00000000000E+00  0.58982548486E+02  0.58982548486E+02  0.00000000000E+00 0.  1.
          1   -1    0    0  501    0  0.00000000000E+00 -0.00000000000E+00 -0.34714765511E+02  0.34714765511E+02  0.00000000000E+00 0. -1.
         23    2    1    2    0    0  0.00000000000E+00  0.00000000000E+00  0.24267782975E+02  0.93697313997E+02  0.90500062761E+02 0.  0.
        -11    1    3    3    0    0  0.43758247614E+02  0.10984503887E+02  0.85292551205E+01  0.45915049306E+02  0.00000000000E+00 0.  1.
         11    1    3    3    0    0 -0.43758247614E+02 -0.10984503887E+02  0.15738527854E+02  0.47782264690E+02  0.00000000000E+00 0. -1.
<mgrwt>
<rscale>  0 0.90500063E+02</rscale>
<asrwt>0</asrwt>
<pdfrwt beam="2">  1        1 0.53407332E-02 0.90500063E+02</pdfrwt>
<pdfrwt beam="1">  1       -1 0.90742382E-02 0.90500063E+02</pdfrwt>
<totfact> 0.90609983E+04</totfact>
</mgrwt>
</event>
<event>
 5    1  0.1256986E+001  0.8949944E+02  0.7546771E-02  0.1304068E+00
          1   -1    0    0  501    0  0.00000000000E+00  0.00000000000E+00  0.39191186751E+02  0.39191186751E+02  0.00000000000E+00 0. -1.
         -1   -1    0    0    0  501 -0.00000000000E+00 -0.00000000000E+00 -0.51096630820E+02  0.51096630820E+02  0.00000000000E+00 0.  1.
         23    2    1    2    0    0  0.00000000000E+00  0.00000000000E+00 -0.11905444069E+02  0.90287817571E+02  0.89499443591E+02 0.  0.
        -13    1    3    3    0    0  0.14383745972E+02  0.38352791053E+02  0.12225688072E+02  0.42746885016E+02  0.00000000000E+00 0.  1.
         13    1    3    3    0    0 -0.14383745972E+02 -0.38352791053E+02 -0.24131132141E+02  0.47540932555E+02  0.00000000000E+00 0. -1.
<mgrwt>
<rscale>  0 0.89499444E+02</rscale>
<asrwt>0</asrwt>
<pdfrwt beam="1">  1        1 0.60294133E-02 0.89499444E+02</pdfrwt>
<pdfrwt beam="2">  1       -1 0.78610202E-02 0.89499444E+02</pdfrwt>
<totfact> 0.95242600E+04</totfact>
</mgrwt>
</event>
<event>
 5    1  0.1256986E+001  0.9027891E+02  0.7546771E-02  0.1302178E+00
          2   -1    0    0  501    0  0.00000000000E+00  0.00000000000E+00  0.73656813441E+02  0.73656813441E+02  0.00000000000E+00 0. -1.
         -2   -1    0    0    0  501 -0.00000000000E+00 -0.00000000000E+00 -0.27663024040E+02  0.27663024040E+02  0.00000000000E+00 0.  1.
         23    2    1    2    0    0  0.00000000000E+00  0.00000000000E+00  0.45993789401E+02  0.10131983748E+03  0.90278905640E+02 0.  0.
        -11    1    3    3    0    0 -0.27107994572E+01 -0.27069744322E+02  0.63422230164E+02  0.69010859800E+02  0.00000000000E+00 0. -1.
         11    1    3    3    0    0  0.27107994572E+01  0.27069744322E+02 -0.17428440763E+02  0.32308977681E+02  0.00000000000E+00 0.  1.
<mgrwt>
<rscale>  0 0.90278906E+02</rscale>
<asrwt>0</asrwt>
<pdfrwt beam="1">  1        2 0.11331817E-01 0.90278906E+02</pdfrwt>
<pdfrwt beam="2">  1       -2 0.42558499E-02 0.90278906E+02</pdfrwt>
<totfact> 0.11533787E+05</totfact>
</mgrwt>
</event>
<event>
 5    1  0.1256986E+001  0.8959480E+02  0.7546771E-02  0.1303836E+00
          2   -1    0    0  501    0  0.00000000000E+00  0.00000000000E+00  0.39227522565E+02  0.39227522565E+02  0.00000000000E+00 0. -1.
         -2   -1    0    0    0  501 -0.00000000000E+00 -0.00000000000E+00 -0.51158140187E+02  0.51158140187E+02  0.00000000000E+00 0.  1.
         23    2    1    2    0    0  0.00000000000E+00  0.00000000000E+00 -0.11930617622E+02  0.90385662752E+02  0.89594801157E+02 0.  0.
        -13    1    3    3    0    0  0.20497330018E+02 -0.97952630754E+00  0.34207132111E+02  0.39890198005E+02  0.00000000000E+00 0. -1.
         13    1    3    3    0    0 -0.20497330018E+02  0.97952630754E+00 -0.46137749733E+02  0.50495464747E+02  0.00000000000E+00 0.  1.
<mgrwt>
<rscale>  0 0.89594801E+02</rscale>
<asrwt>0</asrwt>
<pdfrwt beam="1">  1        2 0.60350035E-02 0.89594801E+02</pdfrwt>
<pdfrwt beam="2">  1       -2 0.78704831E-02 0.89594801E+02</pdfrwt>
<totfact> 0.99837979E+04</totfact>
</mgrwt>
</event>
<event>
 5    1  0.1256986E+001  0.8955436E+02  0.7546771E-02  0.1303934E+00
          1   -1    0    0  501    0  0.00000000000E+00  0.00000000000E+00  0.19196670406E+02  0.19196670406E+02  0.00000000000E+00 0. -1.
         -1   -1    0    0    0  501 -0.00000000000E+00 -0.00000000000E+00 -0.10444498041E+03  0.10444498041E+03  0.00000000000E+00 0.  1.
         23    2    1    2    0    0  0.00000000000E+00  0.00000000000E+00 -0.85248310004E+02  0.12364165082E+03  0.89554360352E+02 0.  0.
        -11    1    3    3    0    0  0.33617723330E+02  0.23643790766E+02 -0.67159655263E+02  0.78737535260E+02  0.00000000000E+00 0.  1.
         11    1    3    3    0    0 -0.33617723330E+02 -0.23643790766E+02 -0.18088654741E+02  0.44904115557E+02  0.00000000000E+00 0. -1.
<mgrwt>
<rscale>  0 0.89554360E+02</rscale>
<asrwt>0</asrwt>
<pdfrwt beam="1">  1        1 0.29533339E-02 0.89554360E+02</pdfrwt>
<pdfrwt beam="2">  1       -1 0.16068459E-01 0.89554360E+02</pdfrwt>
<totfact> 0.84527065E+04</totfact>
</mgrwt>
</event>
<event>
 5    1  0.1256986E+001  0.9228381E+02  0.7546771E-02  0.1297413E+00
          3   -1    0    0  501    0  0.00000000000E+00  0.00000000000E+00  0.13083518703E+02  0.13083518703E+02  0.00000000000E+00 0. -1.
         -3   -1    0    0    0  501 -0.00000000000E+00 -0.00000000000E+00 -0.16272958392E+03  0.16272958392E+03  0.00000000000E+00 0.  1.
         23    2    1    2    0    0  0.00000000000E+00  0.00000000000E+00 -0.14964606522E+03  0.17581310262E+03  0.92283813417E+02 0.  0.
        -11    1    3    3    0    0 -0.24929934206E+02  0.30211711651E+02 -0.12128748559E+03  0.12745549537E+03  0.00000000000E+00 0.  1.
         11    1    3    3    0    0  0.24929934206E+02 -0.30211711651E+02 -0.28358579631E+02  0.48357607252E+02  0.00000000000E+00 0. -1.
<mgrwt>
<rscale>  0 0.92283813E+02</rscale>
<asrwt>0</asrwt>
<pdfrwt beam="1">  1        3 0.20128490E-02 0.92283813E+02</pdfrwt>
<pdfrwt beam="2">  1       -3 0.25035321E-01 0.92283813E+02</pdfrwt>
<totfact> 0.28840313E+04</totfact>
</mgrwt>
</event>
<event>
 5    1  0.1256986E+001  0.9168783E+02  0.7546771E-02  0.1298815E+00
         -3   -1    0    0    0  501 -0.00000000000E+00  0.00000000000E+00  0.17089566734E+03  0.17089566734E+03  0.00000000000E+00 0.  1.
          3   -1    0    0  501    0  0.00000000000E+00 -0.00000000000E+00 -0.12297940251E+02  0.12297940251E+02  0.00000000000E+00 0. -1.
         23    2    1    2    0    0  0.00000000000E+00  0.00000000000E+00  0.15859772709E+03  0.18319360759E+03  0.91687833565E+02 0.  0.
        -11    1    3    3    0    0 -0.11312412020E+02  0.36902692111E+02  0.29875348051E+02  0.48808972248E+02  0.00000000000E+00 0. -1.
         11    1    3    3    0    0  0.11312412020E+02 -0.36902692111E+02  0.12872237903E+03  0.13438463534E+03  0.00000000000E+00 0.  1.
<mgrwt>
<rscale>  0 0.91687834E+02</rscale>
<asrwt>0</asrwt>
<pdfrwt beam="2">  1        3 0.18919909E-02 0.91687834E+02</pdfrwt>
<pdfrwt beam="1">  1       -3 0.26291639E-01 0.91687834E+02</pdfrwt>
<totfact> 0.28949586E+04</totfact>
</mgrwt>
</event>
<event>
 5    1  0.1256986E+001  0.9476920E+02  0.7546771E-02  0.1291697E+00
         -1   -1    0    0    0  501 -0.00000000000E+00  0.00000000000E+00  0.87877316745E+02  0.87877316745E+02  0.00000000000E+00 0.  1.
          1   -1    0    0  501    0  0.00000000000E+00 -0.00000000000E+00 -0.25550395939E+02  0.25550395939E+02  0.00000000000E+00 0. -1.
         23    2    1    2    0    0  0.00000000000E+00  0.00000000000E+00  0.62326920806E+02  0.11342771268E+03  0.94769198306E+02 0.  0.
        -11    1    3    3    0    0 -0.47100136345E+02 -0.16179365162E+01  0.37058604884E+02  0.59953154698E+02  0.00000000000E+00 0.  1.
         11    1    3    3    0    0  0.47100136345E+02  0.16179365162E+01  0.25268315923E+02  0.53474557986E+02  0.00000000000E+00 0. -1.
<mgrwt>
<rscale>  0 0.94769198E+02</rscale>
<asrwt>0</asrwt>
<pdfrwt beam="2">  1        1 0.39308302E-02 0.94769198E+02</pdfrwt>
<pdfrwt beam="1">  1       -1 0.13519587E-01 0.94769198E+02</pdfrwt>
<totfact> 0.75417015E+04</totfact>
</mgrwt>
</event>
<event>
 5    1  0.1256986E+001  0.8274473E+02  0.7546771E-02  0.1321438E+00
         -1   -1    0    0    0  501 -0.00000000000E+00  0.00000000000E+00  0.26526948357E+02  0.26526948357E+02  0.00000000000E+00 0.  1.
          1   -1    0    0  501    0  0.00000000000E+00 -0.00000000000E+00 -0.64525801437E+02  0.64525801437E+02  0.00000000000E+00 0. -1.
         23    2    1    2    0    0  0.00000000000E+00  0.00000000000E+00 -0.37998853080E+02  0.91052749795E+02  0.82744730405E+02 0.  0.
        -13    1    3    3    0    0 -0.33124519225E+02 -0.62673342412E+01 -0.45389877582E+02  0.56539846474E+02  0.00000000000E+00 0. -1.
         13    1    3    3    0    0  0.33124519225E+02  0.62673342412E+01  0.73910245023E+01  0.34512903320E+02  0.00000000000E+00 0.  1.
<mgrwt>
<rscale>  0 0.82744730E+02</rscale>
<asrwt>0</asrwt>
<pdfrwt beam="2">  1        1 0.99270462E-02 0.82744730E+02</pdfrwt>
<pdfrwt beam="1">  1       -1 0.40810690E-02 0.82744730E+02</pdfrwt>
<totfact> 0.12718047E+05</totfact>
</mgrwt>
</event>
<event>
 5    1  0.1256986E+001  0.9158952E+02  0.7546771E-02  0.1299047E+00
         -2   -1    0    0    0  501 -0.00000000000E+00  0.00000000000E+00  0.41855294676E+02  0.41855294676E+02  0.00000000000E+00 0.  1.
          2   -1    0    0  501    0  0.00000000000E+00 -0.00000000000E+00 -0.50105012488E+02  0.50105012488E+02  0.00000000000E+00 0. -1.
         23    2    1    2    0    0  0.00000000000E+00  0.00000000000E+00 -0.82497178119E+01  0.91960307165E+02  0.91589520415E+02 0.  0.
        -11    1    3    3    0    0  0.11979051850E+02  0.27062094030E+02  0.30963800435E+02  0.42832365728E+02  0.00000000000E+00 0.  1.
         11    1    3    3    0    0 -0.11979051850E+02 -0.27062094030E+02 -0.39213518247E+02  0.49127941436E+02  0.00000000000E+00 0. -1.
<mgrwt>
<rscale>  0 0.91589520E+02</rscale>
<asrwt>0</asrwt>
<pdfrwt beam="2">  1        2 0.77084635E-02 0.91589520E+02</pdfrwt>
<pdfrwt beam="1">  1       -2 0.64392761E-02 0.91589520E+02</pdfrwt>
<totfact> 0.99836638E+04</totfact>
</mgrwt>
</event>
<event>
 5    1  0.1256986E+001  0.8836129E+02  0.7546771E-02  0.1306869E+00
          2   -1    0    0  501    0  0.00000000000E+00  0.00000000000E+00  0.98026887215E+02  0.98026887215E+02  0.00000000000E+00 0. -1.
         -2   -1    0    0    0  501 -0.00000000000E+00 -0.00000000000E+00 -0.19912182436E+02  0.19912182436E+02  0.00000000000E+00 0.  1.
         23    2    1    2    0    0  0.00000000000E+00  0.00000000000E+00  0.78114704779E+02  0.11793906965E+03  0.88361287041E+02 0.  0.
        -13    1    3    3    0    0 -0.14128641303E+02  0.29928156162E+02 -0.77361264865E-02  0.33095514744E+02  0.00000000000E+00 0.  1.
         13    1    3    3    0    0  0.14128641303E+02 -0.29928156162E+02  0.78122440906E+02  0.84843554907E+02  0.00000000000E+00 0. -1.
<mgrwt>
<rscale>  0 0.88361287E+02</rscale>
<asrwt>0</asrwt>
<pdfrwt beam="1">  1        2 0.15081059E-01 0.88361287E+02</pdfrwt>
<pdfrwt beam="2">  1       -2 0.30634127E-02 0.88361287E+02</pdfrwt>
<totfact> 0.13290706E+05</totfact>
</mgrwt>
</event>
<event>
 5    1  0.1256986E+001  0.9093259E+02  0.7546771E-02  0.1300609E+00
         -4   -1    0    0    0  501 -0.00000000000E+00  0.00000000000E+00  0.63353162849E+02  0.63353162849E+02  0.00000000000E+00 0.  1.
          4   -1    0    0  501    0  0.00000000000E+00 -0.00000000000E+00 -0.32629532837E+02  0.32629532837E+02  0.00000000000E+00 0. -1.
         23    2    1    2    0    0  0.00000000000E+00  0.00000000000E+00  0.30723630012E+02  0.95982695686E+02  0.90932592782E+02 0.  0.
        -11    1    3    3    0    0 -0.35639360013E+02  0.27680089372E+02  0.21222922614E+02  0.49867462077E+02  0.00000000000E+00 0. -1.
         11    1    3    3    0    0  0.35639360013E+02 -0.27680089372E+02  0.95007073979E+01  0.46115233609E+02  0.00000000000E+00 0.  1.
<mgrwt>
<rscale>  0 0.90932593E+02</rscale>
<asrwt>0</asrwt>
<pdfrwt beam="2">  1        4 0.50199282E-02 0.90932593E+02</pdfrwt>
<pdfrwt beam="1">  1       -4 0.97466404E-02 0.90932593E+02</pdfrwt>
<totfact> 0.26904501E+04</totfact>
</mgrwt>
</event>
<event>
 5    1  0.1256986E+001  0.9151642E+02  0.7546771E-02  0.1299220E+00
         -1   -1    0    0    0  501 -0.00000000000E+00  0.00000000000E+00  0.13964433416E+02  0.13964433416E+02  0.00000000000E+00 0.  1.
          1   -1    0    0  501    0  0.00000000000E+00 -0.00000000000E+00 -0.14993903971E+03  0.14993903971E+03  0.00000000000E+00 0. -1.
         23    2    1    2    0    0  0.00000000000E+00  0.00000000000E+00 -0.13597460629E+03  0.16390347312E+03  0.91516418997E+02 0.  0.
        -13    1    3    3    0    0  0.29915354531E+02  0.34351594094E+02 -0.75763775479E+02  0.88403111531E+02  0.00000000000E+00 0.  1.
         13    1    3    3    0    0 -0.29915354531E+02 -0.34351594094E+02 -0.60210830811E+02  0.75500361592E+02  0.00000000000E+00 0. -1.
<mgrwt>
<rscale>  0 0.91516419E+02</rscale>
<asrwt>0</asrwt>
<pdfrwt beam="2">  1        1 0.23067546E-01 0.91516419E+02</pdfrwt>
<pdfrwt beam="1">  1       -1 0.21483743E-02 0.91516419E+02</pdfrwt>
<totfact> 0.11100423E+05</totfact>
</mgrwt>
</event>
<event>
 5    1  0.1256986E+001  0.9129724E+02  0.7546771E-02  0.1299740E+00
         -1   -1    0    0    0  501 -0.00000000000E+00  0.00000000000E+00  0.67904509737E+01  0.67904509737E+01  0.00000000000E+00 0.  1.
          1   -1    0    0  501    0  0.00000000000E+00 -0.00000000000E+00 -0.30687162588E+03  0.30687162588E+03  0.00000000000E+00 0. -1.
         23    2    1    2    0    0  0.00000000000E+00  0.00000000000E+00 -0.30008117491E+03  0.31366207685E+03  0.91297244882E+02 0.  0.
        -11    1    3    3    0    0 -0.18081318559E+02 -0.39092055091E+02 -0.98087349366E+02  0.10712726524E+03  0.00000000000E+00 0.  1.
         11    1    3    3    0    0  0.18081318559E+02  0.39092055091E+02 -0.20199382554E+03  0.20653481161E+03  0.00000000000E+00 0. -1.
<mgrwt>
<rscale>  0 0.91297245E+02</rscale>
<asrwt>0</asrwt>
<pdfrwt beam="2">  1        1 0.47211021E-01 0.91297245E+02</pdfrwt>
<pdfrwt beam="1">  1       -1 0.10446847E-02 0.91297245E+02</pdfrwt>
<totfact> 0.12822248E+05</totfact>
</mgrwt>
</event>
<event>
 5    1  0.1256986E+001  0.9080960E+02  0.7546771E-02  0.1300903E+00
         -2   -1    0    0    0  501 -0.00000000000E+00  0.00000000000E+00  0.12396923690E+03  0.12396923690E+03  0.00000000000E+00 0.  1.
          2   -1    0    0  501    0  0.00000000000E+00 -0.00000000000E+00 -0.16629897137E+02  0.16629897137E+02  0.00000000000E+00 0. -1.
         23    2    1    2    0    0  0.00000000000E+00  0.00000000000E+00  0.10733933976E+03  0.14059913403E+03  0.90809595479E+02 0.  0.
        -11    1    3    3    0    0 -0.20350184976E+02  0.40317910388E+02  0.60920493851E+02  0.75835153443E+02  0.00000000000E+00 0. -1.
         11    1    3    3    0    0  0.20350184976E+02 -0.40317910388E+02  0.46418845908E+02  0.64763980591E+02  0.00000000000E+00 0.  1.
<mgrwt>
<rscale>  0 0.90809595E+02</rscale>
<asrwt>0</asrwt>
<pdfrwt beam="2">  1        2 0.25584458E-02 0.90809595E+02</pdfrwt>
<pdfrwt beam="1">  1       -2 0.19072190E-01 0.90809595E+02</pdfrwt>
<totfact> 0.75380525E+04</totfact>
</mgrwt>
</event>
<event>
 5    1  0.1256986E+001  0.9040844E+02  0.7546771E-02  0.1301866E+00
         -2   -1    0    0    0  501 -0.00000000000E+00  0.00000000000E+00  0.70461398126E+01  0.70461398126E+01  0.00000000000E+00 0.  1.
          2   -1    0    0  501    0  0.00000000000E+00 -0.00000000000E+00 -0.29000584250E+03  0.29000584250E+03  0.00000000000E+00 0. -1.
         23    2    1    2    0    0  0.00000000000E+00  0.00000000000E+00 -0.28295970269E+03  0.29705198232E+03  0.90408444578E+02 0.  0.
        -13    1    3    3    0    0 -0.36431845598E+02 -0.26745153183E+02 -0.13847006558E+03  0.14565899098E+03  0.00000000000E+00 0. -1.
         13    1    3    3    0    0  0.36431845598E+02  0.26745153183E+02 -0.14448963711E+03  0.15139299133E+03  0.00000000000E+00 0.  1.
<mgrwt>
<rscale>  0 0.90408445E+02</rscale>
<asrwt>0</asrwt>
<pdfrwt beam="2">  1        2 0.44616274E-01 0.90408445E+02</pdfrwt>
<pdfrwt beam="1">  1       -2 0.10840217E-02 0.90408445E+02</pdfrwt>
<totfact> 0.18145652E+05</totfact>
</mgrwt>
</event>
<event>
 5    1  0.1256986E+001  0.6570430E+02  0.7546771E-02  0.1375342E+00
          2   -1    0    0  501    0  0.00000000000E+00  0.00000000000E+00  0.70897771104E+01  0.70897771104E+01  0.00000000000E+00 0.  1.
         -2   -1    0    0    0  501 -0.00000000000E+00 -0.00000000000E+00 -0.15222816426E+03  0.15222816426E+03  0.00000000000E+00 0. -1.
         23    2    1    2    0    0  0.00000000000E+00  0.00000000000E+00 -0.14513838715E+03  0.15931794137E+03  0.65704299845E+02 0.  0.
        -13    1    3    3    0    0 -0.23153420523E+02 -0.12882958205E+02 -0.25475387149E+02  0.36756589129E+02  0.00000000000E+00 0.  1.
         13    1    3    3    0    0  0.23153420523E+02  0.12882958205E+02 -0.11966300000E+03  0.12256135224E+03  0.00000000000E+00 0. -1.
<mgrwt>
<rscale>  0 0.65704300E+02</rscale>
<asrwt>0</asrwt>
<pdfrwt beam="1">  1        2 0.10907349E-02 0.65704300E+02</pdfrwt>
<pdfrwt beam="2">  1       -2 0.23419719E-01 0.65704300E+02</pdfrwt>
<totfact> 0.15863685E+05</totfact>
</mgrwt>
</event>
<event>
 5    1  0.1256986E+001  0.9170087E+02  0.7546771E-02  0.1298784E+00
          2   -1    0    0  501    0  0.00000000000E+00  0.00000000000E+00  0.30420917055E+02  0.30420917055E+02  0.00000000000E+00 0. -1.
         -2   -1    0    0    0  501 -0.00000000000E+00 -0.00000000000E+00 -0.69105819075E+02  0.69105819075E+02  0.00000000000E+00 0.  1.
         23    2    1    2    0    0  0.00000000000E+00  0.00000000000E+00 -0.38684902020E+02  0.99526736130E+02  0.91700870009E+02 0.  0.
        -11    1    3    3    0    0 -0.25931344687E+02  0.87332299814E+01 -0.59272956932E+02  0.65283898219E+02  0.00000000000E+00 0.  1.
         11    1    3    3    0    0  0.25931344687E+02 -0.87332299814E+01  0.20588054911E+02  0.34242837911E+02  0.00000000000E+00 0. -1.
<mgrwt>
<rscale>  0 0.91700870E+02</rscale>
<asrwt>0</asrwt>
<pdfrwt beam="1">  1        2 0.46801411E-02 0.91700870E+02</pdfrwt>
<pdfrwt beam="2">  1       -2 0.10631664E-01 0.91700870E+02</pdfrwt>
<totfact> 0.87297310E+04</totfact>
</mgrwt>
</event>
<event>
 5    1  0.1256986E+001  0.9076801E+02  0.7546771E-02  0.1301002E+00
         -2   -1    0    0    0  501 -0.00000000000E+00  0.00000000000E+00  0.13825881021E+02  0.13825881021E+02  0.00000000000E+00 0.  1.
          2   -1    0    0  501    0  0.00000000000E+00 -0.00000000000E+00 -0.14897480577E+03  0.14897480577E+03  0.00000000000E+00 0. -1.
         23    2    1    2    0    0  0.00000000000E+00  0.00000000000E+00 -0.13514892475E+03  0.16280068679E+03  0.90768010660E+02 0.  0.
        -11    1    3    3    0    0 -0.40758803250E+02  0.19559350538E+01 -0.10320342479E+03  0.11097771224E+03  0.00000000000E+00 0. -1.
         11    1    3    3    0    0  0.40758803250E+02 -0.19559350538E+01 -0.31945499956E+02  0.51822974555E+02  0.00000000000E+00 0.  1.
<mgrwt>
<rscale>  0 0.90768011E+02</rscale>
<asrwt>0</asrwt>
<pdfrwt beam="2">  1        2 0.22919202E-01 0.90768011E+02</pdfrwt>
<pdfrwt beam="1">  1       -2 0.21270585E-02 0.90768011E+02</pdfrwt>
<totfact> 0.14119536E+05</totfact>
</mgrwt>
</event>
<event>
 5    1  0.1256986E+001  0.9102814E+02  0.7546771E-02  0.1300381E+00
          1   -1    0    0  501    0  0.00000000000E+00  0.00000000000E+00  0.59161449991E+02  0.59161449991E+02  0.00000000000E+00 0. -1.
         -1   -1    0    0    0  501 -0.00000000000E+00 -0.00000000000E+00 -0.35014874783E+02  0.35014874783E+02  0.00000000000E+00 0.  1.
         23    2    1    2    0    0  0.00000000000E+00  0.00000000000E+00  0.24146575209E+02  0.94176324774E+02  0.91028144294E+02 0.  0.
        -13    1    3    3    0    0 -0.19207554567E+02 -0.26083330769E+02  0.45151865625E+02  0.55569427438E+02  0.00000000000E+00 0. -1.
         13    1    3    3    0    0  0.19207554567E+02  0.26083330769E+02 -0.21005290416E+02  0.38606897336E+02  0.00000000000E+00 0.  1.
<mgrwt>
<rscale>  0 0.91028144E+02</rscale>
<asrwt>0</asrwt>
<pdfrwt beam="1">  1        1 0.91017616E-02 0.91028144E+02</pdfrwt>
<pdfrwt beam="2">  1       -1 0.53869038E-02 0.91028144E+02</pdfrwt>
<totfact> 0.96603326E+04</totfact>
</mgrwt>
</event>
<event>
 5    1  0.1256986E+001  0.9202474E+02  0.7546771E-02  0.1298021E+00
         -2   -1    0    0    0  501 -0.00000000000E+00  0.00000000000E+00  0.22262415149E+02  0.22262415149E+02  0.00000000000E+00 0.  1.
          2   -1    0    0  501    0  0.00000000000E+00 -0.00000000000E+00 -0.95099215065E+02  0.95099215065E+02  0.00000000000E+00 0. -1.
         23    2    1    2    0    0  0.00000000000E+00  0.00000000000E+00 -0.72836799916E+02  0.11736163021E+03  0.92024740285E+02 0.  0.
        -13    1    3    3    0    0 -0.21435143098E+02  0.94169212038E+01  0.14097981674E+02  0.27329413676E+02  0.00000000000E+00 0.  1.
         13    1    3    3    0    0  0.21435143098E+02 -0.94169212038E+01 -0.86934781590E+02  0.90032216537E+02  0.00000000000E+00 0. -1.
<mgrwt>
<rscale>  0 0.92024740E+02</rscale>
<asrwt>0</asrwt>
<pdfrwt beam="2">  1        2 0.14630648E-01 0.92024740E+02</pdfrwt>
<pdfrwt beam="1">  1       -2 0.34249870E-02 0.92024740E+02</pdfrwt>
<totfact> 0.11777523E+05</totfact>
</mgrwt>
</event>
<event>
 5    1  0.1256986E+001  0.8893742E+02  0.7546771E-02  0.1305445E+00
         -1   -1    0    0    0  501 -0.00000000000E+00  0.00000000000E+00  0.19585748408E+02  0.19585748408E+02  0.00000000000E+00 0.  1.
          1   -1    0    0  501    0  0.00000000000E+00 -0.00000000000E+00 -0.10096453583E+03  0.10096453583E+03  0.00000000000E+00 0. -1.
         23    2    1    2    0    0  0.00000000000E+00  0.00000000000E+00 -0.81378787423E+02  0.12055028424E+03  0.88937416129E+02 0.  0.
        -11    1    3    3    0    0 -0.37798201263E+02  0.12368259398E+02 -0.13723481416E+02  0.42071508190E+02  0.00000000000E+00 0. -1.
         11    1    3    3    0    0  0.37798201263E+02 -0.12368259398E+02 -0.67655306007E+02  0.78478776049E+02  0.00000000000E+00 0.  1.
<mgrwt>
<rscale>  0 0.88937416E+02</rscale>
<asrwt>0</asrwt>
<pdfrwt beam="2">  1        1 0.15533005E-01 0.88937416E+02</pdfrwt>
<pdfrwt beam="1">  1       -1 0.30131921E-02 0.88937416E+02</pdfrwt>
<totfact> 0.11193666E+05</totfact>
</mgrwt>
</event>
<event>
 5    1  0.1256986E+001  0.9414119E+02  0.7546771E-02  0.1293122E+00
         -2   -1    0    0    0  501 -0.00000000000E+00  0.00000000000E+00  0.15146339053E+03  0.15146339053E+03  0.00000000000E+00 0.  1.
          2   -1    0    0  501    0  0.00000000000E+00 -0.00000000000E+00 -0.14628227190E+02  0.14628227190E+02  0.00000000000E+00 0. -1.
         23    2    1    2    0    0  0.00000000000E+00  0.00000000000E+00  0.13683516334E+03  0.16609161772E+03  0.94141189449E+02 0.  0.
        -13    1    3    3    0    0  0.45343564849E+01  0.37960724578E+02  0.11686516357E+03  0.12295951958E+03  0.00000000000E+00 0.  1.
         13    1    3    3    0    0 -0.45343564849E+01 -0.37960724578E+02  0.19969999771E+02  0.43132098141E+02  0.00000000000E+00 0. -1.
<mgrwt>
<rscale>  0 0.94141189E+02</rscale>
<asrwt>0</asrwt>
<pdfrwt beam="2">  1        2 0.22504966E-02 0.94141189E+02</pdfrwt>
<pdfrwt beam="1">  1       -2 0.23302059E-01 0.94141189E+02</pdfrwt>
<totfact> 0.64186309E+04</totfact>
</mgrwt>
</event>
<event>
 5    1  0.1256986E+001  0.9069725E+02  0.7546771E-02  0.1301172E+00
         -1   -1    0    0    0  501 -0.00000000000E+00  0.00000000000E+00  0.92178939170E+02  0.92178939170E+02  0.00000000000E+00 0.  1.
          1   -1    0    0  501    0  0.00000000000E+00 -0.00000000000E+00 -0.22309845074E+02  0.22309845074E+02  0.00000000000E+00 0. -1.
         23    2    1    2    0    0  0.00000000000E+00  0.00000000000E+00  0.69869094096E+02  0.11448878424E+03  0.90697251380E+02 0.  0.
        -13    1    3    3    0    0 -0.39002537898E+02  0.99024850022E+01  0.85390953412E+01  0.41136034337E+02  0.00000000000E+00 0. -1.
         13    1    3    3    0    0  0.39002537898E+02 -0.99024850022E+01  0.61329998755E+02  0.73352749907E+02  0.00000000000E+00 0.  1.
<mgrwt>
<rscale>  0 0.90697251E+02</rscale>
<asrwt>0</asrwt>
<pdfrwt beam="2">  1        1 0.34322839E-02 0.90697251E+02</pdfrwt>
<pdfrwt beam="1">  1       -1 0.14181375E-01 0.90697251E+02</pdfrwt>
<totfact> 0.83715525E+04</totfact>
</mgrwt>
</event>
<event>
 5    1  0.1256986E+001  0.9070351E+02  0.7546771E-02  0.1301157E+00
          2   -1    0    0  501    0  0.00000000000E+00  0.00000000000E+00  0.65143913889E+02  0.65143913889E+02  0.00000000000E+00 0. -1.
         -2   -1    0    0    0  501 -0.00000000000E+00 -0.00000000000E+00 -0.31572890167E+02  0.31572890167E+02  0.00000000000E+00 0.  1.
         23    2    1    2    0    0  0.00000000000E+00  0.00000000000E+00  0.33571023722E+02  0.96716804056E+02  0.90703509044E+02 0.  0.
        -13    1    3    3    0    0  0.69005415151E+00  0.43180182865E+02  0.31551972621E+02  0.53483935375E+02  0.00000000000E+00 0.  1.
         13    1    3    3    0    0 -0.69005415151E+00 -0.43180182865E+02  0.20190511016E+01  0.43232868680E+02  0.00000000000E+00 0. -1.
<mgrwt>
<rscale>  0 0.90703509E+02</rscale>
<asrwt>0</asrwt>
<pdfrwt beam="1">  1        2 0.10022141E-01 0.90703509E+02</pdfrwt>
<pdfrwt beam="2">  1       -2 0.48573677E-02 0.90703509E+02</pdfrwt>
<totfact> 0.11005069E+05</totfact>
</mgrwt>
</event>
<event>
 5    1  0.1256986E+001  0.1201422E+03  0.7546771E-02  0.1242863E+00
         -1   -1    0    0    0  501 -0.00000000000E+00  0.00000000000E+00  0.21928803397E+02  0.21928803397E+02  0.00000000000E+00 0.  1.
          1   -1    0    0  501    0  0.00000000000E+00 -0.00000000000E+00 -0.16455686309E+03  0.16455686309E+03  0.00000000000E+00 0. -1.
         23    2    1    2    0    0  0.00000000000E+00  0.00000000000E+00 -0.14262805969E+03  0.18648566648E+03  0.12014216742E+03 0.  0.
        -11    1    3    3    0    0  0.15437925606E+01 -0.38425486627E+02 -0.14294526798E+03  0.14802787223E+03  0.00000000000E+00 0. -1.
         11    1    3    3    0    0 -0.15437925606E+01  0.38425486627E+02  0.31720829153E+00  0.38457794256E+02  0.00000000000E+00 0.  1.
<mgrwt>
<rscale>  0 0.12014217E+03</rscale>
<asrwt>0</asrwt>
<pdfrwt beam="2">  1        1 0.25316440E-01 0.12014217E+03</pdfrwt>
<pdfrwt beam="1">  1       -1 0.33736621E-02 0.12014217E+03</pdfrwt>
<totfact> 0.53596096E+04</totfact>
</mgrwt>
</event>
<event>
 5    1  0.1256986E+001  0.9079570E+02  0.7546771E-02  0.1300936E+00
          2   -1    0    0  501    0  0.00000000000E+00  0.00000000000E+00  0.56279865543E+02  0.56279865543E+02  0.00000000000E+00 0. -1.
         -2   -1    0    0    0  501 -0.00000000000E+00 -0.00000000000E+00 -0.36619929426E+02  0.36619929426E+02  0.00000000000E+00 0.  1.
         23    2    1    2    0    0  0.00000000000E+00  0.00000000000E+00  0.19659936117E+02  0.92899794970E+02  0.90795698231E+02 0.  0.
        -13    1    3    3    0    0  0.99025028568E+01  0.40402914653E+02  0.28431192848E+02  0.50386385086E+02  0.00000000000E+00 0. -1.
         13    1    3    3    0    0 -0.99025028568E+01 -0.40402914653E+02 -0.87712567316E+01  0.42513409884E+02  0.00000000000E+00 0.  1.
<mgrwt>
<rscale>  0 0.90795698E+02</rscale>
<asrwt>0</asrwt>
<pdfrwt beam="1">  1        2 0.86584409E-02 0.90795698E+02</pdfrwt>
<pdfrwt beam="2">  1       -2 0.56338353E-02 0.90795698E+02</pdfrwt>
<totfact> 0.10551690E+05</totfact>
</mgrwt>
</event>
<event>
 5    1  0.1256986E+001  0.9211241E+02  0.7546771E-02  0.1297815E+00
         -1   -1    0    0    0  501 -0.00000000000E+00  0.00000000000E+00  0.22818993450E+02  0.22818993450E+02  0.00000000000E+00 0.  1.
          1   -1    0    0  501    0  0.00000000000E+00 -0.00000000000E+00 -0.92956510015E+02  0.92956510015E+02  0.00000000000E+00 0. -1.
         23    2    1    2    0    0  0.00000000000E+00  0.00000000000E+00 -0.70137516564E+02  0.11577550346E+03  0.92112409439E+02 0.  0.
        -11    1    3    3    0    0 -0.37965862242E+02 -0.23682244050E+02 -0.21362356592E+02  0.49584328756E+02  0.00000000000E+00 0.  1.
         11    1    3    3    0    0  0.37965862242E+02  0.23682244050E+02 -0.48775159972E+02  0.66191174709E+02  0.00000000000E+00 0. -1.
<mgrwt>
<rscale>  0 0.92112409E+02</rscale>
<asrwt>0</asrwt>
<pdfrwt beam="2">  1        1 0.14301001E-01 0.92112409E+02</pdfrwt>
<pdfrwt beam="1">  1       -1 0.35106145E-02 0.92112409E+02</pdfrwt>
<totfact> 0.10035893E+05</totfact>
</mgrwt>
</event>
<event>
 4    1  0.1256986E+001  0.3966874E+02  0.7546771E-02  0.1510663E+00
         -3   -1    0    0    0  501 -0.00000000000E+00  0.00000000000E+00  0.14121095864E+02  0.14121095864E+02  0.00000000000E+00 0.  1.
          3   -1    0    0  501    0  0.00000000000E+00 -0.00000000000E+00 -0.27859188791E+02  0.27859188791E+02  0.00000000000E+00 0. -1.
        -11    1    1    2    0    0 -0.11859844123E+02  0.71140728434E+01 -0.21914980347E+02  0.25913940238E+02  0.00000000000E+00 0. -1.
         11    1    1    2    0    0  0.11859844123E+02 -0.71140728434E+01  0.81768874197E+01  0.16066344417E+02  0.00000000000E+00 0.  1.
<mgrwt>
<rscale>  0 0.39668742E+02</rscale>
<asrwt>0</asrwt>
<pdfrwt beam="2">  1        3 0.42860290E-02 0.39668742E+02</pdfrwt>
<pdfrwt beam="1">  1       -3 0.21724763E-02 0.39668742E+02</pdfrwt>
<totfact> 0.34350002E+05</totfact>
</mgrwt>
</event>
<event>
 5    1  0.1256986E+001  0.8971042E+02  0.7546771E-02  0.1303554E+00
         -3   -1    0    0    0  501 -0.00000000000E+00  0.00000000000E+00  0.59250154570E+02  0.59250154570E+02  0.00000000000E+00 0.  1.
          3   -1    0    0  501    0  0.00000000000E+00 -0.00000000000E+00 -0.33957547372E+02  0.33957547372E+02  0.00000000000E+00 0. -1.
         23    2    1    2    0    0  0.00000000000E+00  0.00000000000E+00  0.25292607197E+02  0.93207701942E+02  0.89710421482E+02 0.  0.
        -11    1    3    3    0    0  0.98456673522E+01 -0.40521734849E+02 -0.45218444011E+01  0.41945145579E+02  0.00000000000E+00 0. -1.
         11    1    3    3    0    0 -0.98456673522E+01  0.40521734849E+02  0.29814451598E+02  0.51262556364E+02  0.00000000000E+00 0.  1.
<mgrwt>
<rscale>  0 0.89710421E+02</rscale>
<asrwt>0</asrwt>
<pdfrwt beam="2">  1        3 0.52242381E-02 0.89710421E+02</pdfrwt>
<pdfrwt beam="1">  1       -3 0.91154084E-02 0.89710421E+02</pdfrwt>
<totfact> 0.36768665E+04</totfact>
</mgrwt>
</event>
<event>
 5    1  0.1256986E+001  0.9038676E+02  0.7546771E-02  0.1301918E+00
         -2   -1    0    0    0  501 -0.00000000000E+00  0.00000000000E+00  0.19254218324E+03  0.19254218324E+03  0.00000000000E+00 0.  1.
          2   -1    0    0  501    0  0.00000000000E+00 -0.00000000000E+00 -0.10607761178E+02  0.10607761178E+02  0.00000000000E+00 0. -1.
         23    2    1    2    0    0  0.00000000000E+00  0.00000000000E+00  0.18193442207E+03  0.20314994442E+03  0.90386757803E+02 0.  0.
        -13    1    3    3    0    0 -0.19711816066E+02  0.36318082100E+02  0.13209716907E+03  0.13840961258E+03  0.00000000000E+00 0.  1.
         13    1    3    3    0    0  0.19711816066E+02 -0.36318082100E+02  0.49837252999E+02  0.64740331838E+02  0.00000000000E+00 0. -1.
<mgrwt>
<rscale>  0 0.90386758E+02</rscale>
<asrwt>0</asrwt>
<pdfrwt beam="2">  1        2 0.16319634E-02 0.90386758E+02</pdfrwt>
<pdfrwt beam="1">  1       -2 0.29621872E-01 0.90386758E+02</pdfrwt>
<totfact> 0.64761964E+04</totfact>
</mgrwt>
</event>
<event>
 5    1  0.1256986E+001  0.8768503E+02  0.7546771E-02  0.1308557E+00
          1   -1    0    0  501    0  0.00000000000E+00  0.00000000000E+00  0.17553726310E+02  0.17553726310E+02  0.00000000000E+00 0. -1.
         -1   -1    0    0    0  501 -0.00000000000E+00 -0.00000000000E+00 -0.10950188821E+03  0.10950188821E+03  0.00000000000E+00 0.  1.
         23    2    1    2    0    0  0.00000000000E+00  0.00000000000E+00 -0.91948161904E+02  0.12705561452E+03  0.87685031247E+02 0.  0.
        -11    1    3    3    0    0 -0.39378781273E+02 -0.14417494338E+02 -0.27439698300E+02  0.50114764295E+02  0.00000000000E+00 0. -1.
         11    1    3    3    0    0  0.39378781273E+02  0.14417494338E+02 -0.64508463604E+02  0.76940850230E+02  0.00000000000E+00 0.  1.
<mgrwt>
<rscale>  0 0.87685031E+02</rscale>
<asrwt>0</asrwt>
<pdfrwt beam="1">  1        1 0.27005732E-02 0.87685031E+02</pdfrwt>
<pdfrwt beam="2">  1       -1 0.16846445E-01 0.87685031E+02</pdfrwt>
<totfact> 0.88442217E+04</totfact>
</mgrwt>
</event>
<event>
 5    1  0.1256986E+001  0.9224389E+02  0.7546771E-02  0.1297507E+00
          3   -1    0    0  501    0  0.00000000000E+00  0.00000000000E+00  0.11264599097E+02  0.11264599097E+02  0.00000000000E+00 0. -1.
         -3   -1    0    0    0  501 -0.00000000000E+00 -0.00000000000E+00 -0.18884237540E+03  0.18884237540E+03  0.00000000000E+00 0.  1.
         23    2    1    2    0    0  0.00000000000E+00  0.00000000000E+00 -0.17757777630E+03  0.20010697450E+03  0.92243886549E+02 0.  0.
        -13    1    3    3    0    0 -0.13906427687E+02  0.39202831583E+02 -0.13201145371E+03  0.13840980690E+03  0.00000000000E+00 0.  1.
         13    1    3    3    0    0  0.13906427687E+02 -0.39202831583E+02 -0.45566322597E+02  0.61697167603E+02  0.00000000000E+00 0. -1.
<mgrwt>
<rscale>  0 0.92243887E+02</rscale>
<asrwt>0</asrwt>
<pdfrwt beam="1">  1        3 0.17330153E-02 0.92243887E+02</pdfrwt>
<pdfrwt beam="2">  1       -3 0.29052672E-01 0.92243887E+02</pdfrwt>
<totfact> 0.27609415E+04</totfact>
</mgrwt>
</event>
<event>
 5    1  0.1256986E+001  0.9070512E+02  0.7546771E-02  0.1301153E+00
         -2   -1    0    0    0  501 -0.00000000000E+00  0.00000000000E+00  0.96468017160E+01  0.96468017160E+01  0.00000000000E+00 0.  1.
          2   -1    0    0  501    0  0.00000000000E+00 -0.00000000000E+00 -0.21321621884E+03  0.21321621884E+03  0.00000000000E+00 0. -1.
         23    2    1    2    0    0  0.00000000000E+00  0.00000000000E+00 -0.20356941712E+03  0.22286302055E+03  0.90705117513E+02 0.  0.
        -13    1    3    3    0    0 -0.24710821521E+02 -0.34702283458E+02 -0.14000528406E+03  0.14634327023E+03  0.00000000000E+00 0. -1.
         13    1    3    3    0    0  0.24710821521E+02  0.34702283458E+02 -0.63564133063E+02  0.76519750323E+02  0.00000000000E+00 0.  1.
<mgrwt>
<rscale>  0 0.90705118E+02</rscale>
<asrwt>0</asrwt>
<pdfrwt beam="2">  1        2 0.32802493E-01 0.90705118E+02</pdfrwt>
<pdfrwt beam="1">  1       -2 0.14841235E-02 0.90705118E+02</pdfrwt>
<totfact> 0.16053896E+05</totfact>
</mgrwt>
</event>
<event>
 5    1  0.1256986E+001  0.9475800E+02  0.7546771E-02  0.1291722E+00
         -3   -1    0    0    0  501 -0.00000000000E+00  0.00000000000E+00  0.55218135606E+02  0.55218135606E+02  0.00000000000E+00 0.  1.
          3   -1    0    0  501    0  0.00000000000E+00 -0.00000000000E+00 -0.40652757693E+02  0.40652757693E+02  0.00000000000E+00 0. -1.
         23    2    1    2    0    0  0.00000000000E+00  0.00000000000E+00  0.14565377913E+02  0.95870893300E+02  0.94757996751E+02 0.  0.
        -11    1    3    3    0    0 -0.32991502179E+02 -0.74815726894E+01 -0.26278518583E+02  0.42836592825E+02  0.00000000000E+00 0. -1.
         11    1    3    3    0    0  0.32991502179E+02  0.74815726894E+01  0.40843896495E+02  0.53034300475E+02  0.00000000000E+00 0.  1.
<mgrwt>
<rscale>  0 0.94757997E+02</rscale>
<asrwt>0</asrwt>
<pdfrwt beam="2">  1        3 0.62542704E-02 0.94757997E+02</pdfrwt>
<pdfrwt beam="1">  1       -3 0.84950978E-02 0.94757997E+02</pdfrwt>
<totfact> 0.31485379E+04</totfact>
</mgrwt>
</event>
<event>
 5    1  0.1256986E+001  0.9183011E+02  0.7546771E-02  0.1298479E+00
         -1   -1    0    0    0  501 -0.00000000000E+00  0.00000000000E+00  0.69783957607E+01  0.69783957607E+01  0.00000000000E+00 0.  1.
          1   -1    0    0  501    0  0.00000000000E+00 -0.00000000000E+00 -0.30210273090E+03  0.30210273090E+03  0.00000000000E+00 0. -1.
         23    2    1    2    0    0  0.00000000000E+00  0.00000000000E+00 -0.29512433514E+03  0.30908112666E+03  0.91830113070E+02 0.  0.
        -13    1    3    3    0    0 -0.39685870174E+02 -0.22801689731E+02 -0.15984019493E+03  0.16626416710E+03  0.00000000000E+00 0. -1.
         13    1    3    3    0    0  0.39685870174E+02  0.22801689731E+02 -0.13528414021E+03  0.14281695956E+03  0.00000000000E+00 0.  1.
<mgrwt>
<rscale>  0 0.91830113E+02</rscale>
<asrwt>0</asrwt>
<pdfrwt beam="2">  1        1 0.46477346E-01 0.91830113E+02</pdfrwt>
<pdfrwt beam="1">  1       -1 0.10735993E-02 0.91830113E+02</pdfrwt>
<totfact> 0.12587281E+05</totfact>
</mgrwt>
</event>
<event>
 5    1  0.1256986E+001  0.9242614E+02  0.7546771E-02  0.1297081E+00
         -4   -1    0    0    0  501 -0.00000000000E+00  0.00000000000E+00  0.15316414108E+03  0.15316414108E+03  0.00000000000E+00 0.  1.
          4   -1    0    0  501    0  0.00000000000E+00 -0.00000000000E+00 -0.13943523764E+02  0.13943523764E+02  0.00000000000E+00 0. -1.
         23    2    1    2    0    0  0.00000000000E+00  0.00000000000E+00  0.13922061731E+03  0.16710766484E+03  0.92426140045E+02 0.  0.
        -13    1    3    3    0    0  0.17699127747E+02  0.17993953460E+02  0.13960181485E+03  0.14186510563E+03  0.00000000000E+00 0.  1.
         13    1    3    3    0    0 -0.17699127747E+02 -0.17993953460E+02 -0.38119754061E+00  0.25242559214E+02  0.00000000000E+00 0. -1.
<mgrwt>
<rscale>  0 0.92426140E+02</rscale>
<asrwt>0</asrwt>
<pdfrwt beam="2">  1        4 0.21451576E-02 0.92426140E+02</pdfrwt>
<pdfrwt beam="1">  1       -4 0.23563713E-01 0.92426140E+02</pdfrwt>
<totfact> 0.22020562E+04</totfact>
</mgrwt>
</event>
<event>
 5    1  0.1256986E+001  0.9026134E+02  0.7546771E-02  0.1302220E+00
          1   -1    0    0  501    0  0.00000000000E+00  0.00000000000E+00  0.87441646097E+02  0.87441646097E+02  0.00000000000E+00 0. -1.
         -1   -1    0    0    0  501 -0.00000000000E+00 -0.00000000000E+00 -0.23292989634E+02  0.23292989634E+02  0.00000000000E+00 0.  1.
         23    2    1    2    0    0  0.00000000000E+00  0.00000000000E+00  0.64148656463E+02  0.11073463573E+03  0.90261339590E+02 0.  0.
        -11    1    3    3    0    0 -0.45760479470E+01 -0.29626914046E+02 -0.93131242230E+01  0.31391536017E+02  0.00000000000E+00 0.  1.
         11    1    3    3    0    0  0.45760479470E+01  0.29626914046E+02  0.73461780686E+02  0.79343099714E+02  0.00000000000E+00 0. -1.
<mgrwt>
<rscale>  0 0.90261340E+02</rscale>
<asrwt>0</asrwt>
<pdfrwt beam="1">  1        1 0.13452561E-01 0.90261340E+02</pdfrwt>
<pdfrwt beam="2">  1       -1 0.35835369E-02 0.90261340E+02</pdfrwt>
<totfact> 0.10504078E+05</totfact>
</mgrwt>
</event>
<event>
 5    1  0.1256986E+001  0.9825621E+02  0.7546771E-02  0.1284006E+00
          2   -1    0    0  501    0  0.00000000000E+00  0.00000000000E+00  0.59982638597E+02  0.59982638597E+02  0.00000000000E+00 0.  1.
         -2   -1    0    0    0  501 -0.00000000000E+00 -0.00000000000E+00 -0.40237820288E+02  0.40237820288E+02  0.00000000000E+00 0. -1.
         23    2    1    2    0    0  0.00000000000E+00  0.00000000000E+00  0.19744818309E+02  0.10022045888E+03  0.98256208603E+02 0.  0.
        -11    1    3    3    0    0  0.43916497816E+02 -0.10383426885E+02 -0.99347649630E+01  0.46207941841E+02  0.00000000000E+00 0. -1.
         11    1    3    3    0    0 -0.43916497816E+02  0.10383426885E+02  0.29679583272E+02  0.54012517044E+02  0.00000000000E+00 0.  1.
<mgrwt>
<rscale>  0 0.98256209E+02</rscale>
<asrwt>0</asrwt>
<pdfrwt beam="1">  1        2 0.92280983E-02 0.98256209E+02</pdfrwt>
<pdfrwt beam="2">  1       -2 0.61904339E-02 0.98256209E+02</pdfrwt>
<totfact> 0.85753515E+04</totfact>
</mgrwt>
</event>
<event>
 5    1  0.1256986E+001  0.9239135E+02  0.7546771E-02  0.1297162E+00
         -3   -1    0    0    0  501 -0.00000000000E+00  0.00000000000E+00  0.20101217062E+02  0.20101217062E+02  0.00000000000E+00 0.  1.
          3   -1    0    0  501    0  0.00000000000E+00 -0.00000000000E+00 -0.10616474011E+03  0.10616474011E+03  0.00000000000E+00 0. -1.
         23    2    1    2    0    0  0.00000000000E+00  0.00000000000E+00 -0.86063523046E+02  0.12626595717E+03  0.92391352091E+02 0.  0.
        -13    1    3    3    0    0 -0.10840685643E+02 -0.12946176107E+02  0.15732543834E+02  0.23078927108E+02  0.00000000000E+00 0.  1.
         13    1    3    3    0    0  0.10840685643E+02  0.12946176107E+02 -0.10179606688E+03  0.10318703006E+03  0.00000000000E+00 0. -1.
<mgrwt>
<rscale>  0 0.92391352E+02</rscale>
<asrwt>0</asrwt>
<pdfrwt beam="2">  1        3 0.16333037E-01 0.92391352E+02</pdfrwt>
<pdfrwt beam="1">  1       -3 0.30924949E-02 0.92391352E+02</pdfrwt>
<totfact> 0.31662464E+04</totfact>
</mgrwt>
</event>
<event>
 5    1  0.1256986E+001  0.9202543E+02  0.7546771E-02  0.1298020E+00
         -1   -1    0    0    0  501 -0.00000000000E+00  0.00000000000E+00  0.21061975309E+03  0.21061975309E+03  0.00000000000E+00 0.  1.
          1   -1    0    0  501    0  0.00000000000E+00 -0.00000000000E+00 -0.10052096181E+02  0.10052096181E+02  0.00000000000E+00 0. -1.
         23    2    1    2    0    0  0.00000000000E+00  0.00000000000E+00  0.20056765691E+03  0.22067184928E+03  0.92025431611E+02 0.  0.
        -11    1    3    3    0    0 -0.37451399782E+02  0.22558955839E+00  0.16438172355E+03  0.16859421483E+03  0.00000000000E+00 0.  1.
         11    1    3    3    0    0  0.37451399782E+02 -0.22558955839E+00  0.36185933363E+02  0.52077634448E+02  0.00000000000E+00 0. -1.
<mgrwt>
<rscale>  0 0.92025432E+02</rscale>
<asrwt>0</asrwt>
<pdfrwt beam="2">  1        1 0.15464765E-02 0.92025432E+02</pdfrwt>
<pdfrwt beam="1">  1       -1 0.32403036E-01 0.92025432E+02</pdfrwt>
<totfact> 0.66751668E+04</totfact>
</mgrwt>
</event>
<event>
 5    1  0.1256986E+001  0.9008635E+02  0.7546771E-02  0.1302643E+00
         -2   -1    0    0    0  501 -0.00000000000E+00  0.00000000000E+00  0.11345068876E+02  0.11345068876E+02  0.00000000000E+00 0.  1.
          2   -1    0    0  501    0  0.00000000000E+00 -0.00000000000E+00 -0.17883431330E+03  0.17883431330E+03  0.00000000000E+00 0. -1.
         23    2    1    2    0    0  0.00000000000E+00  0.00000000000E+00 -0.16748924442E+03  0.19017938217E+03  0.90086349727E+02 0.  0.
        -11    1    3    3    0    0  0.35471317293E+01  0.37112128306E+02 -0.13710922795E+03  0.14208741183E+03  0.00000000000E+00 0. -1.
         11    1    3    3    0    0 -0.35471317293E+01 -0.37112128306E+02 -0.30380016471E+02  0.48091970345E+02  0.00000000000E+00 0.  1.
<mgrwt>
<rscale>  0 0.90086350E+02</rscale>
<asrwt>0</asrwt>
<pdfrwt beam="2">  1        2 0.27512971E-01 0.90086350E+02</pdfrwt>
<pdfrwt beam="1">  1       -2 0.17453952E-02 0.90086350E+02</pdfrwt>
<totfact> 0.15350415E+05</totfact>
</mgrwt>
</event>
<event>
 5    1  0.1256986E+001  0.9170235E+02  0.7546771E-02  0.1298781E+00
          1   -1    0    0  501    0  0.00000000000E+00  0.00000000000E+00  0.27976915949E+02  0.27976915949E+02  0.00000000000E+00 0. -1.
         -1   -1    0    0    0  501 -0.00000000000E+00 -0.00000000000E+00 -0.75145168718E+02  0.75145168718E+02  0.00000000000E+00 0.  1.
         23    2    1    2    0    0  0.00000000000E+00  0.00000000000E+00 -0.47168252769E+02  0.10312208467E+03  0.91702346080E+02 0.  0.
        -13    1    3    3    0    0  0.85585293670E+01 -0.31793507479E+02  0.12299754960E+02  0.35147681499E+02  0.00000000000E+00 0. -1.
         13    1    3    3    0    0 -0.85585293670E+01  0.31793507479E+02 -0.59468007729E+02  0.67974403167E+02  0.00000000000E+00 0.  1.
<mgrwt>
<rscale>  0 0.91702346E+02</rscale>
<asrwt>0</asrwt>
<pdfrwt beam="1">  1        1 0.43041410E-02 0.91702346E+02</pdfrwt>
<pdfrwt beam="2">  1       -1 0.11560795E-01 0.91702346E+02</pdfrwt>
<totfact> 0.84293124E+04</totfact>
</mgrwt>
</event>
<event>
 5    1  0.1256986E+001  0.9111715E+02  0.7546771E-02  0.1300169E+00
          1   -1    0    0  501    0  0.00000000000E+00  0.00000000000E+00  0.14925551106E+03  0.14925551106E+03  0.00000000000E+00 0. -1.
         -1   -1    0    0    0  501 -0.00000000000E+00 -0.00000000000E+00 -0.13906244908E+02  0.13906244908E+02  0.00000000000E+00 0.  1.
         23    2    1    2    0    0  0.00000000000E+00  0.00000000000E+00  0.13534926616E+03  0.16316175597E+03  0.91117148567E+02 0.  0.
        -13    1    3    3    0    0  0.24619224232E+02  0.38270002964E+02  0.63717121653E+02  0.78297962428E+02  0.00000000000E+00 0. -1.
         13    1    3    3    0    0 -0.24619224232E+02 -0.38270002964E+02  0.71632144503E+02  0.84863793545E+02  0.00000000000E+00 0.  1.
<mgrwt>
<rscale>  0 0.91117149E+02</rscale>
<asrwt>0</asrwt>
<pdfrwt beam="1">  1        1 0.22962385E-01 0.91117149E+02</pdfrwt>
<pdfrwt beam="2">  1       -1 0.21394224E-02 0.91117149E+02</pdfrwt>
<totfact> 0.11222852E+05</totfact>
</mgrwt>
</event>
<event>
 5    1  0.1256986E+001  0.9137974E+02  0.7546771E-02  0.1299544E+00
         -2   -1    0    0    0  501 -0.00000000000E+00  0.00000000000E+00  0.44864937763E+02  0.44864937763E+02  0.00000000000E+00 0.  1.
          2   -1    0    0  501    0  0.00000000000E+00 -0.00000000000E+00 -0.46529972712E+02  0.46529972712E+02  0.00000000000E+00 0. -1.
         23    2    1    2    0    0  0.00000000000E+00  0.00000000000E+00 -0.16650349492E+01  0.91394910475E+02  0.91379742390E+02 0.  0.
        -11    1    3    3    0    0 -0.25973949451E+01 -0.15605227560E+02 -0.43703308653E+02  0.46478476470E+02  0.00000000000E+00 0. -1.
         11    1    3    3    0    0  0.25973949451E+01  0.15605227560E+02  0.42038273704E+02  0.44916434005E+02  0.00000000000E+00 0.  1.
<mgrwt>
<rscale>  0 0.91379742E+02</rscale>
<asrwt>0</asrwt>
<pdfrwt beam="2">  1        2 0.71584573E-02 0.91379742E+02</pdfrwt>
<pdfrwt beam="1">  1       -2 0.69022981E-02 0.91379742E+02</pdfrwt>
<totfact> 0.98569232E+04</totfact>
</mgrwt>
</event>
<event>
 5    1  0.1256986E+001  0.9503651E+02  0.7546771E-02  0.1291094E+00
         -1   -1    0    0    0  501 -0.00000000000E+00  0.00000000000E+00  0.23366620702E+02  0.23366620702E+02  0.00000000000E+00 0.  1.
          1   -1    0    0  501    0  0.00000000000E+00 -0.00000000000E+00 -0.96632908660E+02  0.96632908660E+02  0.00000000000E+00 0. -1.
         23    2    1    2    0    0  0.00000000000E+00  0.00000000000E+00 -0.73266287958E+02  0.11999952936E+03  0.95036509279E+02 0.  0.
        -11    1    3    3    0    0  0.23728803588E+02 -0.33840149866E+02 -0.70270825122E+01  0.41923641914E+02  0.00000000000E+00 0.  1.
         11    1    3    3    0    0 -0.23728803588E+02  0.33840149866E+02 -0.66239205446E+02  0.78075887448E+02  0.00000000000E+00 0. -1.
<mgrwt>
<rscale>  0 0.95036509E+02</rscale>
<asrwt>0</asrwt>
<pdfrwt beam="2">  1        1 0.14866601E-01 0.95036509E+02</pdfrwt>
<pdfrwt beam="1">  1       -1 0.35948647E-02 0.95036509E+02</pdfrwt>
<totfact> 0.92713674E+04</totfact>
</mgrwt>
</event>
<event>
 5    1  0.1256986E+001  0.9080162E+02  0.7546771E-02  0.1300922E+00
         -2   -1    0    0    0  501 -0.00000000000E+00  0.00000000000E+00  0.52464490867E+02  0.52464490867E+02  0.00000000000E+00 0.  1.
          2   -1    0    0  501    0  0.00000000000E+00 -0.00000000000E+00 -0.39288160804E+02  0.39288160804E+02  0.00000000000E+00 0. -1.
         23    2    1    2    0    0  0.00000000000E+00  0.00000000000E+00  0.13176330063E+02  0.91752651671E+02  0.90801615706E+02 0.  0.
        -11    1    3    3    0    0  0.43943017131E+01 -0.37570524741E+02 -0.18782156048E+02  0.42232968197E+02  0.00000000000E+00 0. -1.
         11    1    3    3    0    0 -0.43943017131E+01  0.37570524741E+02  0.31958486111E+02  0.49519683474E+02  0.00000000000E+00 0.  1.
<mgrwt>
<rscale>  0 0.90801616E+02</rscale>
<asrwt>0</asrwt>
<pdfrwt beam="2">  1        2 0.60443324E-02 0.90801616E+02</pdfrwt>
<pdfrwt beam="1">  1       -2 0.80714601E-02 0.90801616E+02</pdfrwt>
<totfact> 0.96087767E+04</totfact>
</mgrwt>
</event>
<event>
 5    1  0.1256986E+001  0.9036385E+02  0.7546771E-02  0.1301973E+00
          1   -1    0    0  501    0  0.00000000000E+00  0.00000000000E+00  0.18974173052E+03  0.18974173052E+03  0.00000000000E+00 0. -1.
         -1   -1    0    0    0  501 -0.00000000000E+00 -0.00000000000E+00 -0.10758869337E+02  0.10758869337E+02  0.00000000000E+00 0.  1.
         23    2    1    2    0    0  0.00000000000E+00  0.00000000000E+00  0.17898286118E+03  0.20050059985E+03  0.90363853091E+02 0.  0.
        -11    1    3    3    0    0 -0.10172954411E+02  0.42828497862E+02  0.11207948826E+03  0.12041420563E+03  0.00000000000E+00 0. -1.
         11    1    3    3    0    0  0.10172954411E+02 -0.42828497862E+02  0.66903372923E+02  0.80086394219E+02  0.00000000000E+00 0.  1.
<mgrwt>
<rscale>  0 0.90363853E+02</rscale>
<asrwt>0</asrwt>
<pdfrwt beam="1">  1        1 0.29191033E-01 0.90363853E+02</pdfrwt>
<pdfrwt beam="2">  1       -1 0.16552108E-02 0.90363853E+02</pdfrwt>
<totfact> 0.12005580E+05</totfact>
</mgrwt>
</event>
<event>
 5    1  0.1256986E+001  0.9067696E+02  0.7546771E-02  0.1301221E+00
          3   -1    0    0  501    0  0.00000000000E+00  0.00000000000E+00  0.48325814899E+02  0.48325814899E+02  0.00000000000E+00 0. -1.
         -3   -1    0    0    0  501 -0.00000000000E+00 -0.00000000000E+00 -0.42535809973E+02  0.42535809973E+02  0.00000000000E+00 0.  1.
         23    2    1    2    0    0  0.00000000000E+00  0.00000000000E+00  0.57900049266E+01  0.90861624872E+02  0.90676958029E+02 0.  0.
        -11    1    3    3    0    0  0.10265385722E+02  0.13392901284E+02  0.45061930146E+02  0.48117829308E+02  0.00000000000E+00 0. -1.
         11    1    3    3    0    0 -0.10265385722E+02 -0.13392901284E+02 -0.39271925219E+02  0.42743795564E+02  0.00000000000E+00 0.  1.
<mgrwt>
<rscale>  0 0.90676958E+02</rscale>
<asrwt>0</asrwt>
<pdfrwt beam="1">  1        3 0.74347408E-02 0.90676958E+02</pdfrwt>
<pdfrwt beam="2">  1       -3 0.65439708E-02 0.90676958E+02</pdfrwt>
<totfact> 0.35896048E+04</totfact>
</mgrwt>
</event>
<event>
 5    1  0.1256986E+001  0.9260231E+02  0.7546771E-02  0.1296669E+00
          1   -1    0    0  501    0  0.00000000000E+00  0.00000000000E+00  0.30372321620E+03  0.30372321620E+03  0.00000000000E+00 0. -1.
         -1   -1    0    0    0  501 -0.00000000000E+00 -0.00000000000E+00 -0.70583894945E+01  0.70583894945E+01  0.00000000000E+00 0.  1.
         23    2    1    2    0    0  0.00000000000E+00  0.00000000000E+00  0.29666482670E+03  0.31078160569E+03  0.92602305769E+02 0.  0.
        -13    1    3    3    0    0  0.36352978504E+02 -0.16529677593E+02  0.69694760344E+02  0.80325144923E+02  0.00000000000E+00 0.  1.
         13    1    3    3    0    0 -0.36352978504E+02  0.16529677593E+02  0.22697006636E+03  0.23045646077E+03  0.00000000000E+00 0. -1.
<mgrwt>
<rscale>  0 0.92602306E+02</rscale>
<asrwt>0</asrwt>
<pdfrwt beam="1">  1        1 0.46726639E-01 0.92602306E+02</pdfrwt>
<pdfrwt beam="2">  1       -1 0.10859063E-02 0.92602306E+02</pdfrwt>
<totfact> 0.12321642E+05</totfact>
</mgrwt>
</event>
<event>
 5    1  0.1256986E+001  0.9650091E+02  0.7546771E-02  0.1287831E+00
          2   -1    0    0  501    0  0.00000000000E+00  0.00000000000E+00  0.25799158167E+02  0.25799158167E+02  0.00000000000E+00 0. -1.
         -2   -1    0    0    0  501 -0.00000000000E+00 -0.00000000000E+00 -0.90239622834E+02  0.90239622834E+02  0.00000000000E+00 0.  1.
         23    2    1    2    0    0  0.00000000000E+00  0.00000000000E+00 -0.64440464667E+02  0.11603878100E+03  0.96500907819E+02 0.  0.
        -13    1    3    3    0    0 -0.38358188771E+02 -0.11848453656E+02 -0.64404260098E+02  0.75892326481E+02  0.00000000000E+00 0.  1.
         13    1    3    3    0    0  0.38358188771E+02  0.11848453656E+02 -0.36204568728E-01  0.40146454521E+02  0.00000000000E+00 0. -1.
<mgrwt>
<rscale>  0 0.96500908E+02</rscale>
<asrwt>0</asrwt>
<pdfrwt beam="1">  1        2 0.39691012E-02 0.96500908E+02</pdfrwt>
<pdfrwt beam="2">  1       -2 0.13883019E-01 0.96500908E+02</pdfrwt>
<totfact> 0.71467751E+04</totfact>
</mgrwt>
</event>
<event>
 5    1  0.1256986E+001  0.1024330E+03  0.7546771E-02  0.1275261E+00
          1   -1    0    0  501    0  0.00000000000E+00  0.00000000000E+00  0.17698068492E+03  0.17698068492E+03  0.00000000000E+00 0. -1.
         -1   -1    0    0    0  501 -0.00000000000E+00 -0.00000000000E+00 -0.14821549173E+02  0.14821549173E+02  0.00000000000E+00 0.  1.
         23    2    1    2    0    0  0.00000000000E+00  0.00000000000E+00  0.16215913575E+03  0.19180223410E+03  0.10243296196E+03 0.  0.
        -13    1    3    3    0    0  0.25496565769E+02 -0.41658778764E+02  0.10994223274E+03  0.12030304757E+03  0.00000000000E+00 0. -1.
         13    1    3    3    0    0 -0.25496565769E+02  0.41658778764E+02  0.52216903007E+02  0.71499186525E+02  0.00000000000E+00 0.  1.
<mgrwt>
<rscale>  0 0.10243296E+03</rscale>
<asrwt>0</asrwt>
<pdfrwt beam="1">  1        1 0.27227796E-01 0.10243296E+03</pdfrwt>
<pdfrwt beam="2">  1       -1 0.22802385E-02 0.10243296E+03</pdfrwt>
<totfact> 0.84386685E+04</totfact>
</mgrwt>
</event>
<event>
 5    1  0.1256986E+001  0.8857869E+02  0.7546771E-02  0.1306331E+00
         -1   -1    0    0    0  501 -0.00000000000E+00  0.00000000000E+00  0.10830419891E+03  0.10830419891E+03  0.00000000000E+00 0.  1.
          1   -1    0    0  501    0  0.00000000000E+00 -0.00000000000E+00 -0.18111451091E+02  0.18111451091E+02  0.00000000000E+00 0. -1.
         23    2    1    2    0    0  0.00000000000E+00  0.00000000000E+00  0.90192747816E+02  0.12641565000E+03  0.88578692731E+02 0.  0.
        -13    1    3    3    0    0 -0.43059983735E+02  0.17039553271E+01  0.59684156310E+02  0.73615651715E+02  0.00000000000E+00 0. -1.
         13    1    3    3    0    0  0.43059983735E+02 -0.17039553271E+01  0.30508591507E+02  0.52799998284E+02  0.00000000000E+00 0.  1.
<mgrwt>
<rscale>  0 0.88578693E+02</rscale>
<asrwt>0</asrwt>
<pdfrwt beam="2">  1        1 0.27863772E-02 0.88578693E+02</pdfrwt>
<pdfrwt beam="1">  1       -1 0.16662184E-01 0.88578693E+02</pdfrwt>
<totfact> 0.86345678E+04</totfact>
</mgrwt>
</event>
<event>
 5    1  0.1256986E+001  0.9162111E+02  0.7546771E-02  0.1298973E+00
         -1   -1    0    0    0  501 -0.00000000000E+00  0.00000000000E+00  0.34732553495E+02  0.34732553495E+02  0.00000000000E+00 0.  1.
          1   -1    0    0  501    0  0.00000000000E+00 -0.00000000000E+00 -0.60421896934E+02  0.60421896934E+02  0.00000000000E+00 0. -1.
         23    2    1    2    0    0  0.00000000000E+00  0.00000000000E+00 -0.25689343439E+02  0.95154450429E+02  0.91621106030E+02 0.  0.
        -11    1    3    3    0    0 -0.33107495565E+02  0.19432211092E+02 -0.38806498640E+02  0.54586275081E+02  0.00000000000E+00 0. -1.
         11    1    3    3    0    0  0.33107495565E+02 -0.19432211092E+02  0.13117155201E+02  0.40568175348E+02  0.00000000000E+00 0.  1.
<mgrwt>
<rscale>  0 0.91621106E+02</rscale>
<asrwt>0</asrwt>
<pdfrwt beam="2">  1        1 0.92956764E-02 0.91621106E+02</pdfrwt>
<pdfrwt beam="1">  1       -1 0.53434698E-02 0.91621106E+02</pdfrwt>
<totfact> 0.95180154E+04</totfact>
</mgrwt>
</event>
<event>
 5    1  0.1256986E+001  0.9174125E+02  0.7546771E-02  0.1298689E+00
         -1   -1    0    0    0  501 -0.00000000000E+00  0.00000000000E+00  0.74124687243E+02  0.74124687243E+02  0.00000000000E+00 0.  1.
          1   -1    0    0  501    0  0.00000000000E+00 -0.00000000000E+00 -0.28386144872E+02  0.28386144872E+02  0.00000000000E+00 0. -1.
         23    2    1    2    0    0  0.00000000000E+00  0.00000000000E+00  0.45738542371E+02  0.10251083211E+03  0.91741247226E+02 0.  0.
        -11    1    3    3    0    0  0.28494675448E+02 -0.66471368500E+01  0.62343120614E+02  0.68867958043E+02  0.00000000000E+00 0.  1.
         11    1    3    3    0    0 -0.28494675448E+02  0.66471368500E+01 -0.16604578243E+02  0.33642874072E+02  0.00000000000E+00 0. -1.
<mgrwt>
<rscale>  0 0.91741247E+02</rscale>
<asrwt>0</asrwt>
<pdfrwt beam="2">  1        1 0.43670993E-02 0.91741247E+02</pdfrwt>
<pdfrwt beam="1">  1       -1 0.11403798E-01 0.91741247E+02</pdfrwt>
<totfact> 0.84392444E+04</totfact>
</mgrwt>
</event>
<event>
 5    1  0.1256986E+001  0.9190854E+02  0.7546771E-02  0.1298295E+00
          2   -1    0    0  501    0  0.00000000000E+00  0.00000000000E+00  0.21372188579E+02  0.21372188579E+02  0.00000000000E+00 0. -1.
         -2   -1    0    0    0  501 -0.00000000000E+00 -0.00000000000E+00 -0.98810422670E+02  0.98810422670E+02  0.00000000000E+00 0.  1.
         23    2    1    2    0    0  0.00000000000E+00  0.00000000000E+00 -0.77438234091E+02  0.12018261125E+03  0.91908541211E+02 0.  0.
        -13    1    3    3    0    0 -0.33425944657E+02  0.31523899468E+02 -0.39847758598E+02  0.60818532366E+02  0.00000000000E+00 0.  1.
         13    1    3    3    0    0  0.33425944657E+02 -0.31523899468E+02 -0.37590475493E+02  0.59364078883E+02  0.00000000000E+00 0. -1.
<mgrwt>
<rscale>  0 0.91908541E+02</rscale>
<asrwt>0</asrwt>
<pdfrwt beam="1">  1        2 0.32880290E-02 0.91908541E+02</pdfrwt>
<pdfrwt beam="2">  1       -2 0.15201604E-01 0.91908541E+02</pdfrwt>
<totfact> 0.78513301E+04</totfact>
</mgrwt>
</event>
<event>
 5    1  0.1256986E+001  0.9476771E+02  0.7546771E-02  0.1291700E+00
          1   -1    0    0  501    0  0.00000000000E+00  0.00000000000E+00  0.35350176351E+02  0.35350176351E+02  0.00000000000E+00 0. -1.
         -1   -1    0    0    0  501 -0.00000000000E+00 -0.00000000000E+00 -0.63513965739E+02  0.63513965739E+02  0.00000000000E+00 0.  1.
         23    2    1    2    0    0  0.00000000000E+00  0.00000000000E+00 -0.28163789388E+02  0.98864142090E+02  0.94767713692E+02 0.  0.
        -13    1    3    3    0    0  0.46654573867E+01  0.24891128996E+02  0.27697907390E+02  0.37530106170E+02  0.00000000000E+00 0. -1.
         13    1    3    3    0    0 -0.46654573867E+01 -0.24891128996E+02 -0.55861696778E+02  0.61334035920E+02  0.00000000000E+00 0.  1.
<mgrwt>
<rscale>  0 0.94767714E+02</rscale>
<asrwt>0</asrwt>
<pdfrwt beam="1">  1        1 0.54384887E-02 0.94767714E+02</pdfrwt>
<pdfrwt beam="2">  1       -1 0.97713793E-02 0.94767714E+02</pdfrwt>
<totfact> 0.79668520E+04</totfact>
</mgrwt>
</event>
<event>
 5    1  0.1256986E+001  0.9135953E+02  0.7546771E-02  0.1299592E+00
         -4   -1    0    0    0  501 -0.00000000000E+00  0.00000000000E+00  0.31840789987E+02  0.31840789987E+02  0.00000000000E+00 0.  1.
          4   -1    0    0  501    0  0.00000000000E+00 -0.00000000000E+00 -0.65533574337E+02  0.65533574337E+02  0.00000000000E+00 0. -1.
         23    2    1    2    0    0  0.00000000000E+00  0.00000000000E+00 -0.33692784350E+02  0.97374364323E+02  0.91359526652E+02 0.  0.
        -11    1    3    3    0    0  0.16938602949E+02 -0.33078008966E+02  0.11464971987E+02  0.38891085479E+02  0.00000000000E+00 0.  1.
         11    1    3    3    0    0 -0.16938602949E+02  0.33078008966E+02 -0.45157756337E+02  0.58483278845E+02  0.00000000000E+00 0. -1.
<mgrwt>
<rscale>  0 0.91359527E+02</rscale>
<asrwt>0</asrwt>
<pdfrwt beam="2">  1        4 0.10082088E-01 0.91359527E+02</pdfrwt>
<pdfrwt beam="1">  1       -4 0.48985832E-02 0.91359527E+02</pdfrwt>
<totfact> 0.26477406E+04</totfact>
</mgrwt>
</event>
<event>
 5    1  0.1256986E+001  0.9548778E+02  0.7546771E-02  0.1290081E+00
          2   -1    0    0  501    0  0.00000000000E+00  0.00000000000E+00  0.15703350843E+03  0.15703350843E+03  0.00000000000E+00 0. -1.
         -2   -1    0    0    0  501 -0.00000000000E+00 -0.00000000000E+00 -0.14515877305E+02  0.14515877305E+02  0.00000000000E+00 0.  1.
         23    2    1    2    0    0  0.00000000000E+00  0.00000000000E+00  0.14251763112E+03  0.17154938573E+03  0.95487782280E+02 0.  0.
        -11    1    3    3    0    0 -0.23019549910E+02  0.39335888990E+02  0.45708033383E+02  0.64547936887E+02  0.00000000000E+00 0.  1.
         11    1    3    3    0    0  0.23019549910E+02 -0.39335888990E+02  0.96809597741E+02  0.10700144885E+03  0.00000000000E+00 0. -1.
<mgrwt>
<rscale>  0 0.95487782E+02</rscale>
<asrwt>0</asrwt>
<pdfrwt beam="1">  1        2 0.24159000E-01 0.95487782E+02</pdfrwt>
<pdfrwt beam="2">  1       -2 0.22332120E-02 0.95487782E+02</pdfrwt>
<totfact> 0.12524509E+05</totfact>
</mgrwt>
</event>
<event>
 5    1  0.1256986E+001  0.8832265E+02  0.7546771E-02  0.1306965E+00
         -2   -1    0    0    0  501 -0.00000000000E+00  0.00000000000E+00  0.26912609885E+03  0.26912609885E+03  0.00000000000E+00 0.  1.
          2   -1    0    0  501    0  0.00000000000E+00 -0.00000000000E+00 -0.72465011753E+01  0.72465011753E+01  0.00000000000E+00 0. -1.
         23    2    1    2    0    0  0.00000000000E+00  0.00000000000E+00  0.26187959767E+03  0.27637260002E+03  0.88322649227E+02 0.  0.
        -11    1    3    3    0    0  0.35904370720E+02 -0.11033158465E+02  0.20361153796E+03  0.20704712703E+03  0.00000000000E+00 0.  1.
         11    1    3    3    0    0 -0.35904370720E+02  0.11033158465E+02  0.58268059714E+02  0.69325472990E+02  0.00000000000E+00 0. -1.
<mgrwt>
<rscale>  0 0.88322649E+02</rscale>
<asrwt>0</asrwt>
<pdfrwt beam="2">  1        2 0.11148465E-02 0.88322649E+02</pdfrwt>
<pdfrwt beam="1">  1       -2 0.41404007E-01 0.88322649E+02</pdfrwt>
<totfact> 0.58700118E+04</totfact>
</mgrwt>
</event>
<event>
 5    1  0.1256986E+001  0.7777784E+02  0.7546771E-02  0.1335479E+00
         -2   -1    0    0    0  501 -0.00000000000E+00  0.00000000000E+00  0.45364923776E+02  0.45364923776E+02  0.00000000000E+00 0.  1.
          2   -1    0    0  501    0  0.00000000000E+00 -0.00000000000E+00 -0.33337392254E+02  0.33337392254E+02  0.00000000000E+00 0. -1.
         23    2    1    2    0    0  0.00000000000E+00  0.00000000000E+00  0.12027531522E+02  0.78702316030E+02  0.77777844108E+02 0.  0.
        -11    1    3    3    0    0  0.12383793422E+02 -0.28208760797E+02 -0.18001335512E+02  0.35681095911E+02  0.00000000000E+00 0. -1.
         11    1    3    3    0    0 -0.12383793422E+02  0.28208760797E+02  0.30028867034E+02  0.43021220119E+02  0.00000000000E+00 0.  1.
<mgrwt>
<rscale>  0 0.77777844E+02</rscale>
<asrwt>0</asrwt>
<pdfrwt beam="2">  1        2 0.51288296E-02 0.77777844E+02</pdfrwt>
<pdfrwt beam="1">  1       -2 0.69792191E-02 0.77777844E+02</pdfrwt>
<totfact> 0.14390713E+05</totfact>
</mgrwt>
</event>
<event>
 5    1  0.1256986E+001  0.8993719E+02  0.7546771E-02  0.1303004E+00
          1   -1    0    0  501    0  0.00000000000E+00  0.00000000000E+00  0.48955382476E+02  0.48955382476E+02  0.00000000000E+00 0. -1.
         -1   -1    0    0    0  501 -0.00000000000E+00 -0.00000000000E+00 -0.41306480240E+02  0.41306480240E+02  0.00000000000E+00 0.  1.
         23    2    1    2    0    0  0.00000000000E+00  0.00000000000E+00  0.76489022367E+01  0.90261862716E+02  0.89937190058E+02 0.  0.
        -13    1    3    3    0    0 -0.21811018162E+02  0.24903452259E+02  0.34369038766E+02  0.47719317613E+02  0.00000000000E+00 0. -1.
         13    1    3    3    0    0  0.21811018162E+02 -0.24903452259E+02 -0.26720136529E+02  0.42542545103E+02  0.00000000000E+00 0.  1.
<mgrwt>
<rscale>  0 0.89937190E+02</rscale>
<asrwt>0</asrwt>
<pdfrwt beam="1">  1        1 0.75315973E-02 0.89937190E+02</pdfrwt>
<pdfrwt beam="2">  1       -1 0.63548431E-02 0.89937190E+02</pdfrwt>
<totfact> 0.97109575E+04</totfact>
</mgrwt>
</event>
<event>
 5    1  0.1256986E+001  0.9144510E+02  0.7546771E-02  0.1299389E+00
         -2   -1    0    0    0  501 -0.00000000000E+00  0.00000000000E+00  0.86299278240E+01  0.86299278240E+01  0.00000000000E+00 0. -1.
          2   -1    0    0  501    0  0.00000000000E+00 -0.00000000000E+00 -0.24224440169E+03  0.24224440169E+03  0.00000000000E+00 0.  1.
         23    2    1    2    0    0  0.00000000000E+00  0.00000000000E+00 -0.23361447387E+03  0.25087432952E+03  0.91445102709E+02 0.  0.
        -13    1    3    3    0    0 -0.17061333991E+02 -0.39663204043E+02 -0.15807692340E+03  0.16386754586E+03  0.00000000000E+00 0.  1.
         13    1    3    3    0    0  0.17061333991E+02  0.39663204043E+02 -0.75537550465E+02  0.87006783660E+02  0.00000000000E+00 0. -1.
<mgrwt>
<rscale>  0 0.91445103E+02</rscale>
<asrwt>0</asrwt>
<pdfrwt beam="2">  1        2 0.37268372E-01 0.91445103E+02</pdfrwt>
<pdfrwt beam="1">  1       -2 0.13276811E-02 0.91445103E+02</pdfrwt>
<totfact> 0.16461374E+05</totfact>
</mgrwt>
</event>
<event>
 5    1  0.1256986E+001  0.8980624E+02  0.7546771E-02  0.1303322E+00
          4   -1    0    0  501    0  0.00000000000E+00  0.00000000000E+00  0.38680506234E+03  0.38680506234E+03  0.00000000000E+00 0. -1.
         -4   -1    0    0    0  501 -0.00000000000E+00 -0.00000000000E+00 -0.52126774278E+01  0.52126774278E+01  0.00000000000E+00 0.  1.
         23    2    1    2    0    0  0.00000000000E+00  0.00000000000E+00  0.38159238491E+03  0.39201773976E+03  0.89806236251E+02 0.  0.
        -13    1    3    3    0    0  0.62617749569E+01  0.43740886002E+02  0.15592547397E+03  0.16206550640E+03  0.00000000000E+00 0. -1.
         13    1    3    3    0    0 -0.62617749569E+01 -0.43740886002E+02  0.22566691094E+03  0.22995223336E+03  0.00000000000E+00 0.  1.
<mgrwt>
<rscale>  0 0.89806236E+02</rscale>
<asrwt>0</asrwt>
<pdfrwt beam="1">  1        4 0.59508449E-01 0.89806236E+02</pdfrwt>
<pdfrwt beam="2">  1       -4 0.80195068E-03 0.89806236E+02</pdfrwt>
<totfact> 0.15964287E+04</totfact>
</mgrwt>
</event>
<event>
 5    1  0.1256986E+001  0.9138740E+02  0.7546771E-02  0.1299526E+00
         -2   -1    0    0    0  501 -0.00000000000E+00  0.00000000000E+00  0.11764580012E+02  0.11764580012E+02  0.00000000000E+00 0.  1.
          2   -1    0    0  501    0  0.00000000000E+00 -0.00000000000E+00 -0.17747462308E+03  0.17747462308E+03  0.00000000000E+00 0. -1.
         23    2    1    2    0    0  0.00000000000E+00  0.00000000000E+00 -0.16571004307E+03  0.18923920309E+03  0.91387404020E+02 0.  0.
        -13    1    3    3    0    0  0.57232540746E+00 -0.38353894093E+02 -0.13427293326E+03  0.13964443904E+03  0.00000000000E+00 0. -1.
         13    1    3    3    0    0 -0.57232540746E+00  0.38353894093E+02 -0.31437109810E+02  0.49594764055E+02  0.00000000000E+00 0.  1.
<mgrwt>
<rscale>  0 0.91387404E+02</rscale>
<asrwt>0</asrwt>
<pdfrwt beam="2">  1        2 0.27303788E-01 0.91387404E+02</pdfrwt>
<pdfrwt beam="1">  1       -2 0.18099354E-02 0.91387404E+02</pdfrwt>
<totfact> 0.14728084E+05</totfact>
</mgrwt>
</event>
<event>
 5    1  0.1256986E+001  0.9029110E+02  0.7546771E-02  0.1302148E+00
          1   -1    0    0  501    0  0.00000000000E+00  0.00000000000E+00  0.12011003757E+03  0.12011003757E+03  0.00000000000E+00 0. -1.
         -1   -1    0    0    0  501 -0.00000000000E+00 -0.00000000000E+00 -0.16968779061E+02  0.16968779061E+02  0.00000000000E+00 0.  1.
         23    2    1    2    0    0  0.00000000000E+00  0.00000000000E+00  0.10314125851E+03  0.13707881663E+03  0.90291100129E+02 0.  0.
        -11    1    3    3    0    0  0.13805322979E+02 -0.40052495785E+02  0.27888299911E+02  0.50720278322E+02  0.00000000000E+00 0.  1.
         11    1    3    3    0    0 -0.13805322979E+02  0.40052495785E+02  0.75252958599E+02  0.86358538311E+02  0.00000000000E+00 0. -1.
<mgrwt>
<rscale>  0 0.90291100E+02</rscale>
<asrwt>0</asrwt>
<pdfrwt beam="1">  1        1 0.18478467E-01 0.90291100E+02</pdfrwt>
<pdfrwt beam="2">  1       -1 0.26105815E-02 0.90291100E+02</pdfrwt>
<totfact> 0.11064327E+05</totfact>
</mgrwt>
</event>
<event>
 5    1  0.1256986E+001  0.9139274E+02  0.7546771E-02  0.1299514E+00
          1   -1    0    0  501    0  0.00000000000E+00  0.00000000000E+00  0.10224160532E+02  0.10224160532E+02  0.00000000000E+00 0. -1.
         -1   -1    0    0    0  501 -0.00000000000E+00 -0.00000000000E+00 -0.20423760402E+03  0.20423760402E+03  0.00000000000E+00 0.  1.
         23    2    1    2    0    0  0.00000000000E+00  0.00000000000E+00 -0.19401344348E+03  0.21446176455E+03  0.91392736040E+02 0.  0.
        -13    1    3    3    0    0 -0.35104489676E+02 -0.67218331251E+01 -0.16381877823E+03  0.16767259865E+03  0.00000000000E+00 0.  1.
         13    1    3    3    0    0  0.35104489676E+02  0.67218331251E+01 -0.30194665252E+02  0.46789165901E+02  0.00000000000E+00 0. -1.
<mgrwt>
<rscale>  0 0.91392736E+02</rscale>
<asrwt>0</asrwt>
<pdfrwt beam="1">  1        1 0.15729478E-02 0.91392736E+02</pdfrwt>
<pdfrwt beam="2">  1       -1 0.31421170E-01 0.91392736E+02</pdfrwt>
<totfact> 0.68581840E+04</totfact>
</mgrwt>
</event>
<event>
 5    1  0.1256986E+001  0.1055918E+03  0.7546771E-02  0.1268958E+00
         -1   -1    0    0    0  501 -0.00000000000E+00  0.00000000000E+00  0.43729909792E+02  0.43729909792E+02  0.00000000000E+00 0.  1.
          1   -1    0    0  501    0  0.00000000000E+00 -0.00000000000E+00 -0.63741391973E+02  0.63741391973E+02  0.00000000000E+00 0. -1.
         23    2    1    2    0    0  0.00000000000E+00  0.00000000000E+00 -0.20011482181E+02  0.10747130176E+03  0.10559176712E+03 0.  0.
        -13    1    3    3    0    0 -0.42518313942E+02 -0.25465352971E+02  0.85146983819E+01  0.50287088909E+02  0.00000000000E+00 0.  1.
         13    1    3    3    0    0  0.42518313942E+02  0.25465352971E+02 -0.28526180563E+02  0.57184212855E+02  0.00000000000E+00 0. -1.
<mgrwt>
<rscale>  0 0.10559177E+03</rscale>
<asrwt>0</asrwt>
<pdfrwt beam="2">  1        1 0.98063679E-02 0.10559177E+03</pdfrwt>
<pdfrwt beam="1">  1       -1 0.67276785E-02 0.10559177E+03</pdfrwt>
<totfact> 0.64486992E+04</totfact>
</mgrwt>
</event>
<event>
 5    1  0.1256986E+001  0.9991534E+02  0.7546771E-02  0.1280474E+00
         -1   -1    0    0    0  501 -0.00000000000E+00  0.00000000000E+00  0.18799004027E+03  0.18799004027E+03  0.00000000000E+00 0.  1.
          1   -1    0    0  501    0  0.00000000000E+00 -0.00000000000E+00 -0.13276069424E+02  0.13276069424E+02  0.00000000000E+00 0. -1.
         23    2    1    2    0    0  0.00000000000E+00  0.00000000000E+00  0.17471397085E+03  0.20126610969E+03  0.99915340676E+02 0.  0.
        -11    1    3    3    0    0  0.43262524329E+01 -0.49540787064E+02  0.96967599834E+02  0.10897578383E+03  0.00000000000E+00 0.  1.
         11    1    3    3    0    0 -0.43262524329E+01  0.49540787064E+02  0.77746371013E+02  0.92290325867E+02  0.00000000000E+00 0. -1.
<mgrwt>
<rscale>  0 0.99915341E+02</rscale>
<asrwt>0</asrwt>
<pdfrwt beam="2">  1        1 0.20424724E-02 0.99915341E+02</pdfrwt>
<pdfrwt beam="1">  1       -1 0.28921543E-01 0.99915341E+02</pdfrwt>
<totfact> 0.55621070E+04</totfact>
</mgrwt>
</event>
<event>
 5    1  0.1256986E+001  0.8953467E+02  0.7546771E-02  0.1303982E+00
          1   -1    0    0  501    0  0.00000000000E+00  0.00000000000E+00  0.19874218660E+03  0.19874218660E+03  0.00000000000E+00 0. -1.
         -1   -1    0    0    0  501 -0.00000000000E+00 -0.00000000000E+00 -0.10083989670E+02  0.10083989670E+02  0.00000000000E+00 0.  1.
         23    2    1    2    0    0  0.00000000000E+00  0.00000000000E+00  0.18865819693E+03  0.20882617627E+03  0.89534667179E+02 0.  0.
        -11    1    3    3    0    0 -0.31303771583E+02  0.23210592589E+02  0.14571794184E+03  0.15083890844E+03  0.00000000000E+00 0.  1.
         11    1    3    3    0    0  0.31303771583E+02 -0.23210592589E+02  0.42940255082E+02  0.57987267828E+02  0.00000000000E+00 0. -1.
<mgrwt>
<rscale>  0 0.89534667E+02</rscale>
<asrwt>0</asrwt>
<pdfrwt beam="1">  1        1 0.30575718E-01 0.89534667E+02</pdfrwt>
<pdfrwt beam="2">  1       -1 0.15513832E-02 0.89534667E+02</pdfrwt>
<totfact> 0.12415924E+05</totfact>
</mgrwt>
</event>
<event>
 5    1  0.1256986E+001  0.9487242E+02  0.7546771E-02  0.1291464E+00
         -1   -1    0    0    0  501 -0.00000000000E+00  0.00000000000E+00  0.70997885203E+02  0.70997885203E+02  0.00000000000E+00 0.  1.
          1   -1    0    0  501    0  0.00000000000E+00 -0.00000000000E+00 -0.31693818257E+02  0.31693818257E+02  0.00000000000E+00 0. -1.
         23    2    1    2    0    0  0.00000000000E+00  0.00000000000E+00  0.39304066946E+02  0.10269170346E+03  0.94872421076E+02 0.  0.
        -13    1    3    3    0    0  0.10548446123E+02  0.18144773853E+02 -0.26394575422E+02  0.33722042428E+02  0.00000000000E+00 0. -1.
         13    1    3    3    0    0 -0.10548446123E+02 -0.18144773853E+02  0.65698642368E+02  0.68969661031E+02  0.00000000000E+00 0.  1.
<mgrwt>
<rscale>  0 0.94872421E+02</rscale>
<asrwt>0</asrwt>
<pdfrwt beam="2">  1        1 0.48759721E-02 0.94872421E+02</pdfrwt>
<pdfrwt beam="1">  1       -1 0.10922752E-01 0.94872421E+02</pdfrwt>
<totfact> 0.78010669E+04</totfact>
</mgrwt>
</event>
<event>
 5    1  0.1256986E+001  0.9132610E+02  0.7546771E-02  0.1299672E+00
         -1   -1    0    0    0  501 -0.00000000000E+00  0.00000000000E+00  0.14022693193E+03  0.14022693193E+03  0.00000000000E+00 0.  1.
          1   -1    0    0  501    0  0.00000000000E+00 -0.00000000000E+00 -0.14869570453E+02  0.14869570453E+02  0.00000000000E+00 0. -1.
         23    2    1    2    0    0  0.00000000000E+00  0.00000000000E+00  0.12535736148E+03  0.15509650238E+03  0.91326102376E+02 0.  0.
        -11    1    3    3    0    0 -0.39314737821E+02  0.61442624731E+01  0.24639158908E+02  0.46802657221E+02  0.00000000000E+00 0.  1.
         11    1    3    3    0    0  0.39314737821E+02 -0.61442624731E+01  0.10071820257E+03  0.10829384516E+03  0.00000000000E+00 0. -1.
<mgrwt>
<rscale>  0 0.91326102E+02</rscale>
<asrwt>0</asrwt>
<pdfrwt beam="2">  1        1 0.22876263E-02 0.91326102E+02</pdfrwt>
<pdfrwt beam="1">  1       -1 0.21573373E-01 0.91326102E+02</pdfrwt>
<totfact> 0.75630740E+04</totfact>
</mgrwt>
</event>
<event>
 5    1  0.1256986E+001  0.9880105E+02  0.7546771E-02  0.1282838E+00
          1   -1    0    0  501    0  0.00000000000E+00  0.00000000000E+00  0.22697770030E+02  0.22697770030E+02  0.00000000000E+00 0. -1.
         -1   -1    0    0    0  501 -0.00000000000E+00 -0.00000000000E+00 -0.10751769910E+03  0.10751769910E+03  0.00000000000E+00 0.  1.
         23    2    1    2    0    0  0.00000000000E+00  0.00000000000E+00 -0.84819929066E+02  0.13021546913E+03  0.98801052793E+02 0.  0.
        -11    1    3    3    0    0 -0.31184716241E+02 -0.38313006259E+02 -0.42149580119E+02  0.64938125010E+02  0.00000000000E+00 0.  1.
         11    1    3    3    0    0  0.31184716241E+02  0.38313006259E+02 -0.42670348948E+02  0.65277344117E+02  0.00000000000E+00 0. -1.
<mgrwt>
<rscale>  0 0.98801053E+02</rscale>
<asrwt>0</asrwt>
<pdfrwt beam="1">  1        1 0.34919647E-02 0.98801053E+02</pdfrwt>
<pdfrwt beam="2">  1       -1 0.16541184E-01 0.98801053E+02</pdfrwt>
<totfact> 0.65217098E+04</totfact>
</mgrwt>
</event>
<event>
 5    1  0.1256986E+001  0.9018381E+02  0.7546771E-02  0.1302407E+00
          1   -1    0    0  501    0  0.00000000000E+00  0.00000000000E+00  0.20504830554E+02  0.20504830554E+02  0.00000000000E+00 0.  1.
         -1   -1    0    0    0  501 -0.00000000000E+00 -0.00000000000E+00 -0.99161024934E+02  0.99161024934E+02  0.00000000000E+00 0. -1.
         23    2    1    2    0    0  0.00000000000E+00  0.00000000000E+00 -0.78656194381E+02  0.11966585549E+03  0.90183812601E+02 0.  0.
        -11    1    3    3    0    0  0.36844841799E+02  0.25614472893E+02 -0.45208036863E+02  0.63697803618E+02  0.00000000000E+00 0. -1.
         11    1    3    3    0    0 -0.36844841799E+02 -0.25614472893E+02 -0.33448157518E+02  0.55968051870E+02  0.00000000000E+00 0.  1.
<mgrwt>
<rscale>  0 0.90183813E+02</rscale>
<asrwt>0</asrwt>
<pdfrwt beam="1">  1        1 0.31545893E-02 0.90183813E+02</pdfrwt>
<pdfrwt beam="2">  1       -1 0.15255542E-01 0.90183813E+02</pdfrwt>
<totfact> 0.83826262E+04</totfact>
</mgrwt>
</event>
<event>
 5    1  0.1256986E+001  0.9258207E+02  0.7546771E-02  0.1296717E+00
          1   -1    0    0  501    0  0.00000000000E+00  0.00000000000E+00  0.90191186796E+02  0.90191186796E+02  0.00000000000E+00 0. -1.
         -1   -1    0    0    0  501 -0.00000000000E+00 -0.00000000000E+00 -0.23759081124E+02  0.23759081124E+02  0.00000000000E+00 0.  1.
         23    2    1    2    0    0  0.00000000000E+00  0.00000000000E+00  0.66432105671E+02  0.11395026792E+03  0.92582065732E+02 0.  0.
        -11    1    3    3    0    0 -0.31032570791E+02  0.34189186874E+02  0.37286787780E+02  0.59348340263E+02  0.00000000000E+00 0. -1.
         11    1    3    3    0    0  0.31032570791E+02 -0.34189186874E+02  0.29145317891E+02  0.54601927657E+02  0.00000000000E+00 0.  1.
<mgrwt>
<rscale>  0 0.92582066E+02</rscale>
<asrwt>0</asrwt>
<pdfrwt beam="1">  1        1 0.13875567E-01 0.92582066E+02</pdfrwt>
<pdfrwt beam="2">  1       -1 0.36552433E-02 0.92582066E+02</pdfrwt>
<totfact> 0.98481396E+04</totfact>
</mgrwt>
</event>
<event>
 5    1  0.1256986E+001  0.9274041E+02  0.7546771E-02  0.1296348E+00
          2   -1    0    0  501    0  0.00000000000E+00  0.00000000000E+00  0.30194370302E+02  0.30194370302E+02  0.00000000000E+00 0. -1.
         -2   -1    0    0    0  501 -0.00000000000E+00 -0.00000000000E+00 -0.71211820370E+02  0.71211820370E+02  0.00000000000E+00 0.  1.
         23    2    1    2    0    0  0.00000000000E+00  0.00000000000E+00 -0.41017450068E+02  0.10140619067E+03  0.92740413503E+02 0.  0.
        -11    1    3    3    0    0 -0.16645845792E+02 -0.24761807143E+02  0.18304045686E+02  0.35003847840E+02  0.00000000000E+00 0. -1.
         11    1    3    3    0    0  0.16645845792E+02  0.24761807143E+02 -0.59321495754E+02  0.66402342832E+02  0.00000000000E+00 0.  1.
<mgrwt>
<rscale>  0 0.92740414E+02</rscale>
<asrwt>0</asrwt>
<pdfrwt beam="1">  1        2 0.46452878E-02 0.92740414E+02</pdfrwt>
<pdfrwt beam="2">  1       -2 0.10955664E-01 0.92740414E+02</pdfrwt>
<totfact> 0.84247343E+04</totfact>
</mgrwt>
</event>
<event>
 5    1  0.1256986E+001  0.8997951E+02  0.7546771E-02  0.1302901E+00
          4   -1    0    0  501    0  0.00000000000E+00  0.00000000000E+00  0.37121682763E+02  0.37121682763E+02  0.00000000000E+00 0. -1.
         -4   -1    0    0    0  501 -0.00000000000E+00 -0.00000000000E+00 -0.54525494809E+02  0.54525494809E+02  0.00000000000E+00 0.  1.
         23    2    1    2    0    0  0.00000000000E+00  0.00000000000E+00 -0.17403812045E+02  0.91647177572E+02  0.89979511463E+02 0.  0.
        -11    1    3    3    0    0 -0.36623268068E+02 -0.15615714922E+01 -0.35269358302E+02  0.50868751749E+02  0.00000000000E+00 0.  1.
         11    1    3    3    0    0  0.36623268068E+02  0.15615714922E+01  0.17865546257E+02  0.40778425822E+02  0.00000000000E+00 0. -1.
<mgrwt>
<rscale>  0 0.89979511E+02</rscale>
<asrwt>0</asrwt>
<pdfrwt beam="1">  1        4 0.57110281E-02 0.89979511E+02</pdfrwt>
<pdfrwt beam="2">  1       -4 0.83885376E-02 0.89979511E+02</pdfrwt>
<totfact> 0.27969464E+04</totfact>
</mgrwt>
</event>
<event>
 5    1  0.1256986E+001  0.9080866E+02  0.7546771E-02  0.1300905E+00
         -4   -1    0    0    0  501 -0.00000000000E+00  0.00000000000E+00  0.18283963071E+02  0.18283963071E+02  0.00000000000E+00 0. -1.
          4   -1    0    0  501    0  0.00000000000E+00 -0.00000000000E+00 -0.11275199172E+03  0.11275199172E+03  0.00000000000E+00 0.  1.
         23    2    1    2    0    0  0.00000000000E+00  0.00000000000E+00 -0.94468028649E+02  0.13103595479E+03  0.90808661543E+02 0.  0.
        -13    1    3    3    0    0  0.39627448222E+02 -0.19621910077E+02 -0.32363570936E+02  0.54797397122E+02  0.00000000000E+00 0. -1.
         13    1    3    3    0    0 -0.39627448222E+02  0.19621910077E+02 -0.62104457713E+02  0.76238557669E+02  0.00000000000E+00 0.  1.
<mgrwt>
<rscale>  0 0.90808662E+02</rscale>
<asrwt>0</asrwt>
<pdfrwt beam="2">  1        4 0.17346460E-01 0.90808662E+02</pdfrwt>
<pdfrwt beam="1">  1       -4 0.28129174E-02 0.90808662E+02</pdfrwt>
<totfact> 0.24932025E+04</totfact>
</mgrwt>
</event>
<event>
 5    1  0.1256986E+001  0.9048260E+02  0.7546771E-02  0.1301687E+00
         -3   -1    0    0    0  501 -0.00000000000E+00  0.00000000000E+00  0.16221793308E+02  0.16221793308E+02  0.00000000000E+00 0.  1.
          3   -1    0    0  501    0  0.00000000000E+00 -0.00000000000E+00 -0.12617441808E+03  0.12617441808E+03  0.00000000000E+00 0. -1.
         23    2    1    2    0    0  0.00000000000E+00  0.00000000000E+00 -0.10995262478E+03  0.14239621139E+03  0.90482602326E+02 0.  0.
        -11    1    3    3    0    0 -0.22399097707E+02  0.13945327126E+02  0.28591335478E+01  0.26539901496E+02  0.00000000000E+00 0.  1.
         11    1    3    3    0    0  0.22399097707E+02 -0.13945327126E+02 -0.11281175832E+03  0.11585630990E+03  0.00000000000E+00 0. -1.
<mgrwt>
<rscale>  0 0.90482602E+02</rscale>
<asrwt>0</asrwt>
<pdfrwt beam="2">  1        3 0.19411449E-01 0.90482602E+02</pdfrwt>
<pdfrwt beam="1">  1       -3 0.24956605E-02 0.90482602E+02</pdfrwt>
<totfact> 0.32442776E+04</totfact>
</mgrwt>
</event>
<event>
 5    1  0.1256986E+001  0.9116364E+02  0.7546771E-02  0.1300058E+00
          1   -1    0    0  501    0  0.00000000000E+00  0.00000000000E+00  0.35681687665E+02  0.35681687665E+02  0.00000000000E+00 0. -1.
         -1   -1    0    0    0  501 -0.00000000000E+00 -0.00000000000E+00 -0.58228813521E+02  0.58228813521E+02  0.00000000000E+00 0.  1.
         23    2    1    2    0    0  0.00000000000E+00  0.00000000000E+00 -0.22547125855E+02  0.93910501186E+02  0.91163640497E+02 0.  0.
        -13    1    3    3    0    0  0.69976553702E+01  0.36215358211E+02 -0.38860754300E+02  0.53578704499E+02  0.00000000000E+00 0. -1.
         13    1    3    3    0    0 -0.69976553702E+01 -0.36215358211E+02  0.16313628444E+02  0.40331796687E+02  0.00000000000E+00 0.  1.
<mgrwt>
<rscale>  0 0.91163640E+02</rscale>
<asrwt>0</asrwt>
<pdfrwt beam="1">  1        1 0.54894904E-02 0.91163640E+02</pdfrwt>
<pdfrwt beam="2">  1       -1 0.89582790E-02 0.91163640E+02</pdfrwt>
<totfact> 0.89126883E+04</totfact>
</mgrwt>
</event>
<event>
 5    1  0.1256986E+001  0.9266466E+02  0.7546771E-02  0.1296524E+00
          1   -1    0    0  501    0  0.00000000000E+00  0.00000000000E+00  0.12261838144E+02  0.12261838144E+02  0.00000000000E+00 0. -1.
         -1   -1    0    0    0  501 -0.00000000000E+00 -0.00000000000E+00 -0.17507038677E+03  0.17507038677E+03  0.00000000000E+00 0.  1.
         23    2    1    2    0    0  0.00000000000E+00  0.00000000000E+00 -0.16280854863E+03  0.18733222492E+03  0.92664658775E+02 0.  0.
        -13    1    3    3    0    0  0.28855149312E+02 -0.10753195018E+02 -0.11419203991E+02  0.32842793193E+02  0.00000000000E+00 0. -1.
         13    1    3    3    0    0 -0.28855149312E+02  0.10753195018E+02 -0.15138934464E+03  0.15448943172E+03  0.00000000000E+00 0.  1.
<mgrwt>
<rscale>  0 0.92664659E+02</rscale>
<asrwt>0</asrwt>
<pdfrwt beam="1">  1        1 0.18864367E-02 0.92664659E+02</pdfrwt>
<pdfrwt beam="2">  1       -1 0.26933904E-01 0.92664659E+02</pdfrwt>
<totfact> 0.69020553E+04</totfact>
</mgrwt>
</event>
<event>
 5    1  0.1256986E+001  0.9347484E+02  0.7546771E-02  0.1294649E+00
         -3   -1    0    0    0  501 -0.00000000000E+00  0.00000000000E+00  0.20073871101E+02  0.20073871101E+02  0.00000000000E+00 0.  1.
          3   -1    0    0  501    0  0.00000000000E+00 -0.00000000000E+00 -0.10881739786E+03  0.10881739786E+03  0.00000000000E+00 0. -1.
         23    2    1    2    0    0  0.00000000000E+00  0.00000000000E+00 -0.88743526756E+02  0.12889126896E+03  0.93474839784E+02 0.  0.
        -13    1    3    3    0    0 -0.45638358622E+02  0.87327157839E+01 -0.37440702276E+02  0.59673497380E+02  0.00000000000E+00 0.  1.
         13    1    3    3    0    0  0.45638358622E+02 -0.87327157839E+01 -0.51302824480E+02  0.69217771579E+02  0.00000000000E+00 0. -1.
<mgrwt>
<rscale>  0 0.93474840E+02</rscale>
<asrwt>0</asrwt>
<pdfrwt beam="2">  1        3 0.16741138E-01 0.93474840E+02</pdfrwt>
<pdfrwt beam="1">  1       -3 0.30882879E-02 0.93474840E+02</pdfrwt>
<totfact> 0.30510332E+04</totfact>
</mgrwt>
</event>
<event>
 5    1  0.1256986E+001  0.8998541E+02  0.7546771E-02  0.1302887E+00
         -2   -1    0    0    0  501 -0.00000000000E+00  0.00000000000E+00  0.43037852519E+02  0.43037852519E+02  0.00000000000E+00 0.  1.
          2   -1    0    0  501    0  0.00000000000E+00 -0.00000000000E+00 -0.47036348312E+02  0.47036348312E+02  0.00000000000E+00 0. -1.
         23    2    1    2    0    0  0.00000000000E+00  0.00000000000E+00 -0.39984957920E+01  0.90074200831E+02  0.89985408188E+02 0.  0.
        -13    1    3    3    0    0  0.15962246413E+02 -0.11770336161E+02  0.38426358668E+02  0.43242561954E+02  0.00000000000E+00 0.  1.
         13    1    3    3    0    0 -0.15962246413E+02  0.11770336161E+02 -0.42424854460E+02  0.46831638877E+02  0.00000000000E+00 0. -1.
<mgrwt>
<rscale>  0 0.89985408E+02</rscale>
<asrwt>0</asrwt>
<pdfrwt beam="2">  1        2 0.72363613E-02 0.89985408E+02</pdfrwt>
<pdfrwt beam="1">  1       -2 0.66212080E-02 0.89985408E+02</pdfrwt>
<totfact> 0.10329007E+05</totfact>
</mgrwt>
</event>
<event>
 5    1  0.1256986E+001  0.8873001E+02  0.7546771E-02  0.1305957E+00
         -2   -1    0    0    0  501 -0.00000000000E+00  0.00000000000E+00  0.11402084743E+03  0.11402084743E+03  0.00000000000E+00 0.  1.
          2   -1    0    0  501    0  0.00000000000E+00 -0.00000000000E+00 -0.17262228035E+02  0.17262228035E+02  0.00000000000E+00 0. -1.
         23    2    1    2    0    0  0.00000000000E+00  0.00000000000E+00  0.96758619392E+02  0.13128307546E+03  0.88730014517E+02 0.  0.
        -11    1    3    3    0    0  0.35661566354E+02 -0.17212058411E+02  0.18778422527E+02  0.43825009095E+02  0.00000000000E+00 0. -1.
         11    1    3    3    0    0 -0.35661566354E+02  0.17212058411E+02  0.77980196865E+02  0.87458066367E+02  0.00000000000E+00 0.  1.
<mgrwt>
<rscale>  0 0.88730015E+02</rscale>
<asrwt>0</asrwt>
<pdfrwt beam="2">  1        2 0.26557275E-02 0.88730015E+02</pdfrwt>
<pdfrwt beam="1">  1       -2 0.17541668E-01 0.88730015E+02</pdfrwt>
<totfact> 0.82057159E+04</totfact>
</mgrwt>
</event>
<event>
 5    1  0.1256986E+001  0.1005507E+03  0.7546771E-02  0.1279142E+00
          3   -1    0    0  501    0  0.00000000000E+00  0.00000000000E+00  0.23097866618E+02  0.23097866618E+02  0.00000000000E+00 0. -1.
         -3   -1    0    0    0  501 -0.00000000000E+00 -0.00000000000E+00 -0.10943044473E+03  0.10943044473E+03  0.00000000000E+00 0.  1.
         23    2    1    2    0    0  0.00000000000E+00  0.00000000000E+00 -0.86332578114E+02  0.13252831135E+03  0.10055068009E+03 0.  0.
        -13    1    3    3    0    0 -0.21986941617E+02 -0.15340448961E+02  0.12890150527E+02  0.29747452943E+02  0.00000000000E+00 0. -1.
         13    1    3    3    0    0  0.21986941617E+02  0.15340448961E+02 -0.99222728641E+02  0.10278085841E+03  0.00000000000E+00 0.  1.
<mgrwt>
<rscale>  0 0.10055068E+03</rscale>
<asrwt>0</asrwt>
<pdfrwt beam="1">  1        3 0.35535181E-02 0.10055068E+03</pdfrwt>
<pdfrwt beam="2">  1       -3 0.16835453E-01 0.10055068E+03</pdfrwt>
<totfact> 0.24809427E+04</totfact>
</mgrwt>
</event>
<event>
 5    1  0.1256986E+001  0.9576748E+02  0.7546771E-02  0.1289457E+00
          1   -1    0    0  501    0  0.00000000000E+00  0.00000000000E+00  0.52500809774E+02  0.52500809774E+02  0.00000000000E+00 0. -1.
         -1   -1    0    0    0  501 -0.00000000000E+00 -0.00000000000E+00 -0.43672710526E+02  0.43672710526E+02  0.00000000000E+00 0.  1.
         23    2    1    2    0    0  0.00000000000E+00  0.00000000000E+00  0.88280992488E+01  0.96173520300E+02  0.95767482323E+02 0.  0.
        -11    1    3    3    0    0  0.22603546550E+02 -0.38794542136E+02 -0.12297293303E+02  0.46552768325E+02  0.00000000000E+00 0.  1.
         11    1    3    3    0    0 -0.22603546550E+02  0.38794542136E+02  0.21125392551E+02  0.49620751975E+02  0.00000000000E+00 0. -1.
<mgrwt>
<rscale>  0 0.95767482E+02</rscale>
<asrwt>0</asrwt>
<pdfrwt beam="1">  1        1 0.80770476E-02 0.95767482E+02</pdfrwt>
<pdfrwt beam="2">  1       -1 0.67188786E-02 0.95767482E+02</pdfrwt>
<totfact> 0.82305704E+04</totfact>
</mgrwt>
</event>
<event>
 5    1  0.1256986E+001  0.9047843E+02  0.7546771E-02  0.1301697E+00
         -1   -1    0    0    0  501 -0.00000000000E+00  0.00000000000E+00  0.21837063128E+03  0.21837063128E+03  0.00000000000E+00 0.  1.
          1   -1    0    0  501    0  0.00000000000E+00 -0.00000000000E+00 -0.93720785543E+01  0.93720785543E+01  0.00000000000E+00 0. -1.
         23    2    1    2    0    0  0.00000000000E+00  0.00000000000E+00  0.20899855273E+03  0.22774270983E+03  0.90478433017E+02 0.  0.
        -13    1    3    3    0    0 -0.29479606545E+02  0.11531610504E+02  0.23147617348E+02  0.39215270389E+02  0.00000000000E+00 0. -1.
         13    1    3    3    0    0  0.29479606545E+02 -0.11531610504E+02  0.18585093538E+03  0.18852743945E+03  0.00000000000E+00 0.  1.
<mgrwt>
<rscale>  0 0.90478433E+02</rscale>
<asrwt>0</asrwt>
<pdfrwt beam="2">  1        1 0.14418584E-02 0.90478433E+02</pdfrwt>
<pdfrwt beam="1">  1       -1 0.33595478E-01 0.90478433E+02</pdfrwt>
<totfact> 0.69014209E+04</totfact>
</mgrwt>
</event>
<event>
 5    1  0.1256986E+001  0.9127140E+02  0.7546771E-02  0.1299802E+00
          2   -1    0    0  501    0  0.00000000000E+00  0.00000000000E+00  0.11859765410E+03  0.11859765410E+03  0.00000000000E+00 0. -1.
         -2   -1    0    0    0  501 -0.00000000000E+00 -0.00000000000E+00 -0.17560356120E+02  0.17560356120E+02  0.00000000000E+00 0.  1.
         23    2    1    2    0    0  0.00000000000E+00  0.00000000000E+00  0.10103729798E+03  0.13615801022E+03  0.91271398390E+02 0.  0.
        -11    1    3    3    0    0  0.34240262551E+02  0.17013190840E+02  0.13350166431E+02  0.40497792358E+02  0.00000000000E+00 0.  1.
         11    1    3    3    0    0 -0.34240262551E+02 -0.17013190840E+02  0.87687131554E+02  0.95660217867E+02  0.00000000000E+00 0. -1.
<mgrwt>
<rscale>  0 0.91271398E+02</rscale>
<asrwt>0</asrwt>
<pdfrwt beam="1">  1        2 0.18245792E-01 0.91271398E+02</pdfrwt>
<pdfrwt beam="2">  1       -2 0.27015933E-02 0.91271398E+02</pdfrwt>
<totfact> 0.12901037E+05</totfact>
</mgrwt>
</event>
<event>
 5    1  0.1256986E+001  0.9182736E+02  0.7546771E-02  0.1298486E+00
         -2   -1    0    0    0  501 -0.00000000000E+00  0.00000000000E+00  0.38136419844E+02  0.38136419844E+02  0.00000000000E+00 0.  1.
          2   -1    0    0  501    0  0.00000000000E+00 -0.00000000000E+00 -0.55276972192E+02  0.55276972192E+02  0.00000000000E+00 0. -1.
         23    2    1    2    0    0  0.00000000000E+00  0.00000000000E+00 -0.17140552348E+02  0.93413392036E+02  0.91827355820E+02 0.  0.
        -11    1    3    3    0    0 -0.15545007113E+02 -0.40100326883E+02  0.77816339484E+01  0.43706261441E+02  0.00000000000E+00 0.  1.
         11    1    3    3    0    0  0.15545007113E+02  0.40100326883E+02 -0.24922186296E+02  0.49707130595E+02  0.00000000000E+00 0. -1.
<mgrwt>
<rscale>  0 0.91827356E+02</rscale>
<asrwt>0</asrwt>
<pdfrwt beam="2">  1        2 0.85041496E-02 0.91827356E+02</pdfrwt>
<pdfrwt beam="1">  1       -2 0.58671415E-02 0.91827356E+02</pdfrwt>
<totfact> 0.10170496E+05</totfact>
</mgrwt>
</event>
<event>
 5    1  0.1256986E+001  0.1061326E+03  0.7546771E-02  0.1267904E+00
         -1   -1    0    0    0  501 -0.00000000000E+00  0.00000000000E+00  0.11641778627E+02  0.11641778627E+02  0.00000000000E+00 0.  1.
          1   -1    0    0  501    0  0.00000000000E+00 -0.00000000000E+00 -0.24189023213E+03  0.24189023213E+03  0.00000000000E+00 0. -1.
         23    2    1    2    0    0  0.00000000000E+00  0.00000000000E+00 -0.23024845350E+03  0.25353201076E+03  0.10613260638E+03 0.  0.
        -13    1    3    3    0    0 -0.14921513724E+02  0.48288002826E+02 -0.76483602883E+02  0.91674011032E+02  0.00000000000E+00 0.  1.
         13    1    3    3    0    0  0.14921513724E+02 -0.48288002826E+02 -0.15376485062E+03  0.16185799973E+03  0.00000000000E+00 0. -1.
<mgrwt>
<rscale>  0 0.10613261E+03</rscale>
<asrwt>0</asrwt>
<pdfrwt beam="2">  1        1 0.37213881E-01 0.10613261E+03</pdfrwt>
<pdfrwt beam="1">  1       -1 0.17910429E-02 0.10613261E+03</pdfrwt>
<totfact> 0.81590322E+04</totfact>
</mgrwt>
</event>
<event>
 5    1  0.1256986E+001  0.9063483E+02  0.7546771E-02  0.1301322E+00
         -1   -1    0    0    0  501 -0.00000000000E+00  0.00000000000E+00  0.11529115158E+03  0.11529115158E+03  0.00000000000E+00 0.  1.
          1   -1    0    0  501    0  0.00000000000E+00 -0.00000000000E+00 -0.17812887100E+02  0.17812887100E+02  0.00000000000E+00 0. -1.
         23    2    1    2    0    0  0.00000000000E+00  0.00000000000E+00  0.97478264483E+02  0.13310403868E+03  0.90634833630E+02 0.  0.
        -11    1    3    3    0    0 -0.28982921046E+02 -0.17460140824E+02  0.93011294870E+02  0.98974578572E+02  0.00000000000E+00 0.  1.
         11    1    3    3    0    0  0.28982921046E+02  0.17460140824E+02  0.44669696126E+01  0.34129460111E+02  0.00000000000E+00 0. -1.
<mgrwt>
<rscale>  0 0.90634834E+02</rscale>
<asrwt>0</asrwt>
<pdfrwt beam="2">  1        1 0.27404442E-02 0.90634834E+02</pdfrwt>
<pdfrwt beam="1">  1       -1 0.17737100E-01 0.90634834E+02</pdfrwt>
<totfact> 0.80397071E+04</totfact>
</mgrwt>
</event>
<event>
 5    1  0.1256986E+001  0.9174840E+02  0.7546771E-02  0.1298672E+00
          1   -1    0    0  501    0  0.00000000000E+00  0.00000000000E+00  0.53015968343E+02  0.53015968343E+02  0.00000000000E+00 0. -1.
         -1   -1    0    0    0  501 -0.00000000000E+00 -0.00000000000E+00 -0.39694501177E+02  0.39694501177E+02  0.00000000000E+00 0.  1.
         23    2    1    2    0    0  0.00000000000E+00  0.00000000000E+00  0.13321467165E+02  0.92710469520E+02  0.91748404189E+02 0.  0.
        -13    1    3    3    0    0  0.18961884642E+02  0.41026459458E+02  0.14599254739E+02  0.47495912285E+02  0.00000000000E+00 0. -1.
         13    1    3    3    0    0 -0.18961884642E+02 -0.41026459458E+02 -0.12777875738E+01  0.45214557235E+02  0.00000000000E+00 0.  1.
<mgrwt>
<rscale>  0 0.91748404E+02</rscale>
<asrwt>0</asrwt>
<pdfrwt beam="1">  1        1 0.81563029E-02 0.91748404E+02</pdfrwt>
<pdfrwt beam="2">  1       -1 0.61068463E-02 0.91748404E+02</pdfrwt>
<totfact> 0.92955752E+04</totfact>
</mgrwt>
</event>
<event>
 5    1  0.1256986E+001  0.8950212E+02  0.7546771E-02  0.1304062E+00
         -1   -1    0    0    0  501 -0.00000000000E+00  0.00000000000E+00  0.60662751671E+01  0.60662751671E+01  0.00000000000E+00 0.  1.
          1   -1    0    0  501    0  0.00000000000E+00 -0.00000000000E+00 -0.33012969125E+03  0.33012969125E+03  0.00000000000E+00 0. -1.
         23    2    1    2    0    0  0.00000000000E+00  0.00000000000E+00 -0.32406341608E+03  0.33619596642E+03  0.89502123951E+02 0.  0.
        -11    1    3    3    0    0  0.35679606523E+02 -0.26268051114E+02 -0.13839012942E+03  0.14530957557E+03  0.00000000000E+00 0.  1.
         11    1    3    3    0    0 -0.35679606523E+02  0.26268051114E+02 -0.18567328666E+03  0.19088639085E+03  0.00000000000E+00 0. -1.
<mgrwt>
<rscale>  0 0.89502124E+02</rscale>
<asrwt>0</asrwt>
<pdfrwt beam="2">  1        1 0.50789175E-01 0.89502124E+02</pdfrwt>
<pdfrwt beam="1">  1       -1 0.93327326E-03 0.89502124E+02</pdfrwt>
<totfact> 0.13702929E+05</totfact>
</mgrwt>
</event>
<event>
 5    1  0.1256986E+001  0.9187596E+02  0.7546771E-02  0.1298371E+00
         -1   -1    0    0    0  501 -0.00000000000E+00  0.00000000000E+00  0.13031031913E+02  0.13031031913E+02  0.00000000000E+00 0.  1.
          1   -1    0    0  501    0  0.00000000000E+00 -0.00000000000E+00 -0.16194403809E+03  0.16194403809E+03  0.00000000000E+00 0. -1.
         23    2    1    2    0    0  0.00000000000E+00  0.00000000000E+00 -0.14891300618E+03  0.17497507000E+03  0.91875958301E+02 0.  0.
        -13    1    3    3    0    0 -0.31579921871E+01  0.45808645233E+02 -0.77076819284E+02  0.89717562181E+02  0.00000000000E+00 0.  1.
         13    1    3    3    0    0  0.31579921871E+01 -0.45808645233E+02 -0.71836186894E+02  0.85257507823E+02  0.00000000000E+00 0. -1.
<mgrwt>
<rscale>  0 0.91875958E+02</rscale>
<asrwt>0</asrwt>
<pdfrwt beam="2">  1        1 0.24914469E-01 0.91875958E+02</pdfrwt>
<pdfrwt beam="1">  1       -1 0.20047740E-02 0.91875958E+02</pdfrwt>
<totfact> 0.11141723E+05</totfact>
</mgrwt>
</event>
<event>
 5    1  0.1256986E+001  0.9262401E+02  0.7546771E-02  0.1296619E+00
          2   -1    0    0  501    0  0.00000000000E+00  0.00000000000E+00  0.18635093340E+02  0.18635093340E+02  0.00000000000E+00 0. -1.
         -2   -1    0    0    0  501 -0.00000000000E+00 -0.00000000000E+00 -0.11509478020E+03  0.11509478020E+03  0.00000000000E+00 0.  1.
         23    2    1    2    0    0  0.00000000000E+00  0.00000000000E+00 -0.96459686864E+02  0.13372987354E+03  0.92624013560E+02 0.  0.
        -11    1    3    3    0    0  0.43692877204E+02 -0.14958198633E+02 -0.53228525484E+02  0.70470498437E+02  0.00000000000E+00 0. -1.
         11    1    3    3    0    0 -0.43692877204E+02  0.14958198633E+02 -0.43231161380E+02  0.63259375107E+02  0.00000000000E+00 0.  1.
<mgrwt>
<rscale>  0 0.92624014E+02</rscale>
<asrwt>0</asrwt>
<pdfrwt beam="1">  1        2 0.28669375E-02 0.92624014E+02</pdfrwt>
<pdfrwt beam="2">  1       -2 0.17706889E-01 0.92624014E+02</pdfrwt>
<totfact> 0.73472401E+04</totfact>
</mgrwt>
</event>
<event>
 5    1  0.1256986E+001  0.9036602E+02  0.7546771E-02  0.1301968E+00
          1   -1    0    0  501    0  0.00000000000E+00  0.00000000000E+00  0.15575338983E+02  0.15575338983E+02  0.00000000000E+00 0. -1.
         -1   -1    0    0    0  501 -0.00000000000E+00 -0.00000000000E+00 -0.13107288441E+03  0.13107288441E+03  0.00000000000E+00 0.  1.
         23    2    1    2    0    0  0.00000000000E+00  0.00000000000E+00 -0.11549754543E+03  0.14664822339E+03  0.90366024724E+02 0.  0.
        -13    1    3    3    0    0  0.19972603520E+02 -0.25055588839E+02 -0.10944579565E+03  0.11403977205E+03  0.00000000000E+00 0.  1.
         13    1    3    3    0    0 -0.19972603520E+02  0.25055588839E+02 -0.60517497727E+01  0.32608451340E+02  0.00000000000E+00 0. -1.
<mgrwt>
<rscale>  0 0.90366025E+02</rscale>
<asrwt>0</asrwt>
<pdfrwt beam="1">  1        1 0.23962060E-02 0.90366025E+02</pdfrwt>
<pdfrwt beam="2">  1       -1 0.20165059E-01 0.90366025E+02</pdfrwt>
<totfact> 0.78890880E+04</totfact>
</mgrwt>
</event>
<event>
 5    1  0.1256986E+001  0.8951147E+02  0.7546771E-02  0.1304039E+00
         -1   -1    0    0    0  501 -0.00000000000E+00  0.00000000000E+00  0.11980266576E+02  0.11980266576E+02  0.00000000000E+00 0.  1.
          1   -1    0    0  501    0  0.00000000000E+00 -0.00000000000E+00 -0.16719794058E+03  0.16719794058E+03  0.00000000000E+00 0. -1.
         23    2    1    2    0    0  0.00000000000E+00  0.00000000000E+00 -0.15521767401E+03  0.17917820716E+03  0.89511471869E+02 0.  0.
        -11    1    3    3    0    0 -0.52744718459E+01 -0.27715261520E+02 -0.80613033211E+01  0.29341785658E+02  0.00000000000E+00 0.  1.
         11    1    3    3    0    0  0.52744718459E+01  0.27715261520E+02 -0.14715637068E+03  0.14983642150E+03  0.00000000000E+00 0. -1.
<mgrwt>
<rscale>  0 0.89511472E+02</rscale>
<asrwt>0</asrwt>
<pdfrwt beam="2">  1        1 0.25722760E-01 0.89511472E+02</pdfrwt>
<pdfrwt beam="1">  1       -1 0.18431179E-02 0.89511472E+02</pdfrwt>
<totfact> 0.12022636E+05</totfact>
</mgrwt>
</event>
<event>
 5    1  0.1256986E+001  0.9164422E+02  0.7546771E-02  0.1298918E+00
         -4   -1    0    0    0  501 -0.00000000000E+00  0.00000000000E+00  0.74234509808E+02  0.74234509808E+02  0.00000000000E+00 0.  1.
          4   -1    0    0  501    0  0.00000000000E+00 -0.00000000000E+00 -0.28284225989E+02  0.28284225989E+02  0.00000000000E+00 0. -1.
         23    2    1    2    0    0  0.00000000000E+00  0.00000000000E+00  0.45950283819E+02  0.10251873580E+03  0.91644217529E+02 0.  0.
        -11    1    3    3    0    0  0.34403834444E+02 -0.65676798212E+01  0.56025963847E+02  0.66073193261E+02  0.00000000000E+00 0.  1.
         11    1    3    3    0    0 -0.34403834444E+02  0.65676798212E+01 -0.10075680029E+02  0.36445542536E+02  0.00000000000E+00 0. -1.
<mgrwt>
<rscale>  0 0.91644218E+02</rscale>
<asrwt>0</asrwt>
<pdfrwt beam="2">  1        4 0.43514194E-02 0.91644218E+02</pdfrwt>
<pdfrwt beam="1">  1       -4 0.11420694E-01 0.91644218E+02</pdfrwt>
<totfact> 0.25940590E+04</totfact>
</mgrwt>
</event>
<event>
 5    1  0.1256986E+001  0.9316637E+02  0.7546771E-02  0.1295360E+00
          2   -1    0    0  501    0  0.00000000000E+00  0.00000000000E+00  0.50360323846E+03  0.50360323846E+03  0.00000000000E+00 0. -1.
         -2   -1    0    0    0  501 -0.00000000000E+00 -0.00000000000E+00 -0.43089341046E+01  0.43089341046E+01  0.00000000000E+00 0.  1.
         23    2    1    2    0    0  0.00000000000E+00  0.00000000000E+00  0.49929430436E+03  0.50791217257E+03  0.93166370959E+02 0.  0.
        -13    1    3    3    0    0 -0.44869284347E+02 -0.11952986455E+02  0.26994801689E+03  0.27391250133E+03  0.00000000000E+00 0.  1.
         13    1    3    3    0    0  0.44869284347E+02  0.11952986455E+02  0.22934628747E+03  0.23399967124E+03  0.00000000000E+00 0. -1.
<mgrwt>
<rscale>  0 0.93166371E+02</rscale>
<asrwt>0</asrwt>
<pdfrwt beam="1">  1        2 0.77477375E-01 0.93166371E+02</pdfrwt>
<pdfrwt beam="2">  1       -2 0.66291334E-03 0.93166371E+02</pdfrwt>
<totfact> 0.20398835E+05</totfact>
</mgrwt>
</event>
<event>
 5    1  0.1256986E+001  0.9027708E+02  0.7546771E-02  0.1302182E+00
          3   -1    0    0  501    0  0.00000000000E+00  0.00000000000E+00  0.22652040727E+02  0.22652040727E+02  0.00000000000E+00 0. -1.
         -3   -1    0    0    0  501 -0.00000000000E+00 -0.00000000000E+00 -0.89947209799E+02  0.89947209799E+02  0.00000000000E+00 0.  1.
         23    2    1    2    0    0  0.00000000000E+00  0.00000000000E+00 -0.67295169072E+02  0.11259925053E+03  0.90277081469E+02 0.  0.
        -13    1    3    3    0    0 -0.18976403933E+02  0.54270181388E+01  0.16984703981E+02  0.26039135958E+02  0.00000000000E+00 0. -1.
         13    1    3    3    0    0  0.18976403933E+02 -0.54270181388E+01 -0.84279873053E+02  0.86560114568E+02  0.00000000000E+00 0.  1.
<mgrwt>
<rscale>  0 0.90277081E+02</rscale>
<asrwt>0</asrwt>
<pdfrwt beam="1">  1        3 0.34849293E-02 0.90277081E+02</pdfrwt>
<pdfrwt beam="2">  1       -3 0.13838032E-01 0.90277081E+02</pdfrwt>
<totfact> 0.34682714E+04</totfact>
</mgrwt>
</event>
<event>
 5    1  0.1256986E+001  0.8680974E+02  0.7546771E-02  0.1310767E+00
          2   -1    0    0  501    0  0.00000000000E+00  0.00000000000E+00  0.44253716316E+02  0.44253716316E+02  0.00000000000E+00 0. -1.
         -2   -1    0    0    0  501 -0.00000000000E+00 -0.00000000000E+00 -0.42572305127E+02  0.42572305127E+02  0.00000000000E+00 0.  1.
         23    2    1    2    0    0  0.00000000000E+00  0.00000000000E+00  0.16814111898E+01  0.86826021443E+02  0.86809739408E+02 0.  0.
        -11    1    3    3    0    0 -0.94620496172E+01  0.39726534684E+02 -0.13867656045E+02  0.43128179015E+02  0.00000000000E+00 0.  1.
         11    1    3    3    0    0  0.94620496172E+01 -0.39726534684E+02  0.15549067234E+02  0.43697842428E+02  0.00000000000E+00 0. -1.
<mgrwt>
<rscale>  0 0.86809739E+02</rscale>
<asrwt>0</asrwt>
<pdfrwt beam="1">  1        2 0.68082640E-02 0.86809739E+02</pdfrwt>
<pdfrwt beam="2">  1       -2 0.65495855E-02 0.86809739E+02</pdfrwt>
<totfact> 0.11266772E+05</totfact>
</mgrwt>
</event>
<event>
 5    1  0.1256986E+001  0.9321408E+02  0.7546771E-02  0.1295250E+00
         -1   -1    0    0    0  501 -0.00000000000E+00  0.00000000000E+00  0.19282881883E+02  0.19282881883E+02  0.00000000000E+00 0.  1.
          1   -1    0    0  501    0  0.00000000000E+00 -0.00000000000E+00 -0.11264997304E+03  0.11264997304E+03  0.00000000000E+00 0. -1.
         23    2    1    2    0    0  0.00000000000E+00  0.00000000000E+00 -0.93367091162E+02  0.13193285493E+03  0.93214078858E+02 0.  0.
        -11    1    3    3    0    0 -0.23142639487E+02 -0.30270179868E+02 -0.86958104702E+01  0.39083022803E+02  0.00000000000E+00 0.  1.
         11    1    3    3    0    0  0.23142639487E+02  0.30270179868E+02 -0.84671280692E+02  0.92849832125E+02  0.00000000000E+00 0. -1.
<mgrwt>
<rscale>  0 0.93214079E+02</rscale>
<asrwt>0</asrwt>
<pdfrwt beam="2">  1        1 0.17330766E-01 0.93214079E+02</pdfrwt>
<pdfrwt beam="1">  1       -1 0.29665971E-02 0.93214079E+02</pdfrwt>
<totfact> 0.10034798E+05</totfact>
</mgrwt>
</event>
<event>
 5    1  0.1256986E+001  0.9210775E+02  0.7546771E-02  0.1297826E+00
          1   -1    0    0  501    0  0.00000000000E+00  0.00000000000E+00  0.13289853195E+03  0.13289853195E+03  0.00000000000E+00 0. -1.
         -1   -1    0    0    0  501 -0.00000000000E+00 -0.00000000000E+00 -0.15959239554E+02  0.15959239554E+02  0.00000000000E+00 0.  1.
         23    2    1    2    0    0  0.00000000000E+00  0.00000000000E+00  0.11693929239E+03  0.14885777150E+03  0.92107752286E+02 0.  0.
        -13    1    3    3    0    0 -0.31926048124E+02 -0.12605189737E+02  0.88465076320E+01  0.35446072482E+02  0.00000000000E+00 0.  1.
         13    1    3    3    0    0  0.31926048124E+02  0.12605189737E+02  0.10809278476E+03  0.11341169902E+03  0.00000000000E+00 0. -1.
<mgrwt>
<rscale>  0 0.92107752E+02</rscale>
<asrwt>0</asrwt>
<pdfrwt beam="1">  1        1 0.20445927E-01 0.92107752E+02</pdfrwt>
<pdfrwt beam="2">  1       -1 0.24552677E-02 0.92107752E+02</pdfrwt>
<totfact> 0.10671976E+05</totfact>
</mgrwt>
</event>
<event>
 5    1  0.1256986E+001  0.9145565E+02  0.7546771E-02  0.1299364E+00
         -3   -1    0    0    0  501 -0.00000000000E+00  0.00000000000E+00  0.29017896846E+02  0.29017896846E+02  0.00000000000E+00 0.  1.
          3   -1    0    0  501    0  0.00000000000E+00 -0.00000000000E+00 -0.72060154169E+02  0.72060154169E+02  0.00000000000E+00 0. -1.
         23    2    1    2    0    0  0.00000000000E+00  0.00000000000E+00 -0.43042257322E+02  0.10107805102E+03  0.91455653087E+02 0.  0.
        -13    1    3    3    0    0 -0.16196412814E+02  0.27369505699E+02  0.14793521364E+02  0.35075089517E+02  0.00000000000E+00 0.  1.
         13    1    3    3    0    0  0.16196412814E+02 -0.27369505699E+02 -0.57835778686E+02  0.66002961498E+02  0.00000000000E+00 0. -1.
<mgrwt>
<rscale>  0 0.91455653E+02</rscale>
<asrwt>0</asrwt>
<pdfrwt beam="2">  1        3 0.11086177E-01 0.91455653E+02</pdfrwt>
<pdfrwt beam="1">  1       -3 0.44642919E-02 0.91455653E+02</pdfrwt>
<totfact> 0.34304527E+04</totfact>
</mgrwt>
</event>
<event>
 5    1  0.1256986E+001  0.9024053E+02  0.7546771E-02  0.1302270E+00
          2   -1    0    0  501    0  0.00000000000E+00  0.00000000000E+00  0.18654193741E+03  0.18654193741E+03  0.00000000000E+00 0. -1.
         -2   -1    0    0    0  501 -0.00000000000E+00 -0.00000000000E+00 -0.10913568707E+02  0.10913568707E+02  0.00000000000E+00 0.  1.
         23    2    1    2    0    0  0.00000000000E+00  0.00000000000E+00  0.17562836871E+03  0.19745550612E+03  0.90240528604E+02 0.  0.
        -11    1    3    3    0    0  0.32272828850E+02  0.28605014529E+02  0.11684725196E+03  0.12455144571E+03  0.00000000000E+00 0. -1.
         11    1    3    3    0    0 -0.32272828850E+02 -0.28605014529E+02  0.58781116747E+02  0.72904060409E+02  0.00000000000E+00 0.  1.
<mgrwt>
<rscale>  0 0.90240529E+02</rscale>
<asrwt>0</asrwt>
<pdfrwt beam="1">  1        2 0.28698757E-01 0.90240529E+02</pdfrwt>
<pdfrwt beam="2">  1       -2 0.16790107E-02 0.90240529E+02</pdfrwt>
<totfact> 0.15510684E+05</totfact>
</mgrwt>
</event>
<event>
 5    1  0.1256986E+001  0.8434353E+02  0.7546771E-02  0.1317158E+00
         -2   -1    0    0    0  501 -0.00000000000E+00  0.00000000000E+00  0.39724901091E+02  0.39724901091E+02  0.00000000000E+00 0.  1.
          2   -1    0    0  501    0  0.00000000000E+00 -0.00000000000E+00 -0.44769347373E+02  0.44769347373E+02  0.00000000000E+00 0. -1.
         23    2    1    2    0    0  0.00000000000E+00  0.00000000000E+00 -0.50444462824E+01  0.84494248464E+02  0.84343533156E+02 0.  0.
        -13    1    3    3    0    0  0.14908943619E+02  0.19415029943E+02  0.31879173434E+02  0.40193303999E+02  0.00000000000E+00 0.  1.
         13    1    3    3    0    0 -0.14908943619E+02 -0.19415029943E+02 -0.36923619716E+02  0.44300944465E+02  0.00000000000E+00 0. -1.
<mgrwt>
<rscale>  0 0.84343533E+02</rscale>
<asrwt>0</asrwt>
<pdfrwt beam="2">  1        2 0.68875919E-02 0.84343533E+02</pdfrwt>
<pdfrwt beam="1">  1       -2 0.61115232E-02 0.84343533E+02</pdfrwt>
<totfact> 0.12261445E+05</totfact>
</mgrwt>
</event>
<event>
 5    1  0.1256986E+001  0.9149161E+02  0.7546771E-02  0.1299279E+00
          1   -1    0    0  501    0  0.00000000000E+00  0.00000000000E+00  0.39214785268E+02  0.39214785268E+02  0.00000000000E+00 0. -1.
         -1   -1    0    0    0  501 -0.00000000000E+00 -0.00000000000E+00 -0.53364535698E+02  0.53364535698E+02  0.00000000000E+00 0.  1.
         23    2    1    2    0    0  0.00000000000E+00  0.00000000000E+00 -0.14149750430E+02  0.92579320965E+02  0.91491612912E+02 0.  0.
        -11    1    3    3    0    0 -0.28735427167E+02 -0.26078405127E+01  0.28845790829E+02  0.40799574203E+02  0.00000000000E+00 0. -1.
         11    1    3    3    0    0  0.28735427167E+02  0.26078405127E+01 -0.42995541259E+02  0.51779746762E+02  0.00000000000E+00 0.  1.
<mgrwt>
<rscale>  0 0.91491613E+02</rscale>
<asrwt>0</asrwt>
<pdfrwt beam="1">  1        1 0.60330439E-02 0.91491613E+02</pdfrwt>
<pdfrwt beam="2">  1       -1 0.82099286E-02 0.91491613E+02</pdfrwt>
<totfact> 0.89512855E+04</totfact>
</mgrwt>
</event>
<event>
 5    1  0.1256986E+001  0.9316059E+02  0.7546771E-02  0.1295373E+00
          2   -1    0    0  501    0  0.00000000000E+00  0.00000000000E+00  0.23404800432E+03  0.23404800432E+03  0.00000000000E+00 0. -1.
         -2   -1    0    0    0  501 -0.00000000000E+00 -0.00000000000E+00 -0.92704221735E+01  0.92704221735E+01  0.00000000000E+00 0.  1.
         23    2    1    2    0    0  0.00000000000E+00  0.00000000000E+00  0.22477758215E+03  0.24331842650E+03  0.93160588425E+02 0.  0.
        -13    1    3    3    0    0  0.41123851375E+02 -0.20637636289E+02  0.13133853286E+03  0.13916498625E+03  0.00000000000E+00 0.  1.
         13    1    3    3    0    0 -0.41123851375E+02  0.20637636289E+02  0.93439049289E+02  0.10415344025E+03  0.00000000000E+00 0. -1.
<mgrwt>
<rscale>  0 0.93160588E+02</rscale>
<asrwt>0</asrwt>
<pdfrwt beam="1">  1        2 0.36007381E-01 0.93160588E+02</pdfrwt>
<pdfrwt beam="2">  1       -2 0.14262190E-02 0.93160588E+02</pdfrwt>
<totfact> 0.15461590E+05</totfact>
</mgrwt>
</event>
<event>
 5    1  0.1256986E+001  0.8896502E+02  0.7546771E-02  0.1305378E+00
          1   -1    0    0  501    0  0.00000000000E+00  0.00000000000E+00  0.30974385949E+03  0.30974385949E+03  0.00000000000E+00 0. -1.
         -1   -1    0    0    0  501 -0.00000000000E+00 -0.00000000000E+00 -0.63881615740E+01  0.63881615740E+01  0.00000000000E+00 0.  1.
         23    2    1    2    0    0  0.00000000000E+00  0.00000000000E+00  0.30335569791E+03  0.31613202106E+03  0.88965022812E+02 0.  0.
        -13    1    3    3    0    0  0.38956914192E+01  0.44195360724E+02  0.14028049297E+03  0.14712927319E+03  0.00000000000E+00 0.  1.
         13    1    3    3    0    0 -0.38956914192E+01 -0.44195360724E+02  0.16307520494E+03  0.16900274787E+03  0.00000000000E+00 0. -1.
<mgrwt>
<rscale>  0 0.88965023E+02</rscale>
<asrwt>0</asrwt>
<pdfrwt beam="1">  1        1 0.47652890E-01 0.88965023E+02</pdfrwt>
<pdfrwt beam="2">  1       -1 0.98279433E-03 0.88965023E+02</pdfrwt>
<totfact> 0.13759798E+05</totfact>
</mgrwt>
</event>
<event>
 5    1  0.1256986E+001  0.9481719E+02  0.7546771E-02  0.1291588E+00
         -2   -1    0    0    0  501 -0.00000000000E+00  0.00000000000E+00  0.20489417804E+03  0.20489417804E+03  0.00000000000E+00 0.  1.
          2   -1    0    0  501    0  0.00000000000E+00 -0.00000000000E+00 -0.10969442421E+02  0.10969442421E+02  0.00000000000E+00 0. -1.
         23    2    1    2    0    0  0.00000000000E+00  0.00000000000E+00  0.19392473561E+03  0.21586362046E+03  0.94817190181E+02 0.  0.
        -11    1    3    3    0    0 -0.32480862178E+02 -0.10294508261E+02  0.17200802121E+03  0.17535034265E+03  0.00000000000E+00 0.  1.
         11    1    3    3    0    0  0.32480862178E+02  0.10294508261E+02  0.21916714407E+02  0.40513277806E+02  0.00000000000E+00 0. -1.
<mgrwt>
<rscale>  0 0.94817190E+02</rscale>
<asrwt>0</asrwt>
<pdfrwt beam="2">  1        2 0.16876067E-02 0.94817190E+02</pdfrwt>
<pdfrwt beam="1">  1       -2 0.31522178E-01 0.94817190E+02</pdfrwt>
<totfact> 0.55787844E+04</totfact>
</mgrwt>
</event>
<event>
 5    1  0.1256986E+001  0.9067380E+02  0.7546771E-02  0.1301228E+00
          4   -1    0    0  501    0  0.00000000000E+00  0.00000000000E+00  0.16766701586E+02  0.16766701586E+02  0.00000000000E+00 0. -1.
         -4   -1    0    0    0  501 -0.00000000000E+00 -0.00000000000E+00 -0.12259027290E+03  0.12259027290E+03  0.00000000000E+00 0.  1.
         23    2    1    2    0    0  0.00000000000E+00  0.00000000000E+00 -0.10582357131E+03  0.13935697448E+03  0.90673800471E+02 0.  0.
        -11    1    3    3    0    0 -0.18207364021E+02 -0.23093824362E+02  0.11925361030E+00  0.29408281991E+02  0.00000000000E+00 0. -1.
         11    1    3    3    0    0  0.18207364021E+02  0.23093824362E+02 -0.10594282492E+03  0.10994869249E+03  0.00000000000E+00 0.  1.
<mgrwt>
<rscale>  0 0.90673800E+02</rscale>
<asrwt>0</asrwt>
<pdfrwt beam="1">  1        4 0.25794924E-02 0.90673800E+02</pdfrwt>
<pdfrwt beam="2">  1       -4 0.18860043E-01 0.90673800E+02</pdfrwt>
<totfact> 0.24582145E+04</totfact>
</mgrwt>
</event>
<event>
 5    1  0.1256986E+001  0.9026223E+02  0.7546771E-02  0.1302218E+00
          2   -1    0    0  501    0  0.00000000000E+00  0.00000000000E+00  0.96270984290E+01  0.96270984290E+01  0.00000000000E+00 0. -1.
         -2   -1    0    0    0  501 -0.00000000000E+00 -0.00000000000E+00 -0.21157130220E+03  0.21157130220E+03  0.00000000000E+00 0.  1.
         23    2    1    2    0    0  0.00000000000E+00  0.00000000000E+00 -0.20194420377E+03  0.22119840063E+03  0.90262234651E+02 0.  0.
        -11    1    3    3    0    0 -0.25988400837E+02 -0.18349280392E+02 -0.22524531107E+02  0.38980091977E+02  0.00000000000E+00 0. -1.
         11    1    3    3    0    0  0.25988400837E+02  0.18349280392E+02 -0.17941967267E+03  0.18221830865E+03  0.00000000000E+00 0.  1.
<mgrwt>
<rscale>  0 0.90262235E+02</rscale>
<asrwt>0</asrwt>
<pdfrwt beam="1">  1        2 0.14810922E-02 0.90262235E+02</pdfrwt>
<pdfrwt beam="2">  1       -2 0.32549429E-01 0.90262235E+02</pdfrwt>
<totfact> 0.62380094E+04</totfact>
</mgrwt>
</event>
<event>
 5    1  0.1256986E+001  0.8893735E+02  0.7546771E-02  0.1305446E+00
          2   -1    0    0  501    0  0.00000000000E+00  0.00000000000E+00  0.74346046806E+02  0.74346046806E+02  0.00000000000E+00 0. -1.
         -2   -1    0    0    0  501 -0.00000000000E+00 -0.00000000000E+00 -0.26598095147E+02  0.26598095147E+02  0.00000000000E+00 0.  1.
         23    2    1    2    0    0  0.00000000000E+00  0.00000000000E+00  0.47747951658E+02  0.10094414195E+03  0.88937353834E+02 0.  0.
        -11    1    3    3    0    0  0.43996997020E+01 -0.18793605417E+02 -0.21595689039E+02  0.28964301253E+02  0.00000000000E+00 0.  1.
         11    1    3    3    0    0 -0.43996997020E+01  0.18793605417E+02  0.69343640697E+02  0.71979840700E+02  0.00000000000E+00 0. -1.
<mgrwt>
<rscale>  0 0.88937354E+02</rscale>
<asrwt>0</asrwt>
<pdfrwt beam="1">  1        2 0.11437853E-01 0.88937354E+02</pdfrwt>
<pdfrwt beam="2">  1       -2 0.40920147E-02 0.88937354E+02</pdfrwt>
<totfact> 0.12054992E+05</totfact>
</mgrwt>
</event>
<event>
 5    1  0.1256986E+001  0.9267990E+02  0.7546771E-02  0.1296489E+00
          1   -1    0    0  501    0  0.00000000000E+00  0.00000000000E+00  0.52189394868E+02  0.52189394868E+02  0.00000000000E+00 0. -1.
         -1   -1    0    0    0  501 -0.00000000000E+00 -0.00000000000E+00 -0.41146113947E+02  0.41146113947E+02  0.00000000000E+00 0.  1.
         23    2    1    2    0    0  0.00000000000E+00  0.00000000000E+00  0.11043280921E+02  0.93335508815E+02  0.92679896160E+02 0.  0.
        -13    1    3    3    0    0 -0.26417024343E+02  0.24116168116E+01 -0.32743402310E+02  0.42140306900E+02  0.00000000000E+00 0.  1.
         13    1    3    3    0    0  0.26417024343E+02 -0.24116168116E+01  0.43786683231E+02  0.51195201915E+02  0.00000000000E+00 0. -1.
<mgrwt>
<rscale>  0 0.92679896E+02</rscale>
<asrwt>0</asrwt>
<pdfrwt beam="1">  1        1 0.80291377E-02 0.92679896E+02</pdfrwt>
<pdfrwt beam="2">  1       -1 0.63301714E-02 0.92679896E+02</pdfrwt>
<totfact> 0.90151545E+04</totfact>
</mgrwt>
</event>
<event>
 5    1  0.1256986E+001  0.9181695E+02  0.7546771E-02  0.1298510E+00
          1   -1    0    0  501    0  0.00000000000E+00  0.00000000000E+00  0.30592067654E+02  0.30592067654E+02  0.00000000000E+00 0. -1.
         -1   -1    0    0    0  501 -0.00000000000E+00 -0.00000000000E+00 -0.68893290352E+02  0.68893290352E+02  0.00000000000E+00 0.  1.
         23    2    1    2    0    0  0.00000000000E+00  0.00000000000E+00 -0.38301222698E+02  0.99485358006E+02  0.91816952669E+02 0.  0.
        -11    1    3    3    0    0  0.40173463286E+02  0.75445725743E+01 -0.41794862104E+02  0.58460569840E+02  0.00000000000E+00 0. -1.
         11    1    3    3    0    0 -0.40173463286E+02 -0.75445725743E+01  0.34936394055E+01  0.41024788166E+02  0.00000000000E+00 0.  1.
<mgrwt>
<rscale>  0 0.91816953E+02</rscale>
<asrwt>0</asrwt>
<pdfrwt beam="1">  1        1 0.47064720E-02 0.91816953E+02</pdfrwt>
<pdfrwt beam="2">  1       -1 0.10598968E-01 0.91816953E+02</pdfrwt>
<totfact> 0.85227545E+04</totfact>
</mgrwt>
</event>
<event>
 5    1  0.1256986E+001  0.9251943E+02  0.7546771E-02  0.1296863E+00
          2   -1    0    0  501    0  0.00000000000E+00  0.00000000000E+00  0.98199707672E+02  0.98199707672E+02  0.00000000000E+00 0. -1.
         -2   -1    0    0    0  501 -0.00000000000E+00 -0.00000000000E+00 -0.21791930769E+02  0.21791930769E+02  0.00000000000E+00 0.  1.
         23    2    1    2    0    0  0.00000000000E+00  0.00000000000E+00  0.76407776903E+02  0.11999163844E+03  0.92519429983E+02 0.  0.
        -11    1    3    3    0    0  0.46013080760E+02  0.15291535475E+01  0.32343334506E+02  0.56263960032E+02  0.00000000000E+00 0. -1.
         11    1    3    3    0    0 -0.46013080760E+02 -0.15291535475E+01  0.44064442398E+02  0.63727678409E+02  0.00000000000E+00 0.  1.
<mgrwt>
<rscale>  0 0.92519430E+02</rscale>
<asrwt>0</asrwt>
<pdfrwt beam="1">  1        2 0.15107647E-01 0.92519430E+02</pdfrwt>
<pdfrwt beam="2">  1       -2 0.33526048E-02 0.92519430E+02</pdfrwt>
<totfact> 0.11717617E+05</totfact>
</mgrwt>
</event>
<event>
 5    1  0.1256986E+001  0.9098503E+02  0.7546771E-02  0.1300484E+00
          1   -1    0    0  501    0  0.00000000000E+00  0.00000000000E+00  0.20441454702E+03  0.20441454702E+03  0.00000000000E+00 0. -1.
         -1   -1    0    0    0  501 -0.00000000000E+00 -0.00000000000E+00 -0.10124372742E+02  0.10124372742E+02  0.00000000000E+00 0.  1.
         23    2    1    2    0    0  0.00000000000E+00  0.00000000000E+00  0.19429017428E+03  0.21453891976E+03  0.90985033228E+02 0.  0.
        -13    1    3    3    0    0  0.37067805345E+02  0.46791728577E+01  0.35944723457E+02  0.51845346909E+02  0.00000000000E+00 0.  1.
         13    1    3    3    0    0 -0.37067805345E+02 -0.46791728577E+01  0.15834545082E+03  0.16269357285E+03  0.00000000000E+00 0. -1.
<mgrwt>
<rscale>  0 0.90985033E+02</rscale>
<asrwt>0</asrwt>
<pdfrwt beam="1">  1        1 0.31448389E-01 0.90985033E+02</pdfrwt>
<pdfrwt beam="2">  1       -1 0.15575960E-02 0.90985033E+02</pdfrwt>
<totfact> 0.11958235E+05</totfact>
</mgrwt>
</event>
<event>
 5    1  0.1256986E+001  0.9194476E+02  0.7546771E-02  0.1298209E+00
          2   -1    0    0  501    0  0.00000000000E+00  0.00000000000E+00  0.17961429525E+03  0.17961429525E+03  0.00000000000E+00 0. -1.
         -2   -1    0    0    0  501 -0.00000000000E+00 -0.00000000000E+00 -0.11766656372E+02  0.11766656372E+02  0.00000000000E+00 0.  1.
         23    2    1    2    0    0  0.00000000000E+00  0.00000000000E+00  0.16784763888E+03  0.19138095162E+03  0.91944759323E+02 0.  0.
        -13    1    3    3    0    0 -0.36734078220E+02  0.22302954963E+02  0.49934789609E+02  0.65880934389E+02  0.00000000000E+00 0. -1.
         13    1    3    3    0    0  0.36734078220E+02 -0.22302954963E+02  0.11791284927E+03  0.12550001723E+03  0.00000000000E+00 0.  1.
<mgrwt>
<rscale>  0 0.91944759E+02</rscale>
<asrwt>0</asrwt>
<pdfrwt beam="1">  1        2 0.27632967E-01 0.91944759E+02</pdfrwt>
<pdfrwt beam="2">  1       -2 0.18102550E-02 0.91944759E+02</pdfrwt>
<totfact> 0.14549646E+05</totfact>
</mgrwt>
</event>
<event>
 5    1  0.1256986E+001  0.8997496E+02  0.7546771E-02  0.1302912E+00
         -3   -1    0    0    0  501 -0.00000000000E+00  0.00000000000E+00  0.16203407585E+02  0.16203407585E+02  0.00000000000E+00 0.  1.
          3   -1    0    0  501    0  0.00000000000E+00 -0.00000000000E+00 -0.12490417109E+03  0.12490417109E+03  0.00000000000E+00 0. -1.
         23    2    1    2    0    0  0.00000000000E+00  0.00000000000E+00 -0.10870076351E+03  0.14110757868E+03  0.89974956368E+02 0.  0.
        -11    1    3    3    0    0 -0.44558268453E+02  0.16081556624E+01 -0.63740252041E+02  0.77787178779E+02  0.00000000000E+00 0. -1.
         11    1    3    3    0    0  0.44558268453E+02 -0.16081556624E+01 -0.44960511467E+02  0.63320399900E+02  0.00000000000E+00 0.  1.
<mgrwt>
<rscale>  0 0.89974956E+02</rscale>
<asrwt>0</asrwt>
<pdfrwt beam="2">  1        3 0.19216026E-01 0.89974956E+02</pdfrwt>
<pdfrwt beam="1">  1       -3 0.24928320E-02 0.89974956E+02</pdfrwt>
<totfact> 0.33024081E+04</totfact>
</mgrwt>
</event>
<event>
 5    1  0.1256986E+001  0.9590578E+02  0.7546771E-02  0.1289149E+00
          2   -1    0    0  501    0  0.00000000000E+00  0.00000000000E+00  0.26110817494E+03  0.26110817494E+03  0.00000000000E+00 0. -1.
         -2   -1    0    0    0  501 -0.00000000000E+00 -0.00000000000E+00 -0.88066166498E+01  0.88066166498E+01  0.00000000000E+00 0.  1.
         23    2    1    2    0    0  0.00000000000E+00  0.00000000000E+00  0.25230155829E+03  0.26991479159E+03  0.95905778780E+02 0.  0.
        -11    1    3    3    0    0  0.34018515403E+02 -0.20815182671E+02  0.20108655639E+03  0.20500325456E+03  0.00000000000E+00 0. -1.
         11    1    3    3    0    0 -0.34018515403E+02  0.20815182671E+02  0.51215001900E+02  0.64911537029E+02  0.00000000000E+00 0.  1.
<mgrwt>
<rscale>  0 0.95905779E+02</rscale>
<asrwt>0</asrwt>
<pdfrwt beam="1">  1        2 0.40170483E-01 0.95905779E+02</pdfrwt>
<pdfrwt beam="2">  1       -2 0.13548643E-02 0.95905779E+02</pdfrwt>
<totfact> 0.14893577E+05</totfact>
</mgrwt>
</event>
<event>
 5    1  0.1256986E+001  0.8627649E+02  0.7546771E-02  0.1312128E+00
          1   -1    0    0  501    0  0.00000000000E+00  0.00000000000E+00  0.13712586583E+03  0.13712586583E+03  0.00000000000E+00 0. -1.
         -1   -1    0    0    0  501 -0.00000000000E+00 -0.00000000000E+00 -0.13570803359E+02  0.13570803359E+02  0.00000000000E+00 0.  1.
         23    2    1    2    0    0  0.00000000000E+00  0.00000000000E+00  0.12355506247E+03  0.15069666919E+03  0.86276489512E+02 0.  0.
        -11    1    3    3    0    0 -0.32784104550E+02  0.23340255387E+02  0.88912458143E+02  0.97596056507E+02  0.00000000000E+00 0. -1.
         11    1    3    3    0    0  0.32784104550E+02 -0.23340255387E+02  0.34642604331E+02  0.53100612685E+02  0.00000000000E+00 0.  1.
<mgrwt>
<rscale>  0 0.86276490E+02</rscale>
<asrwt>0</asrwt>
<pdfrwt beam="1">  1        1 0.21096286E-01 0.86276490E+02</pdfrwt>
<pdfrwt beam="2">  1       -1 0.20878160E-02 0.86276490E+02</pdfrwt>
<totfact> 0.12800804E+05</totfact>
</mgrwt>
</event>
<event>
 5    1  0.1256986E+001  0.9008234E+02  0.7546771E-02  0.1302652E+00
         -2   -1    0    0    0  501 -0.00000000000E+00  0.00000000000E+00  0.16439680587E+02  0.16439680587E+02  0.00000000000E+00 0.  1.
          2   -1    0    0  501    0  0.00000000000E+00 -0.00000000000E+00 -0.12340306628E+03  0.12340306628E+03  0.00000000000E+00 0. -1.
         23    2    1    2    0    0  0.00000000000E+00  0.00000000000E+00 -0.10696338569E+03  0.13984274687E+03  0.90082339958E+02 0.  0.
        -13    1    3    3    0    0 -0.30790471433E+02 -0.27959413439E+02 -0.26641758367E+02  0.49391955011E+02  0.00000000000E+00 0.  1.
         13    1    3    3    0    0  0.30790471433E+02  0.27959413439E+02 -0.80321627328E+02  0.90450791856E+02  0.00000000000E+00 0. -1.
<mgrwt>
<rscale>  0 0.90082340E+02</rscale>
<asrwt>0</asrwt>
<pdfrwt beam="2">  1        2 0.18985087E-01 0.90082340E+02</pdfrwt>
<pdfrwt beam="1">  1       -2 0.25291816E-02 0.90082340E+02</pdfrwt>
<totfact> 0.13542595E+05</totfact>
</mgrwt>
</event>
<event>
 5    1  0.1256986E+001  0.9210664E+02  0.7546771E-02  0.1297829E+00
          2   -1    0    0  501    0  0.00000000000E+00  0.00000000000E+00  0.90895934587E+02  0.90895934587E+02  0.00000000000E+00 0. -1.
         -2   -1    0    0    0  501 -0.00000000000E+00 -0.00000000000E+00 -0.23333368286E+02  0.23333368286E+02  0.00000000000E+00 0.  1.
         23    2    1    2    0    0  0.00000000000E+00  0.00000000000E+00  0.67562566300E+02  0.11422930287E+03  0.92106640748E+02 0.  0.
        -13    1    3    3    0    0 -0.20309841632E+02  0.33223614798E+02  0.32865897517E+01  0.39078125845E+02  0.00000000000E+00 0.  1.
         13    1    3    3    0    0  0.20309841632E+02 -0.33223614798E+02  0.64275976549E+02  0.75151177028E+02  0.00000000000E+00 0. -1.
<mgrwt>
<rscale>  0 0.92106641E+02</rscale>
<asrwt>0</asrwt>
<pdfrwt beam="1">  1        2 0.13983990E-01 0.92106641E+02</pdfrwt>
<pdfrwt beam="2">  1       -2 0.35897490E-02 0.92106641E+02</pdfrwt>
<totfact> 0.11590570E+05</totfact>
</mgrwt>
</event>
<event>
 5    1  0.1256986E+001  0.9555073E+02  0.7546771E-02  0.1289941E+00
          2   -1    0    0  501    0  0.00000000000E+00  0.00000000000E+00  0.86977158099E+02  0.86977158099E+02  0.00000000000E+00 0. -1.
         -2   -1    0    0    0  501 -0.00000000000E+00 -0.00000000000E+00 -0.26242353940E+02  0.26242353940E+02  0.00000000000E+00 0.  1.
         23    2    1    2    0    0  0.00000000000E+00  0.00000000000E+00  0.60734804160E+02  0.11321951204E+03  0.95550727208E+02 0.  0.
        -11    1    3    3    0    0  0.15300979714E+02  0.27807926846E+02  0.72678742209E+02  0.79307000604E+02  0.00000000000E+00 0. -1.
         11    1    3    3    0    0 -0.15300979714E+02 -0.27807926846E+02 -0.11943938049E+02  0.33912511435E+02  0.00000000000E+00 0.  1.
<mgrwt>
<rscale>  0 0.95550727E+02</rscale>
<asrwt>0</asrwt>
<pdfrwt beam="1">  1        2 0.13381101E-01 0.95550727E+02</pdfrwt>
<pdfrwt beam="2">  1       -2 0.40372853E-02 0.95550727E+02</pdfrwt>
<totfact> 0.10329149E+05</totfact>
</mgrwt>
</event>
<event>
 5    1  0.1256986E+001  0.9112831E+02  0.7546771E-02  0.1300142E+00
          3   -1    0    0  501    0  0.00000000000E+00  0.00000000000E+00  0.25420500165E+02  0.25420500165E+02  0.00000000000E+00 0. -1.
         -3   -1    0    0    0  501 -0.00000000000E+00 -0.00000000000E+00 -0.81670007020E+02  0.81670007020E+02  0.00000000000E+00 0.  1.
         23    2    1    2    0    0  0.00000000000E+00  0.00000000000E+00 -0.56249506855E+02  0.10709050719E+03  0.91128314523E+02 0.  0.
        -11    1    3    3    0    0 -0.40768162445E+02 -0.19808414573E+02 -0.22653486429E+02  0.50671459466E+02  0.00000000000E+00 0.  1.
         11    1    3    3    0    0  0.40768162445E+02  0.19808414573E+02 -0.33596020426E+02  0.56419047719E+02  0.00000000000E+00 0. -1.
<mgrwt>
<rscale>  0 0.91128315E+02</rscale>
<asrwt>0</asrwt>
<pdfrwt beam="1">  1        3 0.39108462E-02 0.91128315E+02</pdfrwt>
<pdfrwt beam="2">  1       -3 0.12564616E-01 0.91128315E+02</pdfrwt>
<totfact> 0.34204351E+04</totfact>
</mgrwt>
</event>
<event>
 5    1  0.1256986E+001  0.9081931E+02  0.7546771E-02  0.1300880E+00
         -1   -1    0    0    0  501 -0.00000000000E+00  0.00000000000E+00  0.29607746251E+03  0.29607746251E+03  0.00000000000E+00 0.  1.
          1   -1    0    0  501    0  0.00000000000E+00 -0.00000000000E+00 -0.69645177681E+01  0.69645177681E+01  0.00000000000E+00 0. -1.
         23    2    1    2    0    0  0.00000000000E+00  0.00000000000E+00  0.28911294474E+03  0.30304198027E+03  0.90819309584E+02 0.  0.
        -11    1    3    3    0    0 -0.32355165004E+02 -0.22799293957E+02  0.21882254064E+03  0.22237348943E+03  0.00000000000E+00 0.  1.
         11    1    3    3    0    0  0.32355165004E+02  0.22799293957E+02  0.70290404097E+02  0.80668490847E+02  0.00000000000E+00 0. -1.
<mgrwt>
<rscale>  0 0.90819310E+02</rscale>
<asrwt>0</asrwt>
<pdfrwt beam="2">  1        1 0.10714645E-02 0.90819310E+02</pdfrwt>
<pdfrwt beam="1">  1       -1 0.45550369E-01 0.90819310E+02</pdfrwt>
<totfact> 0.61528165E+04</totfact>
</mgrwt>
</event>
<event>
 5    1  0.1256986E+001  0.9192791E+02  0.7546771E-02  0.1298249E+00
          2   -1    0    0  501    0  0.00000000000E+00  0.00000000000E+00  0.15730348971E+03  0.15730348971E+03  0.00000000000E+00 0. -1.
         -2   -1    0    0    0  501 -0.00000000000E+00 -0.00000000000E+00 -0.13430630166E+02  0.13430630166E+02  0.00000000000E+00 0.  1.
         23    2    1    2    0    0  0.00000000000E+00  0.00000000000E+00  0.14387285954E+03  0.17073411987E+03  0.91927906406E+02 0.  0.
        -13    1    3    3    0    0  0.39166073564E+02  0.17516664314E+02  0.41313008298E+02  0.59561560605E+02  0.00000000000E+00 0.  1.
         13    1    3    3    0    0 -0.39166073564E+02 -0.17516664314E+02  0.10255985125E+03  0.11117255927E+03  0.00000000000E+00 0. -1.
<mgrwt>
<rscale>  0 0.91927906E+02</rscale>
<asrwt>0</asrwt>
<pdfrwt beam="1">  1        2 0.24200536E-01 0.91927906E+02</pdfrwt>
<pdfrwt beam="2">  1       -2 0.20662509E-02 0.91927906E+02</pdfrwt>
<totfact> 0.13897284E+05</totfact>
</mgrwt>
</event>
<event>
 5    1  0.1256986E+001  0.9095806E+02  0.7546771E-02  0.1300548E+00
          2   -1    0    0  501    0  0.00000000000E+00  0.00000000000E+00  0.74049244765E+01  0.74049244765E+01  0.00000000000E+00 0. -1.
         -2   -1    0    0    0  501 -0.00000000000E+00 -0.00000000000E+00 -0.27931982493E+03  0.27931982493E+03  0.00000000000E+00 0.  1.
         23    2    1    2    0    0  0.00000000000E+00  0.00000000000E+00 -0.27191490045E+03  0.28672474941E+03  0.90958060850E+02 0.  0.
        -13    1    3    3    0    0 -0.18297273551E+02 -0.35493465226E+02 -0.67344531352E+02  0.78293436482E+02  0.00000000000E+00 0. -1.
         13    1    3    3    0    0  0.18297273551E+02  0.35493465226E+02 -0.20457036910E+03  0.20843131292E+03  0.00000000000E+00 0.  1.
<mgrwt>
<rscale>  0 0.90958061E+02</rscale>
<asrwt>0</asrwt>
<pdfrwt beam="1">  1        2 0.11392192E-02 0.90958061E+02</pdfrwt>
<pdfrwt beam="2">  1       -2 0.42972280E-01 0.90958061E+02</pdfrwt>
<totfact> 0.53371324E+04</totfact>
</mgrwt>
</event>
<event>
 5    1  0.1256986E+001  0.9492320E+02  0.7546771E-02  0.1291349E+00
          1   -1    0    0  501    0  0.00000000000E+00  0.00000000000E+00  0.21068096157E+02  0.21068096157E+02  0.00000000000E+00 0. -1.
         -1   -1    0    0    0  501 -0.00000000000E+00 -0.00000000000E+00 -0.10692012773E+03  0.10692012773E+03  0.00000000000E+00 0.  1.
         23    2    1    2    0    0  0.00000000000E+00  0.00000000000E+00 -0.85852031574E+02  0.12798822389E+03  0.94923201213E+02 0.  0.
        -13    1    3    3    0    0 -0.47025604223E+02  0.16676377122E+01 -0.51282977584E+02  0.69599800704E+02  0.00000000000E+00 0.  1.
         13    1    3    3    0    0  0.47025604223E+02 -0.16676377122E+01 -0.34569053989E+02  0.58388423183E+02  0.00000000000E+00 0. -1.
<mgrwt>
<rscale>  0 0.94923201E+02</rscale>
<asrwt>0</asrwt>
<pdfrwt beam="1">  1        1 0.32412456E-02 0.94923201E+02</pdfrwt>
<pdfrwt beam="2">  1       -1 0.16449250E-01 0.94923201E+02</pdfrwt>
<totfact> 0.72410236E+04</totfact>
</mgrwt>
</event>
<event>
 5    1  0.1256986E+001  0.8856019E+02  0.7546771E-02  0.1306376E+00
         -3   -1    0    0    0  501 -0.00000000000E+00  0.00000000000E+00  0.41857925509E+02  0.41857925509E+02  0.00000000000E+00 0.  1.
          3   -1    0    0  501    0  0.00000000000E+00 -0.00000000000E+00 -0.46842423951E+02  0.46842423951E+02  0.00000000000E+00 0. -1.
         23    2    1    2    0    0  0.00000000000E+00  0.00000000000E+00 -0.49844984421E+01  0.88700349461E+02  0.88560187272E+02 0.  0.
        -11    1    3    3    0    0  0.14143200297E+02  0.37448553350E+02  0.16466587279E+02  0.43284786696E+02  0.00000000000E+00 0.  1.
         11    1    3    3    0    0 -0.14143200297E+02 -0.37448553350E+02 -0.21451085721E+02  0.45415562765E+02  0.00000000000E+00 0. -1.
<mgrwt>
<rscale>  0 0.88560187E+02</rscale>
<asrwt>0</asrwt>
<pdfrwt beam="2">  1        3 0.72065267E-02 0.88560187E+02</pdfrwt>
<pdfrwt beam="1">  1       -3 0.64396809E-02 0.88560187E+02</pdfrwt>
<totfact> 0.38455278E+04</totfact>
</mgrwt>
</event>
<event>
 5    1  0.1256986E+001  0.6864679E+02  0.7546771E-02  0.1364756E+00
          2   -1    0    0  501    0  0.00000000000E+00  0.00000000000E+00  0.16847280657E+02  0.16847280657E+02  0.00000000000E+00 0. -1.
         -2   -1    0    0    0  501 -0.00000000000E+00 -0.00000000000E+00 -0.69927936409E+02  0.69927936409E+02  0.00000000000E+00 0.  1.
         23    2    1    2    0    0  0.00000000000E+00  0.00000000000E+00 -0.53080655752E+02  0.86775217066E+02  0.68646793674E+02 0.  0.
        -11    1    3    3    0    0  0.14441144684E+02 -0.96634486955E+01  0.10876659349E+02  0.20499527289E+02  0.00000000000E+00 0. -1.
         11    1    3    3    0    0 -0.14441144684E+02  0.96634486955E+01 -0.63957315101E+02  0.66275689777E+02  0.00000000000E+00 0.  1.
<mgrwt>
<rscale>  0 0.68646794E+02</rscale>
<asrwt>0</asrwt>
<pdfrwt beam="1">  1        2 0.25918894E-02 0.68646794E+02</pdfrwt>
<pdfrwt beam="2">  1       -2 0.10758144E-01 0.68646794E+02</pdfrwt>
<totfact> 0.17666150E+05</totfact>
</mgrwt>
</event>
<event>
 5    1  0.1256986E+001  0.8992056E+02  0.7546771E-02  0.1303044E+00
         -3   -1    0    0    0  501 -0.00000000000E+00  0.00000000000E+00  0.79981677058E+02  0.79981677058E+02  0.00000000000E+00 0.  1.
          3   -1    0    0  501    0  0.00000000000E+00 -0.00000000000E+00 -0.25273625181E+02  0.25273625181E+02  0.00000000000E+00 0. -1.
         23    2    1    2    0    0  0.00000000000E+00  0.00000000000E+00  0.54708051878E+02  0.10525530224E+03  0.89920563328E+02 0.  0.
        -13    1    3    3    0    0  0.76964192875E+01 -0.41014050949E+02  0.77658159191E+01  0.42446379610E+02  0.00000000000E+00 0.  1.
         13    1    3    3    0    0 -0.76964192875E+01  0.41014050949E+02  0.46942235959E+02  0.62808922630E+02  0.00000000000E+00 0. -1.
<mgrwt>
<rscale>  0 0.89920563E+02</rscale>
<asrwt>0</asrwt>
<pdfrwt beam="2">  1        3 0.38882501E-02 0.89920563E+02</pdfrwt>
<pdfrwt beam="1">  1       -3 0.12304873E-01 0.89920563E+02</pdfrwt>
<totfact> 0.35603065E+04</totfact>
</mgrwt>
</event>
<event>
 5    1  0.1256986E+001  0.8794011E+02  0.7546771E-02  0.1307918E+00
          3   -1    0    0  501    0  0.00000000000E+00  0.00000000000E+00  0.52504860619E+02  0.52504860619E+02  0.00000000000E+00 0. -1.
         -3   -1    0    0    0  501 -0.00000000000E+00 -0.00000000000E+00 -0.36822608062E+02  0.36822608062E+02  0.00000000000E+00 0.  1.
         23    2    1    2    0    0  0.00000000000E+00  0.00000000000E+00  0.15682252557E+02  0.89327468681E+02  0.87940113803E+02 0.  0.
        -13    1    3    3    0    0  0.47340714325E+01 -0.22390913964E+02  0.45978095114E+02  0.51359027355E+02  0.00000000000E+00 0. -1.
         13    1    3    3    0    0 -0.47340714325E+01  0.22390913964E+02 -0.30295842557E+02  0.37968441326E+02  0.00000000000E+00 0.  1.
<mgrwt>
<rscale>  0 0.87940114E+02</rscale>
<asrwt>0</asrwt>
<pdfrwt beam="1">  1        3 0.80776709E-02 0.87940114E+02</pdfrwt>
<pdfrwt beam="2">  1       -3 0.56650166E-02 0.87940114E+02</pdfrwt>
<totfact> 0.39140390E+04</totfact>
</mgrwt>
</event>
<event>
 5    1  0.1256986E+001  0.9017644E+02  0.7546771E-02  0.1302425E+00
         -1   -1    0    0    0  501 -0.00000000000E+00  0.00000000000E+00  0.38409020159E+02  0.38409020159E+02  0.00000000000E+00 0.  1.
          1   -1    0    0  501    0  0.00000000000E+00 -0.00000000000E+00 -0.52928909237E+02  0.52928909237E+02  0.00000000000E+00 0. -1.
         23    2    1    2    0    0  0.00000000000E+00  0.00000000000E+00 -0.14519889078E+02  0.91337929397E+02  0.90176439094E+02 0.  0.
        -11    1    3    3    0    0 -0.35014627645E+02 -0.20684432066E+02 -0.26980637773E+02  0.48803941374E+02  0.00000000000E+00 0.  1.
         11    1    3    3    0    0  0.35014627645E+02  0.20684432066E+02  0.12460748695E+02  0.42533988022E+02  0.00000000000E+00 0. -1.
<mgrwt>
<rscale>  0 0.90176439E+02</rscale>
<asrwt>0</asrwt>
<pdfrwt beam="2">  1        1 0.81429091E-02 0.90176439E+02</pdfrwt>
<pdfrwt beam="1">  1       -1 0.59090801E-02 0.90176439E+02</pdfrwt>
<totfact> 0.97517752E+04</totfact>
</mgrwt>
</event>
<event>
 5    1  0.1256986E+001  0.8860981E+02  0.7546771E-02  0.1306254E+00
          2   -1    0    0  501    0  0.00000000000E+00  0.00000000000E+00  0.11859456472E+03  0.11859456472E+03  0.00000000000E+00 0. -1.
         -2   -1    0    0    0  501 -0.00000000000E+00 -0.00000000000E+00 -0.16551556534E+02  0.16551556534E+02  0.00000000000E+00 0.  1.
         23    2    1    2    0    0  0.00000000000E+00  0.00000000000E+00  0.10204300818E+03  0.13514612125E+03  0.88609810802E+02 0.  0.
        -13    1    3    3    0    0 -0.23896579546E+02 -0.90072274135E+01 -0.41965853087E+01  0.25880262517E+02  0.00000000000E+00 0.  1.
         13    1    3    3    0    0  0.23896579546E+02  0.90072274135E+01  0.10623959349E+03  0.10926585874E+03  0.00000000000E+00 0. -1.
<mgrwt>
<rscale>  0 0.88609811E+02</rscale>
<asrwt>0</asrwt>
<pdfrwt beam="1">  1        2 0.18245317E-01 0.88609811E+02</pdfrwt>
<pdfrwt beam="2">  1       -2 0.25463934E-02 0.88609811E+02</pdfrwt>
<totfact> 0.13985667E+05</totfact>
</mgrwt>
</event>
<event>
 5    1  0.1256986E+001  0.9121044E+02  0.7546771E-02  0.1299947E+00
         -1   -1    0    0    0  501 -0.00000000000E+00  0.00000000000E+00  0.29600598606E+03  0.29600598606E+03  0.00000000000E+00 0.  1.
          1   -1    0    0  501    0  0.00000000000E+00 -0.00000000000E+00 -0.70263317844E+01  0.70263317844E+01  0.00000000000E+00 0. -1.
         23    2    1    2    0    0  0.00000000000E+00  0.00000000000E+00  0.28897965427E+03  0.30303231784E+03  0.91210443880E+02 0.  0.
        -13    1    3    3    0    0 -0.37961453700E+02  0.24889599879E+02  0.15907491716E+03  0.16542488754E+03  0.00000000000E+00 0. -1.
         13    1    3    3    0    0  0.37961453700E+02 -0.24889599879E+02  0.12990473712E+03  0.13760743030E+03  0.00000000000E+00 0.  1.
<mgrwt>
<rscale>  0 0.91210444E+02</rscale>
<asrwt>0</asrwt>
<pdfrwt beam="2">  1        1 0.10809743E-02 0.91210444E+02</pdfrwt>
<pdfrwt beam="1">  1       -1 0.45539373E-01 0.91210444E+02</pdfrwt>
<totfact> 0.60846442E+04</totfact>
</mgrwt>
</event>
<event>
 5    1  0.1256986E+001  0.9503974E+02  0.7546771E-02  0.1291087E+00
          2   -1    0    0  501    0  0.00000000000E+00  0.00000000000E+00  0.10857279539E+03  0.10857279539E+03  0.00000000000E+00 0. -1.
         -2   -1    0    0    0  501 -0.00000000000E+00 -0.00000000000E+00 -0.20798377521E+02  0.20798377521E+02  0.00000000000E+00 0.  1.
         23    2    1    2    0    0  0.00000000000E+00  0.00000000000E+00  0.87774417872E+02  0.12937117291E+03  0.95039738786E+02 0.  0.
        -13    1    3    3    0    0 -0.14874989688E+02 -0.39821269683E+02  0.14974582833E+02  0.45069246371E+02  0.00000000000E+00 0.  1.
         13    1    3    3    0    0  0.14874989688E+02  0.39821269683E+02  0.72799835039E+02  0.84301926544E+02  0.00000000000E+00 0. -1.
<mgrwt>
<rscale>  0 0.95039739E+02</rscale>
<asrwt>0</asrwt>
<pdfrwt beam="1">  1        2 0.16703507E-01 0.95039739E+02</pdfrwt>
<pdfrwt beam="2">  1       -2 0.31997504E-02 0.95039739E+02</pdfrwt>
<totfact> 0.11223328E+05</totfact>
</mgrwt>
</event>
<event>
 5    1  0.1256986E+001  0.8925049E+02  0.7546771E-02  0.1304677E+00
         -1   -1    0    0    0  501 -0.00000000000E+00  0.00000000000E+00  0.23030815791E+02  0.23030815791E+02  0.00000000000E+00 0.  1.
          1   -1    0    0  501    0  0.00000000000E+00 -0.00000000000E+00 -0.86467303375E+02  0.86467303375E+02  0.00000000000E+00 0. -1.
         23    2    1    2    0    0  0.00000000000E+00  0.00000000000E+00 -0.63436487583E+02  0.10949811917E+03  0.89250491002E+02 0.  0.
        -11    1    3    3    0    0  0.87759873007E+01 -0.19174619014E+02  0.16532398515E+02  0.26795599790E+02  0.00000000000E+00 0.  1.
         11    1    3    3    0    0 -0.87759873007E+01  0.19174619014E+02 -0.79968886098E+02  0.82702519376E+02  0.00000000000E+00 0. -1.
<mgrwt>
<rscale>  0 0.89250491E+02</rscale>
<asrwt>0</asrwt>
<pdfrwt beam="2">  1        1 0.13302662E-01 0.89250491E+02</pdfrwt>
<pdfrwt beam="1">  1       -1 0.35432024E-02 0.89250491E+02</pdfrwt>
<totfact> 0.10812600E+05</totfact>
</mgrwt>
</event>
<event>
 5    1  0.1256986E+001  0.9013426E+02  0.7546771E-02  0.1302527E+00
          1   -1    0    0  501    0  0.00000000000E+00  0.00000000000E+00  0.18870397853E+03  0.18870397853E+03  0.00000000000E+00 0. -1.
         -1   -1    0    0    0  501 -0.00000000000E+00 -0.00000000000E+00 -0.10763133804E+02  0.10763133804E+02  0.00000000000E+00 0.  1.
         23    2    1    2    0    0  0.00000000000E+00  0.00000000000E+00  0.17794084473E+03  0.19946711234E+03  0.90134259198E+02 0.  0.
        -13    1    3    3    0    0 -0.26065810911E+02  0.36560574386E+02  0.80415503634E+02  0.92101874697E+02  0.00000000000E+00 0. -1.
         13    1    3    3    0    0  0.26065810911E+02 -0.36560574386E+02  0.97525341096E+02  0.10736523764E+03  0.00000000000E+00 0.  1.
<mgrwt>
<rscale>  0 0.90134259E+02</rscale>
<asrwt>0</asrwt>
<pdfrwt beam="1">  1        1 0.29031379E-01 0.90134259E+02</pdfrwt>
<pdfrwt beam="2">  1       -1 0.16558669E-02 0.90134259E+02</pdfrwt>
<totfact> 0.12074961E+05</totfact>
</mgrwt>
</event>
<event>
 5    1  0.1256986E+001  0.9109534E+02  0.7546771E-02  0.1300221E+00
         -2   -1    0    0    0  501 -0.00000000000E+00  0.00000000000E+00  0.14560471332E+02  0.14560471332E+02  0.00000000000E+00 0.  1.
          2   -1    0    0  501    0  0.00000000000E+00 -0.00000000000E+00 -0.14248097853E+03  0.14248097853E+03  0.00000000000E+00 0. -1.
         23    2    1    2    0    0  0.00000000000E+00  0.00000000000E+00 -0.12792050719E+03  0.15704144986E+03  0.91095339140E+02 0.  0.
        -11    1    3    3    0    0 -0.23308011498E+02  0.32409058365E+02 -0.26152442848E+02  0.47723796276E+02  0.00000000000E+00 0.  1.
         11    1    3    3    0    0  0.23308011498E+02 -0.32409058365E+02 -0.10176806435E+03  0.10931765358E+03  0.00000000000E+00 0. -1.
<mgrwt>
<rscale>  0 0.91095339E+02</rscale>
<asrwt>0</asrwt>
<pdfrwt beam="2">  1        2 0.21920151E-01 0.91095339E+02</pdfrwt>
<pdfrwt beam="1">  1       -2 0.22400724E-02 0.91095339E+02</pdfrwt>
<totfact> 0.13773478E+05</totfact>
</mgrwt>
</event>
<event>
 5    1  0.1256986E+001  0.9958507E+02  0.7546771E-02  0.1281171E+00
          2   -1    0    0  501    0  0.00000000000E+00  0.00000000000E+00  0.57343024770E+02  0.57343024770E+02  0.00000000000E+00 0.  1.
         -2   -1    0    0    0  501 -0.00000000000E+00 -0.00000000000E+00 -0.43236233573E+02  0.43236233573E+02  0.00000000000E+00 0. -1.
         23    2    1    2    0    0  0.00000000000E+00  0.00000000000E+00  0.14106791198E+02  0.10057925834E+03  0.99585067409E+02 0.  0.
        -13    1    3    3    0    0 -0.15326281069E+02  0.16049327947E+02 -0.37965364925E+02  0.43975501735E+02  0.00000000000E+00 0. -1.
         13    1    3    3    0    0  0.15326281069E+02 -0.16049327947E+02  0.52072156122E+02  0.56603756608E+02  0.00000000000E+00 0.  1.
<mgrwt>
<rscale>  0 0.99585067E+02</rscale>
<asrwt>0</asrwt>
<pdfrwt beam="1">  1        2 0.88220038E-02 0.99585067E+02</pdfrwt>
<pdfrwt beam="2">  1       -2 0.66517282E-02 0.99585067E+02</pdfrwt>
<totfact> 0.81471538E+04</totfact>
</mgrwt>
</event>
<event>
 5    1  0.1256986E+001  0.9151007E+02  0.7546771E-02  0.1299236E+00
          2   -1    0    0  501    0  0.00000000000E+00  0.00000000000E+00  0.35390413925E+02  0.35390413925E+02  0.00000000000E+00 0. -1.
         -2   -1    0    0    0  501 -0.00000000000E+00 -0.00000000000E+00 -0.59155087462E+02  0.59155087462E+02  0.00000000000E+00 0.  1.
         23    2    1    2    0    0  0.00000000000E+00  0.00000000000E+00 -0.23764673537E+02  0.94545501387E+02  0.91510065699E+02 0.  0.
        -13    1    3    3    0    0  0.34673942567E+02  0.95784172519E+01 -0.41095580766E+02  0.54615704048E+02  0.00000000000E+00 0.  1.
         13    1    3    3    0    0 -0.34673942567E+02 -0.95784172519E+01  0.17330907229E+02  0.39929797339E+02  0.00000000000E+00 0. -1.
<mgrwt>
<rscale>  0 0.91510066E+02</rscale>
<asrwt>0</asrwt>
<pdfrwt beam="1">  1        2 0.54446792E-02 0.91510066E+02</pdfrwt>
<pdfrwt beam="2">  1       -2 0.91007825E-02 0.91510066E+02</pdfrwt>
<totfact> 0.91422643E+04</totfact>
</mgrwt>
</event>
<event>
 5    1  0.1256986E+001  0.9480140E+02  0.7546771E-02  0.1291624E+00
         -1   -1    0    0    0  501 -0.00000000000E+00  0.00000000000E+00  0.13612108487E+03  0.13612108487E+03  0.00000000000E+00 0.  1.
          1   -1    0    0  501    0  0.00000000000E+00 -0.00000000000E+00 -0.16506085270E+02  0.16506085270E+02  0.00000000000E+00 0. -1.
         23    2    1    2    0    0  0.00000000000E+00  0.00000000000E+00  0.11961499959E+03  0.15262717014E+03  0.94801397328E+02 0.  0.
        -13    1    3    3    0    0 -0.21358099280E+02  0.42187303293E+02  0.65120214476E+02  0.80477197376E+02  0.00000000000E+00 0.  1.
         13    1    3    3    0    0  0.21358099280E+02 -0.42187303293E+02  0.54494785119E+02  0.72149972759E+02  0.00000000000E+00 0. -1.
<mgrwt>
<rscale>  0 0.94801397E+02</rscale>
<asrwt>0</asrwt>
<pdfrwt beam="2">  1        1 0.25393978E-02 0.94801397E+02</pdfrwt>
<pdfrwt beam="1">  1       -1 0.20941705E-01 0.94801397E+02</pdfrwt>
<totfact> 0.69098172E+04</totfact>
</mgrwt>
</event>
<event>
 5    1  0.1256986E+001  0.9698564E+02  0.7546771E-02  0.1286766E+00
         -2   -1    0    0    0  501 -0.00000000000E+00  0.00000000000E+00  0.44546035288E+02  0.44546035288E+02  0.00000000000E+00 0.  1.
          2   -1    0    0  501    0  0.00000000000E+00 -0.00000000000E+00 -0.52789289577E+02  0.52789289577E+02  0.00000000000E+00 0. -1.
         23    2    1    2    0    0  0.00000000000E+00  0.00000000000E+00 -0.82432542895E+01  0.97335324865E+02  0.96985639273E+02 0.  0.
        -13    1    3    3    0    0  0.16704516005E+02 -0.42467919668E+02 -0.20581630023E+02  0.50061647499E+02  0.00000000000E+00 0. -1.
         13    1    3    3    0    0 -0.16704516005E+02  0.42467919668E+02  0.12338375734E+02  0.47273677366E+02  0.00000000000E+00 0.  1.
<mgrwt>
<rscale>  0 0.96985639E+02</rscale>
<asrwt>0</asrwt>
<pdfrwt beam="2">  1        2 0.81214291E-02 0.96985639E+02</pdfrwt>
<pdfrwt beam="1">  1       -2 0.68532363E-02 0.96985639E+02</pdfrwt>
<totfact> 0.85915426E+04</totfact>
</mgrwt>
</event>
<event>
 5    1  0.1256986E+001  0.9317622E+02  0.7546771E-02  0.1295337E+00
         -2   -1    0    0    0  501 -0.00000000000E+00  0.00000000000E+00  0.26775148857E+02  0.26775148857E+02  0.00000000000E+00 0.  1.
          2   -1    0    0  501    0  0.00000000000E+00 -0.00000000000E+00 -0.81062187125E+02  0.81062187125E+02  0.00000000000E+00 0. -1.
         23    2    1    2    0    0  0.00000000000E+00  0.00000000000E+00 -0.54287038268E+02  0.10783733598E+03  0.93176222866E+02 0.  0.
        -13    1    3    3    0    0 -0.91833248395E+01 -0.21205328804E+02  0.19674795728E+02  0.30349580092E+02  0.00000000000E+00 0.  1.
         13    1    3    3    0    0  0.91833248395E+01  0.21205328804E+02 -0.73961833996E+02  0.77487755890E+02  0.00000000000E+00 0. -1.
<mgrwt>
<rscale>  0 0.93176223E+02</rscale>
<asrwt>0</asrwt>
<pdfrwt beam="2">  1        2 0.12471106E-01 0.93176223E+02</pdfrwt>
<pdfrwt beam="1">  1       -2 0.41192537E-02 0.93176223E+02</pdfrwt>
<totfact> 0.10853221E+05</totfact>
</mgrwt>
</event>
<event>
 5    1  0.1256986E+001  0.8987513E+02  0.7546771E-02  0.1303154E+00
         -4   -1    0    0    0  501 -0.00000000000E+00  0.00000000000E+00  0.61224094636E+02  0.61224094636E+02  0.00000000000E+00 0.  1.
          4   -1    0    0  501    0  0.00000000000E+00 -0.00000000000E+00 -0.32983500332E+02  0.32983500332E+02  0.00000000000E+00 0. -1.
         23    2    1    2    0    0  0.00000000000E+00  0.00000000000E+00  0.28240594305E+02  0.94207594968E+02  0.89875134398E+02 0.  0.
        -11    1    3    3    0    0  0.40590441632E+02 -0.11775285792E+02 -0.18847938863E+01  0.42305954136E+02  0.00000000000E+00 0. -1.
         11    1    3    3    0    0 -0.40590441632E+02  0.11775285792E+02  0.30125388191E+02  0.51901640832E+02  0.00000000000E+00 0.  1.
<mgrwt>
<rscale>  0 0.89875134E+02</rscale>
<asrwt>0</asrwt>
<pdfrwt beam="2">  1        4 0.50743847E-02 0.89875134E+02</pdfrwt>
<pdfrwt beam="1">  1       -4 0.94190915E-02 0.89875134E+02</pdfrwt>
<totfact> 0.27886235E+04</totfact>
</mgrwt>
</event>
<event>
 5    1  0.1256986E+001  0.9201878E+02  0.7546771E-02  0.1298035E+00
         -3   -1    0    0    0  501 -0.00000000000E+00  0.00000000000E+00  0.72379541581E+02  0.72379541581E+02  0.00000000000E+00 0.  1.
          3   -1    0    0  501    0  0.00000000000E+00 -0.00000000000E+00 -0.29246716541E+02  0.29246716541E+02  0.00000000000E+00 0. -1.
         23    2    1    2    0    0  0.00000000000E+00  0.00000000000E+00  0.43132825040E+02  0.10162625812E+03  0.92018779300E+02 0.  0.
        -13    1    3    3    0    0  0.34812828638E+02 -0.19448014427E+02 -0.37798220031E+01  0.40055528424E+02  0.00000000000E+00 0. -1.
         13    1    3    3    0    0 -0.34812828638E+02  0.19448014427E+02  0.46912647043E+02  0.61570729698E+02  0.00000000000E+00 0.  1.
<mgrwt>
<rscale>  0 0.92018779E+02</rscale>
<asrwt>0</asrwt>
<pdfrwt beam="2">  1        3 0.44994949E-02 0.92018779E+02</pdfrwt>
<pdfrwt beam="1">  1       -3 0.11135314E-01 0.92018779E+02</pdfrwt>
<totfact> 0.33696817E+04</totfact>
</mgrwt>
</event>
<event>
 5    1  0.1256986E+001  0.8922945E+02  0.7546771E-02  0.1304729E+00
          2   -1    0    0  501    0  0.00000000000E+00  0.00000000000E+00  0.72651248537E+02  0.72651248537E+02  0.00000000000E+00 0. -1.
         -2   -1    0    0    0  501 -0.00000000000E+00 -0.00000000000E+00 -0.27397650580E+02  0.27397650580E+02  0.00000000000E+00 0.  1.
         23    2    1    2    0    0  0.00000000000E+00  0.00000000000E+00  0.45253597956E+02  0.10004889912E+03  0.89229446297E+02 0.  0.
        -11    1    3    3    0    0 -0.34146124122E+02  0.28696460936E+02  0.23764117212E+02  0.50538875430E+02  0.00000000000E+00 0. -1.
         11    1    3    3    0    0  0.34146124122E+02 -0.28696460936E+02  0.21489480745E+02  0.49510023687E+02  0.00000000000E+00 0.  1.
<mgrwt>
<rscale>  0 0.89229446E+02</rscale>
<asrwt>0</asrwt>
<pdfrwt beam="1">  1        2 0.11177115E-01 0.89229446E+02</pdfrwt>
<pdfrwt beam="2">  1       -2 0.42150232E-02 0.89229446E+02</pdfrwt>
<totfact> 0.11869677E+05</totfact>
</mgrwt>
</event>
<event>
 5    1  0.1256986E+001  0.9205156E+02  0.7546771E-02  0.1297958E+00
          2   -1    0    0  501    0  0.00000000000E+00  0.00000000000E+00  0.17464555438E+02  0.17464555438E+02  0.00000000000E+00 0. -1.
         -2   -1    0    0    0  501 -0.00000000000E+00 -0.00000000000E+00 -0.12129553466E+03  0.12129553466E+03  0.00000000000E+00 0.  1.
         23    2    1    2    0    0  0.00000000000E+00  0.00000000000E+00 -0.10383097923E+03  0.13876009010E+03  0.92051563582E+02 0.  0.
        -13    1    3    3    0    0  0.80831712490E+01  0.25976856685E+02  0.40468019060E+01  0.27504751341E+02  0.00000000000E+00 0. -1.
         13    1    3    3    0    0 -0.80831712490E+01 -0.25976856685E+02 -0.10787778113E+03  0.11125533876E+03  0.00000000000E+00 0.  1.
<mgrwt>
<rscale>  0 0.92051564E+02</rscale>
<asrwt>0</asrwt>
<pdfrwt beam="1">  1        2 0.26868547E-02 0.92051564E+02</pdfrwt>
<pdfrwt beam="2">  1       -2 0.18660851E-01 0.92051564E+02</pdfrwt>
<totfact> 0.73372725E+04</totfact>
</mgrwt>
</event>
<event>
 5    1  0.1256986E+001  0.8989395E+02  0.7546771E-02  0.1303109E+00
         -4   -1    0    0    0  501 -0.00000000000E+00  0.00000000000E+00  0.56376557284E+01  0.56376557284E+01  0.00000000000E+00 0. -1.
          4   -1    0    0  501    0  0.00000000000E+00 -0.00000000000E+00 -0.35834587717E+03  0.35834587717E+03  0.00000000000E+00 0.  1.
         23    2    1    2    0    0  0.00000000000E+00  0.00000000000E+00 -0.35270822144E+03  0.36398353290E+03  0.89893952793E+02 0.  0.
        -11    1    3    3    0    0 -0.40211702866E+02 -0.15093239920E+02 -0.12272257816E+03  0.13002160639E+03  0.00000000000E+00 0. -1.
         11    1    3    3    0    0  0.40211702866E+02  0.15093239920E+02 -0.22998564328E+03  0.23396192650E+03  0.00000000000E+00 0.  1.
<mgrwt>
<rscale>  0 0.89893953E+02</rscale>
<asrwt>0</asrwt>
<pdfrwt beam="2">  1        4 0.55130144E-01 0.89893953E+02</pdfrwt>
<pdfrwt beam="1">  1       -4 0.86733150E-03 0.89893953E+02</pdfrwt>
<totfact> 0.16643414E+04</totfact>
</mgrwt>
</event>
<event>
 5    1  0.1256986E+001  0.9002763E+02  0.7546771E-02  0.1302785E+00
          4   -1    0    0  501    0  0.00000000000E+00  0.00000000000E+00  0.17037726045E+03  0.17037726045E+03  0.00000000000E+00 0. -1.
         -4   -1    0    0    0  501 -0.00000000000E+00 -0.00000000000E+00 -0.11892686778E+02  0.11892686778E+02  0.00000000000E+00 0.  1.
         23    2    1    2    0    0  0.00000000000E+00  0.00000000000E+00  0.15848457368E+03  0.18226994723E+03  0.90027626707E+02 0.  0.
        -11    1    3    3    0    0  0.44041492525E+01  0.32100456305E+02  0.15978550947E+02  0.36126858651E+02  0.00000000000E+00 0.  1.
         11    1    3    3    0    0 -0.44041492525E+01 -0.32100456305E+02  0.14250602273E+03  0.14614308858E+03  0.00000000000E+00 0. -1.
<mgrwt>
<rscale>  0 0.90027627E+02</rscale>
<asrwt>0</asrwt>
<pdfrwt beam="1">  1        4 0.26211884E-01 0.90027627E+02</pdfrwt>
<pdfrwt beam="2">  1       -4 0.18296442E-02 0.90027627E+02</pdfrwt>
<totfact> 0.22914494E+04</totfact>
</mgrwt>
</event>
<event>
 5    1  0.1256986E+001  0.9094647E+02  0.7546771E-02  0.1300576E+00
         -4   -1    0    0    0  501 -0.00000000000E+00  0.00000000000E+00  0.40016003913E+02  0.40016003913E+02  0.00000000000E+00 0.  1.
          4   -1    0    0  501    0  0.00000000000E+00 -0.00000000000E+00 -0.51674697774E+02  0.51674697774E+02  0.00000000000E+00 0. -1.
         23    2    1    2    0    0  0.00000000000E+00  0.00000000000E+00 -0.11658693861E+02  0.91690701687E+02  0.90946465754E+02 0.  0.
        -11    1    3    3    0    0 -0.36350862804E+02  0.12973524998E+02  0.18411481849E+02  0.42763070999E+02  0.00000000000E+00 0.  1.
         11    1    3    3    0    0  0.36350862804E+02 -0.12973524998E+02 -0.30070175710E+02  0.48927630687E+02  0.00000000000E+00 0. -1.
<mgrwt>
<rscale>  0 0.90946466E+02</rscale>
<asrwt>0</asrwt>
<pdfrwt beam="2">  1        4 0.79499534E-02 0.90946466E+02</pdfrwt>
<pdfrwt beam="1">  1       -4 0.61563084E-02 0.90946466E+02</pdfrwt>
<totfact> 0.27169512E+04</totfact>
</mgrwt>
</event>
<event>
 5    1  0.1256986E+001  0.9141437E+02  0.7546771E-02  0.1299462E+00
          2   -1    0    0  501    0  0.00000000000E+00  0.00000000000E+00  0.62421017772E+02  0.62421017772E+02  0.00000000000E+00 0. -1.
         -2   -1    0    0    0  501 -0.00000000000E+00 -0.00000000000E+00 -0.33468646566E+02  0.33468646566E+02  0.00000000000E+00 0.  1.
         23    2    1    2    0    0  0.00000000000E+00  0.00000000000E+00  0.28952371207E+02  0.95889664338E+02  0.91414374845E+02 0.  0.
        -13    1    3    3    0    0  0.20826133600E+02 -0.51462528733E+01 -0.27859754872E+02  0.35162162916E+02  0.00000000000E+00 0.  1.
         13    1    3    3    0    0 -0.20826133600E+02  0.51462528733E+01  0.56812126079E+02  0.60727501422E+02  0.00000000000E+00 0. -1.
<mgrwt>
<rscale>  0 0.91414375E+02</rscale>
<asrwt>0</asrwt>
<pdfrwt beam="1">  1        2 0.96032335E-02 0.91414375E+02</pdfrwt>
<pdfrwt beam="2">  1       -2 0.51490226E-02 0.91414375E+02</pdfrwt>
<totfact> 0.10642219E+05</totfact>
</mgrwt>
</event>
<event>
 5    1  0.1256986E+001  0.9042800E+02  0.7546771E-02  0.1301819E+00
         -2   -1    0    0    0  501 -0.00000000000E+00  0.00000000000E+00  0.93370065457E+02  0.93370065457E+02  0.00000000000E+00 0.  1.
          2   -1    0    0  501    0  0.00000000000E+00 -0.00000000000E+00 -0.21894658083E+02  0.21894658083E+02  0.00000000000E+00 0. -1.
         23    2    1    2    0    0  0.00000000000E+00  0.00000000000E+00  0.71475407374E+02  0.11526472354E+03  0.90427996956E+02 0.  0.
        -13    1    3    3    0    0  0.44503981662E+02 -0.64155329761E+01  0.29685803463E+02  0.53879591446E+02  0.00000000000E+00 0. -1.
         13    1    3    3    0    0 -0.44503981662E+02  0.64155329761E+01  0.41789603911E+02  0.61385132094E+02  0.00000000000E+00 0.  1.
<mgrwt>
<rscale>  0 0.90427997E+02</rscale>
<asrwt>0</asrwt>
<pdfrwt beam="2">  1        2 0.33684090E-02 0.90427997E+02</pdfrwt>
<pdfrwt beam="1">  1       -2 0.14364625E-01 0.90427997E+02</pdfrwt>
<totfact> 0.83116192E+04</totfact>
</mgrwt>
</event>
<event>
 5    1  0.1256986E+001  0.9059276E+02  0.7546771E-02  0.1301423E+00
          1   -1    0    0  501    0  0.00000000000E+00  0.00000000000E+00  0.87831557420E+01  0.87831557420E+01  0.00000000000E+00 0. -1.
         -1   -1    0    0    0  501 -0.00000000000E+00 -0.00000000000E+00 -0.23360190253E+03  0.23360190253E+03  0.00000000000E+00 0.  1.
         23    2    1    2    0    0  0.00000000000E+00  0.00000000000E+00 -0.22481874679E+03  0.24238505827E+03  0.90592756699E+02 0.  0.
        -13    1    3    3    0    0 -0.13037358490E+02  0.34555589472E+02 -0.18257299718E+03  0.18627120223E+03  0.00000000000E+00 0.  1.
         13    1    3    3    0    0  0.13037358490E+02 -0.34555589472E+02 -0.42245749608E+02  0.56113856044E+02  0.00000000000E+00 0. -1.
<mgrwt>
<rscale>  0 0.90592757E+02</rscale>
<asrwt>0</asrwt>
<pdfrwt beam="1">  1        1 0.13512548E-02 0.90592757E+02</pdfrwt>
<pdfrwt beam="2">  1       -1 0.35938751E-01 0.90592757E+02</pdfrwt>
<totfact> 0.67350849E+04</totfact>
</mgrwt>
</event>
<event>
 5    1  0.1256986E+001  0.9097504E+02  0.7546771E-02  0.1300508E+00
          2   -1    0    0  501    0  0.00000000000E+00  0.00000000000E+00  0.70818457268E+02  0.70818457268E+02  0.00000000000E+00 0. -1.
         -2   -1    0    0    0  501 -0.00000000000E+00 -0.00000000000E+00 -0.29217164697E+02  0.29217164697E+02  0.00000000000E+00 0.  1.
         23    2    1    2    0    0  0.00000000000E+00  0.00000000000E+00  0.41601292571E+02  0.10003562197E+03  0.90975041183E+02 0.  0.
        -11    1    3    3    0    0 -0.37387617839E+02  0.25842656670E+02  0.18761897281E+02  0.49169967063E+02  0.00000000000E+00 0.  1.
         11    1    3    3    0    0  0.37387617839E+02 -0.25842656670E+02  0.22839395291E+02  0.50865654902E+02  0.00000000000E+00 0. -1.
<mgrwt>
<rscale>  0 0.90975041E+02</rscale>
<asrwt>0</asrwt>
<pdfrwt beam="1">  1        2 0.10895147E-01 0.90975041E+02</pdfrwt>
<pdfrwt beam="2">  1       -2 0.44949484E-02 0.90975041E+02</pdfrwt>
<totfact> 0.11166663E+05</totfact>
</mgrwt>
</event>
<event>
 5    1  0.1256986E+001  0.9220685E+02  0.7546771E-02  0.1297594E+00
         -1   -1    0    0    0  501 -0.00000000000E+00  0.00000000000E+00  0.17912764504E+03  0.17912764504E+03  0.00000000000E+00 0.  1.
          1   -1    0    0  501    0  0.00000000000E+00 -0.00000000000E+00 -0.11865983133E+02  0.11865983133E+02  0.00000000000E+00 0. -1.
         23    2    1    2    0    0  0.00000000000E+00  0.00000000000E+00  0.16726166191E+03  0.19099362817E+03  0.92206846051E+02 0.  0.
        -13    1    3    3    0    0  0.37566334266E+02  0.26689205760E+02  0.86547289308E+02  0.98050887099E+02  0.00000000000E+00 0.  1.
         13    1    3    3    0    0 -0.37566334266E+02 -0.26689205760E+02  0.80714372598E+02  0.92942741073E+02  0.00000000000E+00 0. -1.
<mgrwt>
<rscale>  0 0.92206846E+02</rscale>
<asrwt>0</asrwt>
<pdfrwt beam="2">  1        1 0.18255360E-02 0.92206846E+02</pdfrwt>
<pdfrwt beam="1">  1       -1 0.27558097E-01 0.92206846E+02</pdfrwt>
<totfact> 0.69497663E+04</totfact>
</mgrwt>
</event>
<event>
 5    1  0.1256986E+001  0.9037594E+02  0.7546771E-02  0.1301944E+00
          1   -1    0    0  501    0  0.00000000000E+00  0.00000000000E+00  0.28370834291E+02  0.28370834291E+02  0.00000000000E+00 0. -1.
         -1   -1    0    0    0  501 -0.00000000000E+00 -0.00000000000E+00 -0.71973662223E+02  0.71973662223E+02  0.00000000000E+00 0.  1.
         23    2    1    2    0    0  0.00000000000E+00  0.00000000000E+00 -0.43602827932E+02  0.10034449651E+03  0.90375944681E+02 0.  0.
        -11    1    3    3    0    0 -0.39452917124E+02  0.21933615223E+02 -0.19489241147E+02  0.49167536717E+02  0.00000000000E+00 0. -1.
         11    1    3    3    0    0  0.39452917124E+02 -0.21933615223E+02 -0.24113586785E+02  0.51176959797E+02  0.00000000000E+00 0.  1.
<mgrwt>
<rscale>  0 0.90375945E+02</rscale>
<asrwt>0</asrwt>
<pdfrwt beam="1">  1        1 0.43647438E-02 0.90375945E+02</pdfrwt>
<pdfrwt beam="2">  1       -1 0.11072871E-01 0.90375945E+02</pdfrwt>
<totfact> 0.88109265E+04</totfact>
</mgrwt>
</event>
<event>
 5    1  0.1256986E+001  0.9513669E+02  0.7546771E-02  0.1290869E+00
         -1   -1    0    0    0  501 -0.00000000000E+00  0.00000000000E+00  0.20646845599E+02  0.20646845599E+02  0.00000000000E+00 0.  1.
          1   -1    0    0  501    0  0.00000000000E+00 -0.00000000000E+00 -0.10959289873E+03  0.10959289873E+03  0.00000000000E+00 0. -1.
         23    2    1    2    0    0  0.00000000000E+00  0.00000000000E+00 -0.88946053129E+02  0.13023974433E+03  0.95136694472E+02 0.  0.
        -11    1    3    3    0    0  0.24529671588E+02 -0.25854247242E+02 -0.87603356571E+02  0.94575340186E+02  0.00000000000E+00 0. -1.
         11    1    3    3    0    0 -0.24529671588E+02  0.25854247242E+02 -0.13426965578E+01  0.35664404141E+02  0.00000000000E+00 0.  1.
<mgrwt>
<rscale>  0 0.95136694E+02</rscale>
<asrwt>0</asrwt>
<pdfrwt beam="2">  1        1 0.16860446E-01 0.95136694E+02</pdfrwt>
<pdfrwt beam="1">  1       -1 0.31764378E-02 0.95136694E+02</pdfrwt>
<totfact> 0.94454753E+04</totfact>
</mgrwt>
</event>
<event>
 5    1  0.1256986E+001  0.9068248E+02  0.7546771E-02  0.1301207E+00
         -2   -1    0    0    0  501 -0.00000000000E+00  0.00000000000E+00  0.34709661750E+02  0.34709661750E+02  0.00000000000E+00 0.  1.
          2   -1    0    0  501    0  0.00000000000E+00 -0.00000000000E+00 -0.59229276636E+02  0.59229276636E+02  0.00000000000E+00 0. -1.
         23    2    1    2    0    0  0.00000000000E+00  0.00000000000E+00 -0.24519614887E+02  0.93938938386E+02  0.90682482492E+02 0.  0.
        -13    1    3    3    0    0  0.23749904300E+02 -0.18325040455E+02 -0.47480203219E+02  0.56162574368E+02  0.00000000000E+00 0.  1.
         13    1    3    3    0    0 -0.23749904300E+02  0.18325040455E+02  0.22960588332E+02  0.37776364019E+02  0.00000000000E+00 0. -1.
<mgrwt>
<rscale>  0 0.90682482E+02</rscale>
<asrwt>0</asrwt>
<pdfrwt beam="2">  1        2 0.91121963E-02 0.90682482E+02</pdfrwt>
<pdfrwt beam="1">  1       -2 0.53399480E-02 0.90682482E+02</pdfrwt>
<totfact> 0.10733560E+05</totfact>
</mgrwt>
</event>
<event>
 5    1  0.1256986E+001  0.1074122E+03  0.7546771E-02  0.1265438E+00
         -2   -1    0    0    0  501 -0.00000000000E+00  0.00000000000E+00  0.26539027173E+02  0.26539027173E+02  0.00000000000E+00 0. -1.
          2   -1    0    0  501    0  0.00000000000E+00 -0.00000000000E+00 -0.10868325303E+03  0.10868325303E+03  0.00000000000E+00 0.  1.
         23    2    1    2    0    0  0.00000000000E+00  0.00000000000E+00 -0.82144225853E+02  0.13522228020E+03  0.10741224894E+03 0.  0.
        -13    1    3    3    0    0 -0.41387088033E+02  0.48776726643E+01  0.15762165953E+01  0.41703323671E+02  0.00000000000E+00 0. -1.
         13    1    3    3    0    0  0.41387088033E+02 -0.48776726643E+01 -0.83720442448E+02  0.93518956528E+02  0.00000000000E+00 0.  1.
<mgrwt>
<rscale>  0 0.10741225E+03</rscale>
<asrwt>0</asrwt>
<pdfrwt beam="2">  1        2 0.16720501E-01 0.10741225E+03</pdfrwt>
<pdfrwt beam="1">  1       -2 0.40829272E-02 0.10741225E+03</pdfrwt>
<totfact> 0.79825587E+04</totfact>
</mgrwt>
</event>
<event>
 5    1  0.1256986E+001  0.8658470E+02  0.7546771E-02  0.1311340E+00
         -1   -1    0    0    0  501 -0.00000000000E+00  0.00000000000E+00  0.90020732861E+01  0.90020732861E+01  0.00000000000E+00 0.  1.
          1   -1    0    0  501    0  0.00000000000E+00 -0.00000000000E+00 -0.20819953645E+03  0.20819953645E+03  0.00000000000E+00 0. -1.
         23    2    1    2    0    0  0.00000000000E+00  0.00000000000E+00 -0.19919746316E+03  0.21720160973E+03  0.86584698077E+02 0.  0.
        -13    1    3    3    0    0  0.16682379321E+02 -0.39438728293E+02 -0.83632002188E+02  0.93957580105E+02  0.00000000000E+00 0. -1.
         13    1    3    3    0    0 -0.16682379321E+02  0.39438728293E+02 -0.11556546097E+03  0.12324402963E+03  0.00000000000E+00 0.  1.
<mgrwt>
<rscale>  0 0.86584698E+02</rscale>
<asrwt>0</asrwt>
<pdfrwt beam="2">  1        1 0.32030697E-01 0.86584698E+02</pdfrwt>
<pdfrwt beam="1">  1       -1 0.13849344E-02 0.86584698E+02</pdfrwt>
<totfact> 0.13699474E+05</totfact>
</mgrwt>
</event>
<event>
 5    1  0.1256986E+001  0.7356560E+02  0.7546771E-02  0.1348371E+00
          1   -1    0    0  501    0  0.00000000000E+00  0.00000000000E+00  0.17041949535E+03  0.17041949535E+03  0.00000000000E+00 0. -1.
         -1   -1    0    0    0  501 -0.00000000000E+00 -0.00000000000E+00 -0.79390820382E+01  0.79390820382E+01  0.00000000000E+00 0.  1.
         23    2    1    2    0    0  0.00000000000E+00  0.00000000000E+00  0.16248041332E+03  0.17835857739E+03  0.73565599420E+02 0.  0.
        -13    1    3    3    0    0  0.24531390600E+02 -0.45600869472E+01  0.14676367529E+03  0.14886960705E+03  0.00000000000E+00 0. -1.
         13    1    3    3    0    0 -0.24531390600E+02  0.45600869472E+01  0.15716738021E+02  0.29488970340E+02  0.00000000000E+00 0.  1.
<mgrwt>
<rscale>  0 0.73565599E+02</rscale>
<asrwt>0</asrwt>
<pdfrwt beam="1">  1        1 0.26218381E-01 0.73565599E+02</pdfrwt>
<pdfrwt beam="2">  1       -1 0.12213974E-02 0.73565599E+02</pdfrwt>
<totfact> 0.20308211E+05</totfact>
</mgrwt>
</event>
<event>
 5    1  0.1256986E+001  0.9156930E+02  0.7546771E-02  0.1299095E+00
          1   -1    0    0  501    0  0.00000000000E+00  0.00000000000E+00  0.80857570877E+02  0.80857570877E+02  0.00000000000E+00 0. -1.
         -1   -1    0    0    0  501 -0.00000000000E+00 -0.00000000000E+00 -0.25925018601E+02  0.25925018601E+02  0.00000000000E+00 0.  1.
         23    2    1    2    0    0  0.00000000000E+00  0.00000000000E+00  0.54932552276E+02  0.10678258948E+03  0.91569296797E+02 0.  0.
        -11    1    3    3    0    0 -0.11198089924E+02 -0.19213423065E+02 -0.19203810405E+02  0.29382633951E+02  0.00000000000E+00 0.  1.
         11    1    3    3    0    0  0.11198089924E+02  0.19213423065E+02  0.74136362682E+02  0.77399955526E+02  0.00000000000E+00 0. -1.
<mgrwt>
<rscale>  0 0.91569297E+02</rscale>
<asrwt>0</asrwt>
<pdfrwt beam="1">  1        1 0.12439626E-01 0.91569297E+02</pdfrwt>
<pdfrwt beam="2">  1       -1 0.39884644E-02 0.91569297E+02</pdfrwt>
<totfact> 0.99730250E+04</totfact>
</mgrwt>
</event>
<event>
 5    1  0.1256986E+001  0.9661125E+02  0.7546771E-02  0.1287588E+00
          4   -1    0    0  501    0  0.00000000000E+00  0.00000000000E+00  0.22257955617E+03  0.22257955617E+03  0.00000000000E+00 0. -1.
         -4   -1    0    0    0  501 -0.00000000000E+00 -0.00000000000E+00 -0.10483593419E+02  0.10483593419E+02  0.00000000000E+00 0.  1.
         23    2    1    2    0    0  0.00000000000E+00  0.00000000000E+00  0.21209596275E+03  0.23306314959E+03  0.96611253388E+02 0.  0.
        -11    1    3    3    0    0 -0.44151523440E+01 -0.46699482573E+02  0.78216764622E+02  0.91204152925E+02  0.00000000000E+00 0.  1.
         11    1    3    3    0    0  0.44151523440E+01  0.46699482573E+02  0.13387919813E+03  0.14185899667E+03  0.00000000000E+00 0. -1.
<mgrwt>
<rscale>  0 0.96611253E+02</rscale>
<asrwt>0</asrwt>
<pdfrwt beam="1">  1        4 0.34243005E-01 0.96611253E+02</pdfrwt>
<pdfrwt beam="2">  1       -4 0.16128607E-02 0.96611253E+02</pdfrwt>
<totfact> 0.17189843E+04</totfact>
</mgrwt>
</event>
<event>
 5    1  0.1256986E+001  0.9501045E+02  0.7546771E-02  0.1291153E+00
         -2   -1    0    0    0  501 -0.00000000000E+00  0.00000000000E+00  0.56647539582E+01  0.56647539582E+01  0.00000000000E+00 0.  1.
          2   -1    0    0  501    0  0.00000000000E+00 -0.00000000000E+00 -0.39838382362E+03  0.39838382362E+03  0.00000000000E+00 0. -1.
         23    2    1    2    0    0  0.00000000000E+00  0.00000000000E+00 -0.39271906966E+03  0.40404857758E+03  0.95010448725E+02 0.  0.
        -13    1    3    3    0    0 -0.40219661571E+02 -0.24020488652E+02 -0.22988326562E+03  0.23460801534E+03  0.00000000000E+00 0.  1.
         13    1    3    3    0    0  0.40219661571E+02  0.24020488652E+02 -0.16283580404E+03  0.16944056223E+03  0.00000000000E+00 0. -1.
<mgrwt>
<rscale>  0 0.95010449E+02</rscale>
<asrwt>0</asrwt>
<pdfrwt beam="2">  1        2 0.61289815E-01 0.95010449E+02</pdfrwt>
<pdfrwt beam="1">  1       -2 0.87150067E-03 0.95010449E+02</pdfrwt>
<totfact> 0.17863627E+05</totfact>
</mgrwt>
</event>
<event>
 5    1  0.1256986E+001  0.9128336E+02  0.7546771E-02  0.1299773E+00
          2   -1    0    0  501    0  0.00000000000E+00  0.00000000000E+00  0.25189789775E+02  0.25189789775E+02  0.00000000000E+00 0. -1.
         -2   -1    0    0    0  501 -0.00000000000E+00 -0.00000000000E+00 -0.82698712450E+02  0.82698712450E+02  0.00000000000E+00 0.  1.
         23    2    1    2    0    0  0.00000000000E+00  0.00000000000E+00 -0.57508922675E+02  0.10788850222E+03  0.91283364996E+02 0.  0.
        -13    1    3    3    0    0 -0.33279427870E+01 -0.33181487056E+02 -0.65585191883E+02  0.73576515824E+02  0.00000000000E+00 0.  1.
         13    1    3    3    0    0  0.33279427870E+01  0.33181487056E+02  0.80762692083E+01  0.34311986400E+02  0.00000000000E+00 0. -1.
<mgrwt>
<rscale>  0 0.91283365E+02</rscale>
<asrwt>0</asrwt>
<pdfrwt beam="1">  1        2 0.38753523E-02 0.91283365E+02</pdfrwt>
<pdfrwt beam="2">  1       -2 0.12722879E-01 0.91283365E+02</pdfrwt>
<totfact> 0.84056797E+04</totfact>
</mgrwt>
</event>
<event>
 5    1  0.1256986E+001  0.9139311E+02  0.7546771E-02  0.1299513E+00
         -2   -1    0    0    0  501 -0.00000000000E+00  0.00000000000E+00  0.76181508015E+02  0.76181508015E+02  0.00000000000E+00 0.  1.
          2   -1    0    0  501    0  0.00000000000E+00 -0.00000000000E+00 -0.27410526960E+02  0.27410526960E+02  0.00000000000E+00 0. -1.
         23    2    1    2    0    0  0.00000000000E+00  0.00000000000E+00  0.48770981055E+02  0.10359203497E+03  0.91393113073E+02 0.  0.
        -13    1    3    3    0    0 -0.58747094329E+01 -0.42338093576E+02  0.42702602271E+02  0.60419687348E+02  0.00000000000E+00 0.  1.
         13    1    3    3    0    0  0.58747094329E+01  0.42338093576E+02  0.60683787842E+01  0.43172347627E+02  0.00000000000E+00 0. -1.
<mgrwt>
<rscale>  0 0.91393113E+02</rscale>
<asrwt>0</asrwt>
<pdfrwt beam="2">  1        2 0.42170042E-02 0.91393113E+02</pdfrwt>
<pdfrwt beam="1">  1       -2 0.11720232E-01 0.91393113E+02</pdfrwt>
<totfact> 0.85728812E+04</totfact>
</mgrwt>
</event>
<event>
 5    1  0.1256986E+001  0.9214239E+02  0.7546771E-02  0.1297745E+00
         -2   -1    0    0    0  501 -0.00000000000E+00  0.00000000000E+00  0.79771539703E+01  0.79771539703E+01  0.00000000000E+00 0.  1.
          2   -1    0    0  501    0  0.00000000000E+00 -0.00000000000E+00 -0.26607924453E+03  0.26607924453E+03  0.00000000000E+00 0. -1.
         23    2    1    2    0    0  0.00000000000E+00  0.00000000000E+00 -0.25810209056E+03  0.27405639850E+03  0.92142392023E+02 0.  0.
        -11    1    3    3    0    0 -0.12997071397E+02  0.38046955586E+02 -0.62142491265E+02  0.74014754711E+02  0.00000000000E+00 0.  1.
         11    1    3    3    0    0  0.12997071397E+02 -0.38046955586E+02 -0.19595959929E+03  0.20004164379E+03  0.00000000000E+00 0. -1.
<mgrwt>
<rscale>  0 0.92142392E+02</rscale>
<asrwt>0</asrwt>
<pdfrwt beam="2">  1        2 0.40935265E-01 0.92142392E+02</pdfrwt>
<pdfrwt beam="1">  1       -2 0.12272546E-02 0.92142392E+02</pdfrwt>
<totfact> 0.16701764E+05</totfact>
</mgrwt>
</event>
<event>
 5    1  0.1256986E+001  0.1098417E+03  0.7546771E-02  0.1260863E+00
         -2   -1    0    0    0  501 -0.00000000000E+00  0.00000000000E+00  0.46690081958E+02  0.46690081958E+02  0.00000000000E+00 0.  1.
          2   -1    0    0  501    0  0.00000000000E+00 -0.00000000000E+00 -0.64602550380E+02  0.64602550380E+02  0.00000000000E+00 0. -1.
         23    2    1    2    0    0  0.00000000000E+00  0.00000000000E+00 -0.17912468423E+02  0.11129263234E+03  0.10984167464E+03 0.  0.
        -11    1    3    3    0    0  0.16198369708E+02 -0.44614869315E+02  0.19038886977E+02  0.51140521727E+02  0.00000000000E+00 0.  1.
         11    1    3    3    0    0 -0.16198369708E+02  0.44614869315E+02 -0.36951355399E+02  0.60152110612E+02  0.00000000000E+00 0. -1.
<mgrwt>
<rscale>  0 0.10984167E+03</rscale>
<asrwt>0</asrwt>
<pdfrwt beam="2">  1        2 0.99388539E-02 0.10984167E+03</pdfrwt>
<pdfrwt beam="1">  1       -2 0.71830895E-02 0.10984167E+03</pdfrwt>
<totfact> 0.63536332E+04</totfact>
</mgrwt>
</event>
<event>
 5    1  0.1256986E+001  0.9260098E+02  0.7546771E-02  0.1296673E+00
         -2   -1    0    0    0  501 -0.00000000000E+00  0.00000000000E+00  0.20376012675E+02  0.20376012675E+02  0.00000000000E+00 0.  1.
          2   -1    0    0  501    0  0.00000000000E+00 -0.00000000000E+00 -0.10520877901E+03  0.10520877901E+03  0.00000000000E+00 0. -1.
         23    2    1    2    0    0  0.00000000000E+00  0.00000000000E+00 -0.84832766332E+02  0.12558479168E+03  0.92600980870E+02 0.  0.
        -13    1    3    3    0    0 -0.17642538473E+02 -0.28950121625E+01 -0.10033860433E+03  0.10191896672E+03  0.00000000000E+00 0. -1.
         13    1    3    3    0    0  0.17642538473E+02  0.28950121625E+01  0.15505837994E+02  0.23665824961E+02  0.00000000000E+00 0.  1.
<mgrwt>
<rscale>  0 0.92600981E+02</rscale>
<asrwt>0</asrwt>
<pdfrwt beam="2">  1        2 0.16185966E-01 0.92600981E+02</pdfrwt>
<pdfrwt beam="1">  1       -2 0.31347712E-02 0.92600981E+02</pdfrwt>
<totfact> 0.11939659E+05</totfact>
</mgrwt>
</event>
<event>
 5    1  0.1256986E+001  0.8888187E+02  0.7546771E-02  0.1305582E+00
         -1   -1    0    0    0  501 -0.00000000000E+00  0.00000000000E+00  0.17261919842E+03  0.17261919842E+03  0.00000000000E+00 0.  1.
          1   -1    0    0  501    0  0.00000000000E+00 -0.00000000000E+00 -0.11441349549E+02  0.11441349549E+02  0.00000000000E+00 0. -1.
         23    2    1    2    0    0  0.00000000000E+00  0.00000000000E+00  0.16117784888E+03  0.18406054797E+03  0.88881867398E+02 0.  0.
        -13    1    3    3    0    0 -0.36583508170E+02 -0.15200068823E+02  0.38883045656E+02  0.55509336168E+02  0.00000000000E+00 0. -1.
         13    1    3    3    0    0  0.36583508170E+02  0.15200068823E+02  0.12229480322E+03  0.12855121181E+03  0.00000000000E+00 0.  1.
<mgrwt>
<rscale>  0 0.88881867E+02</rscale>
<asrwt>0</asrwt>
<pdfrwt beam="2">  1        1 0.17602077E-02 0.88881867E+02</pdfrwt>
<pdfrwt beam="1">  1       -1 0.26556798E-01 0.88881867E+02</pdfrwt>
<totfact> 0.77200340E+04</totfact>
</mgrwt>
</event>
<event>
 5    1  0.1256986E+001  0.9040359E+02  0.7546771E-02  0.1301877E+00
          2   -1    0    0  501    0  0.00000000000E+00  0.00000000000E+00  0.21133028243E+02  0.21133028243E+02  0.00000000000E+00 0. -1.
         -2   -1    0    0    0  501 -0.00000000000E+00 -0.00000000000E+00 -0.96682900772E+02  0.96682900772E+02  0.00000000000E+00 0.  1.
         23    2    1    2    0    0  0.00000000000E+00  0.00000000000E+00 -0.75549872529E+02  0.11781592901E+03  0.90403594455E+02 0.  0.
        -13    1    3    3    0    0 -0.26086741702E+02 -0.13180010674E+02 -0.82711935934E+02  0.87723971182E+02  0.00000000000E+00 0.  1.
         13    1    3    3    0    0  0.26086741702E+02  0.13180010674E+02  0.71620634050E+01  0.30091957833E+02  0.00000000000E+00 0. -1.
<mgrwt>
<rscale>  0 0.90403594E+02</rscale>
<asrwt>0</asrwt>
<pdfrwt beam="1">  1        2 0.32512351E-02 0.90403594E+02</pdfrwt>
<pdfrwt beam="2">  1       -2 0.14874293E-01 0.90403594E+02</pdfrwt>
<totfact> 0.82330754E+04</totfact>
</mgrwt>
</event>
<event>
 5    1  0.1256986E+001  0.8904827E+02  0.7546771E-02  0.1305173E+00
          1   -1    0    0  501    0  0.00000000000E+00  0.00000000000E+00  0.92717683940E+01  0.92717683940E+01  0.00000000000E+00 0. -1.
         -1   -1    0    0    0  501 -0.00000000000E+00 -0.00000000000E+00 -0.21381017562E+03  0.21381017562E+03  0.00000000000E+00 0.  1.
         23    2    1    2    0    0  0.00000000000E+00  0.00000000000E+00 -0.20453840723E+03  0.22308194402E+03  0.89048266208E+02 0.  0.
        -11    1    3    3    0    0  0.13533445715E+02 -0.31361554486E+02 -0.30720226104E+02  0.45939455205E+02  0.00000000000E+00 0. -1.
         11    1    3    3    0    0 -0.13533445715E+02  0.31361554486E+02 -0.17381818113E+03  0.17714248881E+03  0.00000000000E+00 0.  1.
<mgrwt>
<rscale>  0 0.89048266E+02</rscale>
<asrwt>0</asrwt>
<pdfrwt beam="1">  1        1 0.14264258E-02 0.89048266E+02</pdfrwt>
<pdfrwt beam="2">  1       -1 0.32893875E-01 0.89048266E+02</pdfrwt>
<totfact> 0.72397493E+04</totfact>
</mgrwt>
</event>
<event>
 5    1  0.1256986E+001  0.9448839E+02  0.7546771E-02  0.1292333E+00
          1   -1    0    0  501    0  0.00000000000E+00  0.00000000000E+00  0.11566412505E+03  0.11566412505E+03  0.00000000000E+00 0. -1.
         -1   -1    0    0    0  501 -0.00000000000E+00 -0.00000000000E+00 -0.19297373735E+02  0.19297373735E+02  0.00000000000E+00 0.  1.
         23    2    1    2    0    0  0.00000000000E+00  0.00000000000E+00  0.96366751316E+02  0.13496149879E+03  0.94488387621E+02 0.  0.
        -13    1    3    3    0    0  0.19569340549E+02 -0.39586692246E+02  0.24199664125E+02  0.50355625667E+02  0.00000000000E+00 0. -1.
         13    1    3    3    0    0 -0.19569340549E+02  0.39586692246E+02  0.72167087191E+02  0.84605873118E+02  0.00000000000E+00 0.  1.
<mgrwt>
<rscale>  0 0.94488388E+02</rscale>
<asrwt>0</asrwt>
<pdfrwt beam="1">  1        1 0.17794480E-01 0.94488388E+02</pdfrwt>
<pdfrwt beam="2">  1       -1 0.29688268E-02 0.94488388E+02</pdfrwt>
<totfact> 0.97143990E+04</totfact>
</mgrwt>
</event>
<event>
 5    1  0.1256986E+001  0.9273101E+02  0.7546771E-02  0.1296370E+00
          1   -1    0    0  501    0  0.00000000000E+00  0.00000000000E+00  0.13880738422E+03  0.13880738422E+03  0.00000000000E+00 0. -1.
         -1   -1    0    0    0  501 -0.00000000000E+00 -0.00000000000E+00 -0.15487360818E+02  0.15487360818E+02  0.00000000000E+00 0.  1.
         23    2    1    2    0    0  0.00000000000E+00  0.00000000000E+00  0.12332002340E+03  0.15429474503E+03  0.92731009778E+02 0.  0.
        -11    1    3    3    0    0  0.16095972136E+02  0.42645782372E+02  0.47539723196E+02  0.65861736651E+02  0.00000000000E+00 0. -1.
         11    1    3    3    0    0 -0.16095972136E+02 -0.42645782372E+02  0.75780300201E+02  0.88433008383E+02  0.00000000000E+00 0.  1.
<mgrwt>
<rscale>  0 0.92731010E+02</rscale>
<asrwt>0</asrwt>
<pdfrwt beam="1">  1        1 0.21354981E-01 0.92731010E+02</pdfrwt>
<pdfrwt beam="2">  1       -1 0.23826710E-02 0.92731010E+02</pdfrwt>
<totfact> 0.10561332E+05</totfact>
</mgrwt>
</event>
<event>
 5    1  0.1256986E+001  0.9132666E+02  0.7546771E-02  0.1299670E+00
          1   -1    0    0  501    0  0.00000000000E+00  0.00000000000E+00  0.96833838165E+01  0.96833838165E+01  0.00000000000E+00 0. -1.
         -1   -1    0    0    0  501 -0.00000000000E+00 -0.00000000000E+00 -0.21533172391E+03  0.21533172391E+03  0.00000000000E+00 0.  1.
         23    2    1    2    0    0  0.00000000000E+00  0.00000000000E+00 -0.20564834009E+03  0.22501510773E+03  0.91326660521E+02 0.  0.
        -13    1    3    3    0    0 -0.27635147410E+02 -0.30737985583E+02 -0.15063900675E+03  0.15620702764E+03  0.00000000000E+00 0. -1.
         13    1    3    3    0    0  0.27635147410E+02  0.30737985583E+02 -0.55009333348E+02  0.68808080089E+02  0.00000000000E+00 0.  1.
<mgrwt>
<rscale>  0 0.91326661E+02</rscale>
<asrwt>0</asrwt>
<pdfrwt beam="1">  1        1 0.14897514E-02 0.91326661E+02</pdfrwt>
<pdfrwt beam="2">  1       -1 0.33127957E-01 0.91326661E+02</pdfrwt>
<totfact> 0.67642962E+04</totfact>
</mgrwt>
</event>
<event>
 5    1  0.1256986E+001  0.8996201E+02  0.7546771E-02  0.1302944E+00
          3   -1    0    0  501    0  0.00000000000E+00  0.00000000000E+00  0.34447575453E+02  0.34447575453E+02  0.00000000000E+00 0. -1.
         -3   -1    0    0    0  501 -0.00000000000E+00 -0.00000000000E+00 -0.58735356921E+02  0.58735356921E+02  0.00000000000E+00 0.  1.
         23    2    1    2    0    0  0.00000000000E+00  0.00000000000E+00 -0.24287781468E+02  0.93182932373E+02  0.89962006186E+02 0.  0.
        -13    1    3    3    0    0  0.11738544580E+02  0.32566493661E+02 -0.41893642235E+02  0.54345627220E+02  0.00000000000E+00 0.  1.
         13    1    3    3    0    0 -0.11738544580E+02 -0.32566493661E+02  0.17605860767E+02  0.38837305153E+02  0.00000000000E+00 0. -1.
<mgrwt>
<rscale>  0 0.89962006E+02</rscale>
<asrwt>0</asrwt>
<pdfrwt beam="1">  1        3 0.52996270E-02 0.89962006E+02</pdfrwt>
<pdfrwt beam="2">  1       -3 0.90362088E-02 0.89962006E+02</pdfrwt>
<totfact> 0.36492250E+04</totfact>
</mgrwt>
</event>
<event>
 5    1  0.1256986E+001  0.9236536E+02  0.7546771E-02  0.1297223E+00
          2   -1    0    0  501    0  0.00000000000E+00  0.00000000000E+00  0.65264758088E+02  0.65264758088E+02  0.00000000000E+00 0. -1.
         -2   -1    0    0    0  501 -0.00000000000E+00 -0.00000000000E+00 -0.32679807046E+02  0.32679807046E+02  0.00000000000E+00 0.  1.
         23    2    1    2    0    0  0.00000000000E+00  0.00000000000E+00  0.32584951042E+02  0.97944565134E+02  0.92365355003E+02 0.  0.
        -13    1    3    3    0    0  0.25198514605E+02 -0.25893377153E+02 -0.14209712010E+02  0.38824580282E+02  0.00000000000E+00 0.  1.
         13    1    3    3    0    0 -0.25198514605E+02  0.25893377153E+02  0.46794663052E+02  0.59119984851E+02  0.00000000000E+00 0. -1.
<mgrwt>
<rscale>  0 0.92365355E+02</rscale>
<asrwt>0</asrwt>
<pdfrwt beam="1">  1        2 0.10040732E-01 0.92365355E+02</pdfrwt>
<pdfrwt beam="2">  1       -2 0.50276627E-02 0.92365355E+02</pdfrwt>
<totfact> 0.10462723E+05</totfact>
</mgrwt>
</event>
<event>
 5    1  0.1256986E+001  0.9103516E+02  0.7546771E-02  0.1300364E+00
         -2   -1    0    0    0  501 -0.00000000000E+00  0.00000000000E+00  0.19526825697E+02  0.19526825697E+02  0.00000000000E+00 0. -1.
          2   -1    0    0  501    0  0.00000000000E+00 -0.00000000000E+00 -0.10610275255E+03  0.10610275255E+03  0.00000000000E+00 0.  1.
         23    2    1    2    0    0  0.00000000000E+00  0.00000000000E+00 -0.86575926853E+02  0.12562957825E+03  0.91035157055E+02 0.  0.
        -13    1    3    3    0    0  0.36160809651E+02  0.13294576225E+02 -0.76737238308E+02  0.85865905077E+02  0.00000000000E+00 0.  1.
         13    1    3    3    0    0 -0.36160809651E+02 -0.13294576225E+02 -0.98386885453E+01  0.39763673169E+02  0.00000000000E+00 0. -1.
<mgrwt>
<rscale>  0 0.91035157E+02</rscale>
<asrwt>0</asrwt>
<pdfrwt beam="2">  1        2 0.16323500E-01 0.91035157E+02</pdfrwt>
<pdfrwt beam="1">  1       -2 0.30041270E-02 0.91035157E+02</pdfrwt>
<totfact> 0.12546314E+05</totfact>
</mgrwt>
</event>
<event>
 5    1  0.1256986E+001  0.8244746E+02  0.7546771E-02  0.1322246E+00
         -1   -1    0    0    0  501 -0.00000000000E+00  0.00000000000E+00  0.27830427616E+02  0.27830427616E+02  0.00000000000E+00 0.  1.
          1   -1    0    0  501    0  0.00000000000E+00 -0.00000000000E+00 -0.61062516629E+02  0.61062516629E+02  0.00000000000E+00 0. -1.
         23    2    1    2    0    0  0.00000000000E+00  0.00000000000E+00 -0.33232089013E+02  0.88892944245E+02  0.82447460824E+02 0.  0.
        -13    1    3    3    0    0 -0.29542503175E+02  0.17830577989E+02  0.77017306536E+01  0.35355419108E+02  0.00000000000E+00 0.  1.
         13    1    3    3    0    0  0.29542503175E+02 -0.17830577989E+02 -0.40933819667E+02  0.53537525137E+02  0.00000000000E+00 0. -1.
<mgrwt>
<rscale>  0 0.82447461E+02</rscale>
<asrwt>0</asrwt>
<pdfrwt beam="2">  1        1 0.93942333E-02 0.82447461E+02</pdfrwt>
<pdfrwt beam="1">  1       -1 0.42816042E-02 0.82447461E+02</pdfrwt>
<totfact> 0.12743220E+05</totfact>
</mgrwt>
</event>
<event>
 5    1  0.1256986E+001  0.9379491E+02  0.7546771E-02  0.1293914E+00
          2   -1    0    0  501    0  0.00000000000E+00  0.00000000000E+00  0.12285232326E+03  0.12285232326E+03  0.00000000000E+00 0. -1.
         -2   -1    0    0    0  501 -0.00000000000E+00 -0.00000000000E+00 -0.17902562904E+02  0.17902562904E+02  0.00000000000E+00 0.  1.
         23    2    1    2    0    0  0.00000000000E+00  0.00000000000E+00  0.10494976035E+03  0.14075488616E+03  0.93794913400E+02 0.  0.
        -11    1    3    3    0    0  0.30459082648E+02 -0.27454741484E+01 -0.87963119276E+00  0.30595213598E+02  0.00000000000E+00 0.  1.
         11    1    3    3    0    0 -0.30459082648E+02  0.27454741484E+01  0.10582939154E+03  0.11015967256E+03  0.00000000000E+00 0. -1.
<mgrwt>
<rscale>  0 0.93794913E+02</rscale>
<asrwt>0</asrwt>
<pdfrwt beam="1">  1        2 0.18900357E-01 0.93794913E+02</pdfrwt>
<pdfrwt beam="2">  1       -2 0.27542405E-02 0.93794913E+02</pdfrwt>
<totfact> 0.12108504E+05</totfact>
</mgrwt>
</event>
<event>
 5    1  0.1256986E+001  0.8911510E+02  0.7546771E-02  0.1305009E+00
         -2   -1    0    0    0  501 -0.00000000000E+00  0.00000000000E+00  0.11576706903E+02  0.11576706903E+02  0.00000000000E+00 0.  1.
          2   -1    0    0  501    0  0.00000000000E+00 -0.00000000000E+00 -0.17149742434E+03  0.17149742434E+03  0.00000000000E+00 0. -1.
         23    2    1    2    0    0  0.00000000000E+00  0.00000000000E+00 -0.15992071744E+03  0.18307413124E+03  0.89115103461E+02 0.  0.
        -13    1    3    3    0    0 -0.33986155777E+02 -0.27794605999E+02 -0.64345023382E+02  0.77896604170E+02  0.00000000000E+00 0.  1.
         13    1    3    3    0    0  0.33986155777E+02  0.27794605999E+02 -0.95575694056E+02  0.10517752707E+03  0.00000000000E+00 0. -1.
<mgrwt>
<rscale>  0 0.89115103E+02</rscale>
<asrwt>0</asrwt>
<pdfrwt beam="2">  1        2 0.26384217E-01 0.89115103E+02</pdfrwt>
<pdfrwt beam="1">  1       -2 0.17810319E-02 0.89115103E+02</pdfrwt>
<totfact> 0.15574621E+05</totfact>
</mgrwt>
</event>
<event>
 5    1  0.1256986E+001  0.9269752E+02  0.7546771E-02  0.1296448E+00
         -2   -1    0    0    0  501 -0.00000000000E+00  0.00000000000E+00  0.74683678723E+02  0.74683678723E+02  0.00000000000E+00 0.  1.
          2   -1    0    0  501    0  0.00000000000E+00 -0.00000000000E+00 -0.28764082426E+02  0.28764082426E+02  0.00000000000E+00 0. -1.
         23    2    1    2    0    0  0.00000000000E+00  0.00000000000E+00  0.45919596297E+02  0.10344776115E+03  0.92697518644E+02 0.  0.
        -13    1    3    3    0    0  0.36852452981E+01  0.12511056591E+02 -0.26673953096E+02  0.29691873362E+02  0.00000000000E+00 0. -1.
         13    1    3    3    0    0 -0.36852452981E+01 -0.12511056591E+02  0.72593549393E+02  0.73755887788E+02  0.00000000000E+00 0.  1.
<mgrwt>
<rscale>  0 0.92697519E+02</rscale>
<asrwt>0</asrwt>
<pdfrwt beam="2">  1        2 0.44252435E-02 0.92697519E+02</pdfrwt>
<pdfrwt beam="1">  1       -2 0.11489797E-01 0.92697519E+02</pdfrwt>
<totfact> 0.83255056E+04</totfact>
</mgrwt>
</event>
<event>
 5    1  0.1256986E+001  0.9145756E+02  0.7546771E-02  0.1299360E+00
         -1   -1    0    0    0  501 -0.00000000000E+00  0.00000000000E+00  0.61717625723E+02  0.61717625723E+02  0.00000000000E+00 0.  1.
          1   -1    0    0  501    0  0.00000000000E+00 -0.00000000000E+00 -0.33882075598E+02  0.33882075598E+02  0.00000000000E+00 0. -1.
         23    2    1    2    0    0  0.00000000000E+00  0.00000000000E+00  0.27835550125E+02  0.95599701321E+02  0.91457558692E+02 0.  0.
        -13    1    3    3    0    0  0.34227506224E+01 -0.28448791247E+02 -0.23334358872E+02  0.36953230566E+02  0.00000000000E+00 0. -1.
         13    1    3    3    0    0 -0.34227506224E+01  0.28448791247E+02  0.51169908997E+02  0.58646470755E+02  0.00000000000E+00 0.  1.
<mgrwt>
<rscale>  0 0.91457559E+02</rscale>
<asrwt>0</asrwt>
<pdfrwt beam="2">  1        1 0.52126270E-02 0.91457559E+02</pdfrwt>
<pdfrwt beam="1">  1       -1 0.94950193E-02 0.91457559E+02</pdfrwt>
<totfact> 0.87603467E+04</totfact>
</mgrwt>
</event>
<event>
 5    1  0.1256986E+001  0.9140737E+02  0.7546771E-02  0.1299479E+00
         -1   -1    0    0    0  501 -0.00000000000E+00  0.00000000000E+00  0.18929961507E+02  0.18929961507E+02  0.00000000000E+00 0.  1.
          1   -1    0    0  501    0  0.00000000000E+00 -0.00000000000E+00 -0.11034502338E+03  0.11034502338E+03  0.00000000000E+00 0. -1.
         23    2    1    2    0    0  0.00000000000E+00  0.00000000000E+00 -0.91415061869E+02  0.12927498488E+03  0.91407374868E+02 0.  0.
        -11    1    3    3    0    0  0.50908620682E+01  0.31994508152E+02 -0.11478988803E+00  0.32397200577E+02  0.00000000000E+00 0.  1.
         11    1    3    3    0    0 -0.50908620682E+01 -0.31994508152E+02 -0.91300271981E+02  0.96877784307E+02  0.00000000000E+00 0. -1.
<mgrwt>
<rscale>  0 0.91407375E+02</rscale>
<asrwt>0</asrwt>
<pdfrwt beam="2">  1        1 0.16976157E-01 0.91407375E+02</pdfrwt>
<pdfrwt beam="1">  1       -1 0.29123019E-02 0.91407375E+02</pdfrwt>
<totfact> 0.10546909E+05</totfact>
</mgrwt>
</event>
<event>
 5    1  0.1256986E+001  0.9100596E+02  0.7546771E-02  0.1300434E+00
          1   -1    0    0  501    0  0.00000000000E+00  0.00000000000E+00  0.10766786067E+03  0.10766786067E+03  0.00000000000E+00 0. -1.
         -1   -1    0    0    0  501 -0.00000000000E+00 -0.00000000000E+00 -0.19230635406E+02  0.19230635406E+02  0.00000000000E+00 0.  1.
         23    2    1    2    0    0  0.00000000000E+00  0.00000000000E+00  0.88437225267E+02  0.12689849608E+03  0.91005964058E+02 0.  0.
        -11    1    3    3    0    0  0.12797041750E+02  0.31395992151E+02  0.86536885506E+02  0.92941407100E+02  0.00000000000E+00 0. -1.
         11    1    3    3    0    0 -0.12797041750E+02 -0.31395992151E+02  0.19003397608E+01  0.33957088978E+02  0.00000000000E+00 0.  1.
<mgrwt>
<rscale>  0 0.91005964E+02</rscale>
<asrwt>0</asrwt>
<pdfrwt beam="1">  1        1 0.16564286E-01 0.91005964E+02</pdfrwt>
<pdfrwt beam="2">  1       -1 0.29585594E-02 0.91005964E+02</pdfrwt>
<totfact> 0.10629582E+05</totfact>
</mgrwt>
</event>
<event>
 5    1  0.1256986E+001  0.9373390E+02  0.7546771E-02  0.1294053E+00
          1   -1    0    0  501    0  0.00000000000E+00  0.00000000000E+00  0.13562154744E+03  0.13562154744E+03  0.00000000000E+00 0. -1.
         -1   -1    0    0    0  501 -0.00000000000E+00 -0.00000000000E+00 -0.16195886192E+02  0.16195886192E+02  0.00000000000E+00 0.  1.
         23    2    1    2    0    0  0.00000000000E+00  0.00000000000E+00  0.11942566124E+03  0.15181743363E+03  0.93733903096E+02 0.  0.
        -13    1    3    3    0    0 -0.34707423427E+02  0.55601550240E+01  0.95034909180E+01  0.36412043398E+02  0.00000000000E+00 0.  1.
         13    1    3    3    0    0  0.34707423427E+02 -0.55601550240E+01  0.10992217033E+03  0.11540539023E+03  0.00000000000E+00 0. -1.
<mgrwt>
<rscale>  0 0.93733903E+02</rscale>
<asrwt>0</asrwt>
<pdfrwt beam="1">  1        1 0.20864853E-01 0.93733903E+02</pdfrwt>
<pdfrwt beam="2">  1       -1 0.24916749E-02 0.93733903E+02</pdfrwt>
<totfact> 0.10214446E+05</totfact>
</mgrwt>
</event>
<event>
 5    1  0.1256986E+001  0.9033852E+02  0.7546771E-02  0.1302034E+00
          2   -1    0    0  501    0  0.00000000000E+00  0.00000000000E+00  0.20836530874E+03  0.20836530874E+03  0.00000000000E+00 0. -1.
         -2   -1    0    0    0  501 -0.00000000000E+00 -0.00000000000E+00 -0.97917539239E+01  0.97917539239E+01  0.00000000000E+00 0.  1.
         23    2    1    2    0    0  0.00000000000E+00  0.00000000000E+00  0.19857355482E+03  0.21815706267E+03  0.90338515142E+02 0.  0.
        -11    1    3    3    0    0  0.42196453952E+02  0.16110495959E+02  0.10029127447E+03  0.10999285677E+03  0.00000000000E+00 0. -1.
         11    1    3    3    0    0 -0.42196453952E+02 -0.16110495959E+02  0.98282280350E+02  0.10816420590E+03  0.00000000000E+00 0.  1.
<mgrwt>
<rscale>  0 0.90338515E+02</rscale>
<asrwt>0</asrwt>
<pdfrwt beam="1">  1        2 0.32056198E-01 0.90338515E+02</pdfrwt>
<pdfrwt beam="2">  1       -2 0.15064238E-02 0.90338515E+02</pdfrwt>
<totfact> 0.16094061E+05</totfact>
</mgrwt>
</event>
<event>
 5    1  0.1256986E+001  0.9247813E+02  0.7546771E-02  0.1296959E+00
         -2   -1    0    0    0  501 -0.00000000000E+00  0.00000000000E+00  0.37261762254E+02  0.37261762254E+02  0.00000000000E+00 0.  1.
          2   -1    0    0  501    0  0.00000000000E+00 -0.00000000000E+00 -0.57379232388E+02  0.57379232388E+02  0.00000000000E+00 0. -1.
         23    2    1    2    0    0  0.00000000000E+00  0.00000000000E+00 -0.20117470134E+02  0.94640994642E+02  0.92478133969E+02 0.  0.
        -13    1    3    3    0    0 -0.13271008235E+02 -0.18656419789E+01 -0.55348138183E+02  0.56947490550E+02  0.00000000000E+00 0. -1.
         13    1    3    3    0    0  0.13271008235E+02  0.18656419789E+01  0.35230668049E+02  0.37693504093E+02  0.00000000000E+00 0.  1.
<mgrwt>
<rscale>  0 0.92478134E+02</rscale>
<asrwt>0</asrwt>
<pdfrwt beam="2">  1        2 0.88275741E-02 0.92478134E+02</pdfrwt>
<pdfrwt beam="1">  1       -2 0.57325789E-02 0.92478134E+02</pdfrwt>
<totfact> 0.10068470E+05</totfact>
</mgrwt>
</event>
<event>
 5    1  0.1256986E+001  0.9066982E+02  0.7546771E-02  0.1301238E+00
         -2   -1    0    0    0  501 -0.00000000000E+00  0.00000000000E+00  0.88633755984E+02  0.88633755984E+02  0.00000000000E+00 0.  1.
          2   -1    0    0  501    0  0.00000000000E+00 -0.00000000000E+00 -0.23188165889E+02  0.23188165889E+02  0.00000000000E+00 0. -1.
         23    2    1    2    0    0  0.00000000000E+00  0.00000000000E+00  0.65445590095E+02  0.11182192187E+03  0.90669823802E+02 0.  0.
        -13    1    3    3    0    0 -0.31575928258E+02  0.16476048242E+02 -0.18698593650E+01  0.35665049910E+02  0.00000000000E+00 0. -1.
         13    1    3    3    0    0  0.31575928258E+02 -0.16476048242E+02  0.67315449460E+02  0.76156871962E+02  0.00000000000E+00 0.  1.
<mgrwt>
<rscale>  0 0.90669824E+02</rscale>
<asrwt>0</asrwt>
<pdfrwt beam="2">  1        2 0.35674102E-02 0.90669824E+02</pdfrwt>
<pdfrwt beam="1">  1       -2 0.13635962E-01 0.90669824E+02</pdfrwt>
<totfact> 0.83812663E+04</totfact>
</mgrwt>
</event>
<event>
 5    1  0.1256986E+001  0.9290112E+02  0.7546771E-02  0.1295974E+00
         -1   -1    0    0    0  501 -0.00000000000E+00  0.00000000000E+00  0.14076451761E+02  0.14076451761E+02  0.00000000000E+00 0.  1.
          1   -1    0    0  501    0  0.00000000000E+00 -0.00000000000E+00 -0.15328114564E+03  0.15328114564E+03  0.00000000000E+00 0. -1.
         23    2    1    2    0    0  0.00000000000E+00  0.00000000000E+00 -0.13920469388E+03  0.16735759740E+03  0.92901122760E+02 0.  0.
        -11    1    3    3    0    0 -0.28080923454E+02  0.21257243307E+02 -0.15043223727E+02  0.38297613962E+02  0.00000000000E+00 0.  1.
         11    1    3    3    0    0  0.28080923454E+02 -0.21257243307E+02 -0.12416147015E+03  0.12905998344E+03  0.00000000000E+00 0. -1.
<mgrwt>
<rscale>  0 0.92901123E+02</rscale>
<asrwt>0</asrwt>
<pdfrwt beam="2">  1        1 0.23581716E-01 0.92901123E+02</pdfrwt>
<pdfrwt beam="1">  1       -1 0.21656078E-02 0.92901123E+02</pdfrwt>
<totfact> 0.10702421E+05</totfact>
</mgrwt>
</event>
<event>
 5    1  0.1256986E+001  0.9162894E+02  0.7546771E-02  0.1298954E+00
          2   -1    0    0  501    0  0.00000000000E+00  0.00000000000E+00  0.17530603056E+03  0.17530603056E+03  0.00000000000E+00 0. -1.
         -2   -1    0    0    0  501 -0.00000000000E+00 -0.00000000000E+00 -0.11973152214E+02  0.11973152214E+02  0.00000000000E+00 0.  1.
         23    2    1    2    0    0  0.00000000000E+00  0.00000000000E+00  0.16333287834E+03  0.18727918277E+03  0.91628942761E+02 0.  0.
        -13    1    3    3    0    0  0.25450463008E+02  0.26791919348E+02  0.26313971411E+02  0.45364723090E+02  0.00000000000E+00 0.  1.
         13    1    3    3    0    0 -0.25450463008E+02 -0.26791919348E+02  0.13701890693E+03  0.14191445968E+03  0.00000000000E+00 0. -1.
<mgrwt>
<rscale>  0 0.91628943E+02</rscale>
<asrwt>0</asrwt>
<pdfrwt beam="1">  1        2 0.26970157E-01 0.91628943E+02</pdfrwt>
<pdfrwt beam="2">  1       -2 0.18420236E-02 0.91628943E+02</pdfrwt>
<totfact> 0.14559978E+05</totfact>
</mgrwt>
</event>
<event>
 5    1  0.1256986E+001  0.9119849E+02  0.7546771E-02  0.1299975E+00
         -1   -1    0    0    0  501 -0.00000000000E+00  0.00000000000E+00  0.18240553333E+03  0.18240553333E+03  0.00000000000E+00 0.  1.
          1   -1    0    0  501    0  0.00000000000E+00 -0.00000000000E+00 -0.11399276238E+02  0.11399276238E+02  0.00000000000E+00 0. -1.
         23    2    1    2    0    0  0.00000000000E+00  0.00000000000E+00  0.17100625709E+03  0.19380480957E+03  0.91198488186E+02 0.  0.
        -11    1    3    3    0    0 -0.37827605950E+02  0.30610325909E+01  0.13922177823E+03  0.14430177139E+03  0.00000000000E+00 0.  1.
         11    1    3    3    0    0  0.37827605950E+02 -0.30610325909E+01  0.31784478862E+02  0.49503038179E+02  0.00000000000E+00 0. -1.
<mgrwt>
<rscale>  0 0.91198488E+02</rscale>
<asrwt>0</asrwt>
<pdfrwt beam="2">  1        1 0.17537349E-02 0.91198488E+02</pdfrwt>
<pdfrwt beam="1">  1       -1 0.28062388E-01 0.91198488E+02</pdfrwt>
<totfact> 0.71172835E+04</totfact>
</mgrwt>
</event>
<event>
 5    1  0.1256986E+001  0.9404268E+02  0.7546771E-02  0.1293347E+00
         -2   -1    0    0    0  501 -0.00000000000E+00  0.00000000000E+00  0.19686840984E+02  0.19686840984E+02  0.00000000000E+00 0.  1.
          2   -1    0    0  501    0  0.00000000000E+00 -0.00000000000E+00 -0.11230885228E+03  0.11230885228E+03  0.00000000000E+00 0. -1.
         23    2    1    2    0    0  0.00000000000E+00  0.00000000000E+00 -0.92622011294E+02  0.13199569326E+03  0.94042682137E+02 0.  0.
        -11    1    3    3    0    0 -0.39929660936E+02  0.91494447295E+01 -0.13909568116E+02  0.43261602449E+02  0.00000000000E+00 0.  1.
         11    1    3    3    0    0  0.39929660936E+02 -0.91494447295E+01 -0.78712443178E+02  0.88734090813E+02  0.00000000000E+00 0. -1.
<mgrwt>
<rscale>  0 0.94042682E+02</rscale>
<asrwt>0</asrwt>
<pdfrwt beam="2">  1        2 0.17278285E-01 0.94042682E+02</pdfrwt>
<pdfrwt beam="1">  1       -2 0.30287447E-02 0.94042682E+02</pdfrwt>
<totfact> 0.11679215E+05</totfact>
</mgrwt>
</event>
<event>
 5    1  0.1256986E+001  0.8720207E+02  0.7546771E-02  0.1309772E+00
         -3   -1    0    0    0  501 -0.00000000000E+00  0.00000000000E+00  0.98122367602E+01  0.98122367602E+01  0.00000000000E+00 0.  1.
          3   -1    0    0  501    0  0.00000000000E+00 -0.00000000000E+00 -0.19374278139E+03  0.19374278139E+03  0.00000000000E+00 0. -1.
         23    2    1    2    0    0  0.00000000000E+00  0.00000000000E+00 -0.18393054463E+03  0.20355501815E+03  0.87202065150E+02 0.  0.
        -11    1    3    3    0    0  0.27511068375E+02 -0.33190036720E+02 -0.76727405729E+02  0.88008705311E+02  0.00000000000E+00 0.  1.
         11    1    3    3    0    0 -0.27511068375E+02  0.33190036720E+02 -0.10720313890E+03  0.11554631284E+03  0.00000000000E+00 0. -1.
<mgrwt>
<rscale>  0 0.87202065E+02</rscale>
<asrwt>0</asrwt>
<pdfrwt beam="2">  1        3 0.29806577E-01 0.87202065E+02</pdfrwt>
<pdfrwt beam="1">  1       -3 0.15095751E-02 0.87202065E+02</pdfrwt>
<totfact> 0.31918098E+04</totfact>
</mgrwt>
</event>
<event>
 5    1  0.1256986E+001  0.9356271E+02  0.7546771E-02  0.1294446E+00
         -3   -1    0    0    0  501 -0.00000000000E+00  0.00000000000E+00  0.63087370380E+02  0.63087370380E+02  0.00000000000E+00 0.  1.
          3   -1    0    0  501    0  0.00000000000E+00 -0.00000000000E+00 -0.34689911515E+02  0.34689911515E+02  0.00000000000E+00 0. -1.
         23    2    1    2    0    0  0.00000000000E+00  0.00000000000E+00  0.28397458865E+02  0.97777281894E+02  0.93562712576E+02 0.  0.
        -11    1    3    3    0    0  0.38060994351E+02 -0.18621876588E+02 -0.65206421062E+01  0.42871113260E+02  0.00000000000E+00 0. -1.
         11    1    3    3    0    0 -0.38060994351E+02  0.18621876588E+02  0.34918100971E+02  0.54906168634E+02  0.00000000000E+00 0.  1.
<mgrwt>
<rscale>  0 0.93562713E+02</rscale>
<asrwt>0</asrwt>
<pdfrwt beam="2">  1        3 0.53369095E-02 0.93562713E+02</pdfrwt>
<pdfrwt beam="1">  1       -3 0.97057493E-02 0.93562713E+02</pdfrwt>
<totfact> 0.32465070E+04</totfact>
</mgrwt>
</event>
<event>
 5    1  0.1256986E+001  0.9141917E+02  0.7546771E-02  0.1299451E+00
          1   -1    0    0  501    0  0.00000000000E+00  0.00000000000E+00  0.16766833243E+02  0.16766833243E+02  0.00000000000E+00 0. -1.
         -1   -1    0    0    0  501 -0.00000000000E+00 -0.00000000000E+00 -0.12461303326E+03  0.12461303326E+03  0.00000000000E+00 0.  1.
         23    2    1    2    0    0  0.00000000000E+00  0.00000000000E+00 -0.10784620002E+03  0.14137986650E+03  0.91419165357E+02 0.  0.
        -11    1    3    3    0    0  0.39697304297E+02  0.93591030480E+01 -0.22007523581E+02  0.46344361820E+02  0.00000000000E+00 0. -1.
         11    1    3    3    0    0 -0.39697304297E+02 -0.93591030480E+01 -0.85838676437E+02  0.95035504685E+02  0.00000000000E+00 0.  1.
<mgrwt>
<rscale>  0 0.91419165E+02</rscale>
<asrwt>0</asrwt>
<pdfrwt beam="1">  1        1 0.25795129E-02 0.91419165E+02</pdfrwt>
<pdfrwt beam="2">  1       -1 0.19171235E-01 0.91419165E+02</pdfrwt>
<totfact> 0.77386436E+04</totfact>
</mgrwt>
</event>
<event>
 5    1  0.1256986E+001  0.9170947E+02  0.7546771E-02  0.1298764E+00
         -1   -1    0    0    0  501 -0.00000000000E+00  0.00000000000E+00  0.16397074797E+03  0.16397074797E+03  0.00000000000E+00 0.  1.
          1   -1    0    0  501    0  0.00000000000E+00 -0.00000000000E+00 -0.12823363594E+02  0.12823363594E+02  0.00000000000E+00 0. -1.
         23    2    1    2    0    0  0.00000000000E+00  0.00000000000E+00  0.15114738437E+03  0.17679411156E+03  0.91709465595E+02 0.  0.
        -13    1    3    3    0    0 -0.34079113657E+02 -0.30266038360E+02  0.85258174392E+02  0.96676653678E+02  0.00000000000E+00 0.  1.
         13    1    3    3    0    0  0.34079113657E+02  0.30266038360E+02  0.65889209979E+02  0.80117457882E+02  0.00000000000E+00 0. -1.
<mgrwt>
<rscale>  0 0.91709466E+02</rscale>
<asrwt>0</asrwt>
<pdfrwt beam="2">  1        1 0.19728253E-02 0.91709466E+02</pdfrwt>
<pdfrwt beam="1">  1       -1 0.25226267E-01 0.91709466E+02</pdfrwt>
<totfact> 0.72099058E+04</totfact>
</mgrwt>
</event>
<event>
 5    1  0.1256986E+001  0.1008703E+03  0.7546771E-02  0.1278476E+00
          2   -1    0    0  501    0  0.00000000000E+00  0.00000000000E+00  0.26661649900E+03  0.26661649900E+03  0.00000000000E+00 0. -1.
         -2   -1    0    0    0  501 -0.00000000000E+00 -0.00000000000E+00 -0.95406872513E+01  0.95406872513E+01  0.00000000000E+00 0.  1.
         23    2    1    2    0    0  0.00000000000E+00  0.00000000000E+00  0.25707581175E+03  0.27615718625E+03  0.10087030550E+03 0.  0.
        -13    1    3    3    0    0  0.24405339997E+02 -0.43792483128E+02  0.14360854848E+03  0.15210791365E+03  0.00000000000E+00 0.  1.
         13    1    3    3    0    0 -0.24405339997E+02  0.43792483128E+02  0.11346726327E+03  0.12404927260E+03  0.00000000000E+00 0. -1.
<mgrwt>
<rscale>  0 0.10087031E+03</rscale>
<asrwt>0</asrwt>
<pdfrwt beam="1">  1        2 0.41017917E-01 0.10087031E+03</pdfrwt>
<pdfrwt beam="2">  1       -2 0.14677982E-02 0.10087031E+03</pdfrwt>
<totfact> 0.13099587E+05</totfact>
</mgrwt>
</event>
<event>
 5    1  0.1256986E+001  0.9256461E+02  0.7546771E-02  0.1296757E+00
          1   -1    0    0  501    0  0.00000000000E+00  0.00000000000E+00  0.12078753090E+03  0.12078753090E+03  0.00000000000E+00 0. -1.
         -1   -1    0    0    0  501 -0.00000000000E+00 -0.00000000000E+00 -0.17734047939E+02  0.17734047939E+02  0.00000000000E+00 0.  1.
         23    2    1    2    0    0  0.00000000000E+00  0.00000000000E+00  0.10305348297E+03  0.13852157884E+03  0.92564612321E+02 0.  0.
        -11    1    3    3    0    0  0.13995011917E+02  0.44115602140E+02  0.51634163415E+02  0.69340706244E+02  0.00000000000E+00 0.  1.
         11    1    3    3    0    0 -0.13995011917E+02 -0.44115602140E+02  0.51419319550E+02  0.69180872601E+02  0.00000000000E+00 0. -1.
<mgrwt>
<rscale>  0 0.92564612E+02</rscale>
<asrwt>0</asrwt>
<pdfrwt beam="1">  1        1 0.18582697E-01 0.92564612E+02</pdfrwt>
<pdfrwt beam="2">  1       -1 0.27283151E-02 0.92564612E+02</pdfrwt>
<totfact> 0.10352467E+05</totfact>
</mgrwt>
</event>
<event>
 5    1  0.1256986E+001  0.9012782E+02  0.7546771E-02  0.1302542E+00
         -1   -1    0    0    0  501 -0.00000000000E+00  0.00000000000E+00  0.24326491738E+02  0.24326491738E+02  0.00000000000E+00 0.  1.
          1   -1    0    0  501    0  0.00000000000E+00 -0.00000000000E+00 -0.83479190255E+02  0.83479190255E+02  0.00000000000E+00 0. -1.
         23    2    1    2    0    0  0.00000000000E+00  0.00000000000E+00 -0.59152698517E+02  0.10780568199E+03  0.90127816617E+02 0.  0.
        -13    1    3    3    0    0  0.20458817832E+02  0.23593988341E+02 -0.68437466050E+02  0.75225835138E+02  0.00000000000E+00 0. -1.
         13    1    3    3    0    0 -0.20458817832E+02 -0.23593988341E+02  0.92847675327E+01  0.32579846855E+02  0.00000000000E+00 0.  1.
<mgrwt>
<rscale>  0 0.90127817E+02</rscale>
<asrwt>0</asrwt>
<pdfrwt beam="2">  1        1 0.12842952E-01 0.90127817E+02</pdfrwt>
<pdfrwt beam="1">  1       -1 0.37425372E-02 0.90127817E+02</pdfrwt>
<totfact> 0.10469010E+05</totfact>
</mgrwt>
</event>
<event>
 5    1  0.1256986E+001  0.9416160E+02  0.7546771E-02  0.1293076E+00
          1   -1    0    0  501    0  0.00000000000E+00  0.00000000000E+00  0.12987416502E+02  0.12987416502E+02  0.00000000000E+00 0. -1.
         -1   -1    0    0    0  501 -0.00000000000E+00 -0.00000000000E+00 -0.17067304440E+03  0.17067304440E+03  0.00000000000E+00 0.  1.
         23    2    1    2    0    0  0.00000000000E+00  0.00000000000E+00 -0.15768562790E+03  0.18366046090E+03  0.94161603923E+02 0.  0.
        -11    1    3    3    0    0 -0.35322478704E+02  0.60020152653E+01 -0.13841717883E+03  0.14297907918E+03  0.00000000000E+00 0.  1.
         11    1    3    3    0    0  0.35322478704E+02 -0.60020152653E+01 -0.19268449068E+02  0.40681381719E+02  0.00000000000E+00 0. -1.
<mgrwt>
<rscale>  0 0.94161604E+02</rscale>
<asrwt>0</asrwt>
<pdfrwt beam="1">  1        1 0.19980642E-02 0.94161604E+02</pdfrwt>
<pdfrwt beam="2">  1       -1 0.26257390E-01 0.94161604E+02</pdfrwt>
<totfact> 0.66633974E+04</totfact>
</mgrwt>
</event>
<event>
 5    1  0.1256986E+001  0.9170982E+02  0.7546771E-02  0.1298763E+00
         -3   -1    0    0    0  501 -0.00000000000E+00  0.00000000000E+00  0.16098549850E+02  0.16098549850E+02  0.00000000000E+00 0.  1.
          3   -1    0    0  501    0  0.00000000000E+00 -0.00000000000E+00 -0.13061255494E+03  0.13061255494E+03  0.00000000000E+00 0. -1.
         23    2    1    2    0    0  0.00000000000E+00  0.00000000000E+00 -0.11451400509E+03  0.14671110479E+03  0.91709819032E+02 0.  0.
        -13    1    3    3    0    0 -0.12919681156E+02  0.27505990521E+02 -0.11219037880E+03  0.11623329459E+03  0.00000000000E+00 0. -1.
         13    1    3    3    0    0  0.12919681156E+02 -0.27505990521E+02 -0.23236262936E+01  0.30477810204E+02  0.00000000000E+00 0.  1.
<mgrwt>
<rscale>  0 0.91709819E+02</rscale>
<asrwt>0</asrwt>
<pdfrwt beam="2">  1        3 0.20094240E-01 0.91709819E+02</pdfrwt>
<pdfrwt beam="1">  1       -3 0.24766999E-02 0.91709819E+02</pdfrwt>
<totfact> 0.31014899E+04</totfact>
</mgrwt>
</event>
<event>
 5    1  0.1256986E+001  0.9114819E+02  0.7546771E-02  0.1300095E+00
          2   -1    0    0  501    0  0.00000000000E+00  0.00000000000E+00  0.57045715874E+02  0.57045715874E+02  0.00000000000E+00 0. -1.
         -2   -1    0    0    0  501 -0.00000000000E+00 -0.00000000000E+00 -0.36409363898E+02  0.36409363898E+02  0.00000000000E+00 0.  1.
         23    2    1    2    0    0  0.00000000000E+00  0.00000000000E+00  0.20636351975E+02  0.93455079772E+02  0.91148192041E+02 0.  0.
        -11    1    3    3    0    0 -0.13847007470E+02 -0.35926742304E+01  0.54683996983E+02  0.56524211185E+02  0.00000000000E+00 0. -1.
         11    1    3    3    0    0  0.13847007470E+02  0.35926742304E+01 -0.34047645008E+02  0.36930868587E+02  0.00000000000E+00 0.  1.
<mgrwt>
<rscale>  0 0.91148192E+02</rscale>
<asrwt>0</asrwt>
<pdfrwt beam="1">  1        2 0.87762640E-02 0.91148192E+02</pdfrwt>
<pdfrwt beam="2">  1       -2 0.56014406E-02 0.91148192E+02</pdfrwt>
<totfact> 0.10474176E+05</totfact>
</mgrwt>
</event>
<event>
 5    1  0.1256986E+001  0.9251849E+02  0.7546771E-02  0.1296865E+00
          2   -1    0    0  501    0  0.00000000000E+00  0.00000000000E+00  0.45807048913E+02  0.45807048913E+02  0.00000000000E+00 0. -1.
         -2   -1    0    0    0  501 -0.00000000000E+00 -0.00000000000E+00 -0.46715900629E+02  0.46715900629E+02  0.00000000000E+00 0.  1.
         23    2    1    2    0    0  0.00000000000E+00  0.00000000000E+00 -0.90885171579E+00  0.92522949542E+02  0.92518485615E+02 0.  0.
        -13    1    3    3    0    0  0.13922436558E+02  0.31242379429E+02 -0.31600703936E+02  0.46567424251E+02  0.00000000000E+00 0.  1.
         13    1    3    3    0    0 -0.13922436558E+02 -0.31242379429E+02  0.30691852221E+02  0.45955525291E+02  0.00000000000E+00 0. -1.
<mgrwt>
<rscale>  0 0.92518486E+02</rscale>
<asrwt>0</asrwt>
<pdfrwt beam="1">  1        2 0.70472383E-02 0.92518486E+02</pdfrwt>
<pdfrwt beam="2">  1       -2 0.71870616E-02 0.92518486E+02</pdfrwt>
<totfact> 0.94732873E+04</totfact>
</mgrwt>
</event>
<event>
 5    1  0.1256986E+001  0.9113529E+02  0.7546771E-02  0.1300125E+00
         -3   -1    0    0    0  501 -0.00000000000E+00  0.00000000000E+00  0.16361494413E+03  0.16361494413E+03  0.00000000000E+00 0.  1.
          3   -1    0    0  501    0  0.00000000000E+00 -0.00000000000E+00 -0.12690834380E+02  0.12690834380E+02  0.00000000000E+00 0. -1.
         23    2    1    2    0    0  0.00000000000E+00  0.00000000000E+00  0.15092410975E+03  0.17630577851E+03  0.91135287524E+02 0.  0.
        -11    1    3    3    0    0 -0.16061803312E+01  0.42075044403E+02  0.10916550320E+03  0.11700425747E+03  0.00000000000E+00 0.  1.
         11    1    3    3    0    0  0.16061803312E+01 -0.42075044403E+02  0.41758606548E+02  0.59301521039E+02  0.00000000000E+00 0. -1.
<mgrwt>
<rscale>  0 0.91135288E+02</rscale>
<asrwt>0</asrwt>
<pdfrwt beam="2">  1        3 0.19524362E-02 0.91135288E+02</pdfrwt>
<pdfrwt beam="1">  1       -3 0.25171528E-01 0.91135288E+02</pdfrwt>
<totfact> 0.29807709E+04</totfact>
</mgrwt>
</event>
<event>
 5    1  0.1256986E+001  0.9387763E+02  0.7546771E-02  0.1293724E+00
         -1   -1    0    0    0  501 -0.00000000000E+00  0.00000000000E+00  0.24410061651E+02  0.24410061651E+02  0.00000000000E+00 0.  1.
          1   -1    0    0  501    0  0.00000000000E+00 -0.00000000000E+00 -0.90260013236E+02  0.90260013236E+02  0.00000000000E+00 0. -1.
         23    2    1    2    0    0  0.00000000000E+00  0.00000000000E+00 -0.65849951585E+02  0.11467007489E+03  0.93877632856E+02 0.  0.
        -11    1    3    3    0    0 -0.35427942237E+01 -0.27426101490E+02  0.13403116452E+02  0.30730863387E+02  0.00000000000E+00 0.  1.
         11    1    3    3    0    0  0.35427942237E+01  0.27426101490E+02 -0.79253068037E+02  0.83939211500E+02  0.00000000000E+00 0. -1.
<mgrwt>
<rscale>  0 0.93877633E+02</rscale>
<asrwt>0</asrwt>
<pdfrwt beam="2">  1        1 0.13886156E-01 0.93877633E+02</pdfrwt>
<pdfrwt beam="1">  1       -1 0.37553941E-02 0.93877633E+02</pdfrwt>
<totfact> 0.94807608E+04</totfact>
</mgrwt>
</event>
<event>
 5    1  0.1256986E+001  0.9140563E+02  0.7546771E-02  0.1299483E+00
          2   -1    0    0  501    0  0.00000000000E+00  0.00000000000E+00  0.59339964173E+02  0.59339964173E+02  0.00000000000E+00 0. -1.
         -2   -1    0    0    0  501 -0.00000000000E+00 -0.00000000000E+00 -0.35199672055E+02  0.35199672055E+02  0.00000000000E+00 0.  1.
         23    2    1    2    0    0  0.00000000000E+00  0.00000000000E+00  0.24140292118E+02  0.94539636228E+02  0.91405629556E+02 0.  0.
        -11    1    3    3    0    0 -0.11598709515E+02 -0.37589267056E+01 -0.33486491507E+02  0.35637125387E+02  0.00000000000E+00 0.  1.
         11    1    3    3    0    0  0.11598709515E+02  0.37589267056E+01  0.57626783625E+02  0.58902510841E+02  0.00000000000E+00 0. -1.
<mgrwt>
<rscale>  0 0.91405630E+02</rscale>
<asrwt>0</asrwt>
<pdfrwt beam="1">  1        2 0.91292252E-02 0.91405630E+02</pdfrwt>
<pdfrwt beam="2">  1       -2 0.54153342E-02 0.91405630E+02</pdfrwt>
<totfact> 0.10500898E+05</totfact>
</mgrwt>
</event>
<event>
 5    1  0.1256986E+001  0.9560531E+02  0.7546771E-02  0.1289819E+00
         -3   -1    0    0    0  501 -0.00000000000E+00  0.00000000000E+00  0.21593057052E+03  0.21593057052E+03  0.00000000000E+00 0.  1.
          3   -1    0    0  501    0  0.00000000000E+00 -0.00000000000E+00 -0.10582539413E+02  0.10582539413E+02  0.00000000000E+00 0. -1.
         23    2    1    2    0    0  0.00000000000E+00  0.00000000000E+00  0.20534803111E+03  0.22651310994E+03  0.95605308913E+02 0.  0.
        -13    1    3    3    0    0 -0.11037202445E+02  0.43566848352E+02  0.64090562692E+02  0.78278287789E+02  0.00000000000E+00 0. -1.
         13    1    3    3    0    0  0.11037202445E+02 -0.43566848352E+02  0.14125746842E+03  0.14823482215E+03  0.00000000000E+00 0.  1.
<mgrwt>
<rscale>  0 0.95605309E+02</rscale>
<asrwt>0</asrwt>
<pdfrwt beam="2">  1        3 0.16280831E-02 0.95605309E+02</pdfrwt>
<pdfrwt beam="1">  1       -3 0.33220084E-01 0.95605309E+02</pdfrwt>
<totfact> 0.23908520E+04</totfact>
</mgrwt>
</event>
<event>
 5    1  0.1256986E+001  0.9123780E+02  0.7546771E-02  0.1299882E+00
          2   -1    0    0  501    0  0.00000000000E+00  0.00000000000E+00  0.78671969777E+02  0.78671969777E+02  0.00000000000E+00 0. -1.
         -2   -1    0    0    0  501 -0.00000000000E+00 -0.00000000000E+00 -0.26452676774E+02  0.26452676774E+02  0.00000000000E+00 0.  1.
         23    2    1    2    0    0  0.00000000000E+00  0.00000000000E+00  0.52219293004E+02  0.10512464655E+03  0.91237803298E+02 0.  0.
        -11    1    3    3    0    0  0.21754515438E+02 -0.18146484433E+02 -0.15089218235E+02  0.32097326153E+02  0.00000000000E+00 0.  1.
         11    1    3    3    0    0 -0.21754515438E+02  0.18146484433E+02  0.67308511239E+02  0.73027320398E+02  0.00000000000E+00 0. -1.
<mgrwt>
<rscale>  0 0.91237803E+02</rscale>
<asrwt>0</asrwt>
<pdfrwt beam="1">  1        2 0.12103380E-01 0.91237803E+02</pdfrwt>
<pdfrwt beam="2">  1       -2 0.40696426E-02 0.91237803E+02</pdfrwt>
<totfact> 0.11409572E+05</totfact>
</mgrwt>
</event>
<event>
 5    1  0.1256986E+001  0.9341995E+02  0.7546771E-02  0.1294775E+00
          1   -1    0    0  501    0  0.00000000000E+00  0.00000000000E+00  0.82939689074E+01  0.82939689074E+01  0.00000000000E+00 0. -1.
         -1   -1    0    0    0  501 -0.00000000000E+00 -0.00000000000E+00 -0.26306124289E+03  0.26306124289E+03  0.00000000000E+00 0.  1.
         23    2    1    2    0    0  0.00000000000E+00  0.00000000000E+00 -0.25476727399E+03  0.27135521180E+03  0.93419950103E+02 0.  0.
        -11    1    3    3    0    0 -0.39167106373E+02 -0.21887401795E+02 -0.16511110068E+03  0.17109879061E+03  0.00000000000E+00 0.  1.
         11    1    3    3    0    0  0.39167106373E+02  0.21887401795E+02 -0.89656173304E+02  0.10025642119E+03  0.00000000000E+00 0. -1.
<mgrwt>
<rscale>  0 0.93419950E+02</rscale>
<asrwt>0</asrwt>
<pdfrwt beam="1">  1        1 0.12759954E-02 0.93419950E+02</pdfrwt>
<pdfrwt beam="2">  1       -1 0.40470955E-01 0.93419950E+02</pdfrwt>
<totfact> 0.59712603E+04</totfact>
</mgrwt>
</event>
<event>
 5    1  0.1256986E+001  0.8696261E+02  0.7546771E-02  0.1310378E+00
         -1   -1    0    0    0  501 -0.00000000000E+00  0.00000000000E+00  0.86106117036E+01  0.86106117036E+01  0.00000000000E+00 0.  1.
          1   -1    0    0  501    0  0.00000000000E+00 -0.00000000000E+00 -0.21956905199E+03  0.21956905199E+03  0.00000000000E+00 0. -1.
         23    2    1    2    0    0  0.00000000000E+00  0.00000000000E+00 -0.21095844029E+03  0.22817966369E+03  0.86962609179E+02 0.  0.
        -13    1    3    3    0    0 -0.35428427781E+02 -0.23145827468E+02 -0.79277021179E+02  0.89865170735E+02  0.00000000000E+00 0. -1.
         13    1    3    3    0    0  0.35428427781E+02  0.23145827468E+02 -0.13168141911E+03  0.13831449296E+03  0.00000000000E+00 0.  1.
<mgrwt>
<rscale>  0 0.86962609E+02</rscale>
<asrwt>0</asrwt>
<pdfrwt beam="2">  1        1 0.33779856E-01 0.86962609E+02</pdfrwt>
<pdfrwt beam="1">  1       -1 0.13247094E-02 0.86962609E+02</pdfrwt>
<totfact> 0.13680894E+05</totfact>
</mgrwt>
</event>
<event>
 5    1  0.1256986E+001  0.8446055E+02  0.7546771E-02  0.1316849E+00
         -1   -1    0    0    0  501 -0.00000000000E+00  0.00000000000E+00  0.57973483117E+02  0.57973483117E+02  0.00000000000E+00 0.  1.
          1   -1    0    0  501    0  0.00000000000E+00 -0.00000000000E+00 -0.30762271608E+02  0.30762271608E+02  0.00000000000E+00 0. -1.
         23    2    1    2    0    0  0.00000000000E+00  0.00000000000E+00  0.27211211509E+02  0.88735754725E+02  0.84460547801E+02 0.  0.
        -11    1    3    3    0    0  0.21493852230E+02 -0.23524844768E+01 -0.24505562704E+02  0.32680919056E+02  0.00000000000E+00 0. -1.
         11    1    3    3    0    0 -0.21493852230E+02  0.23524844768E+01  0.51716774213E+02  0.56054835669E+02  0.00000000000E+00 0.  1.
<mgrwt>
<rscale>  0 0.84460548E+02</rscale>
<asrwt>0</asrwt>
<pdfrwt beam="2">  1        1 0.47326572E-02 0.84460548E+02</pdfrwt>
<pdfrwt beam="1">  1       -1 0.89189974E-02 0.84460548E+02</pdfrwt>
<totfact> 0.10819253E+05</totfact>
</mgrwt>
</event>
<event>
 5    1  0.1256986E+001  0.9070819E+02  0.7546771E-02  0.1301146E+00
         -2   -1    0    0    0  501 -0.00000000000E+00  0.00000000000E+00  0.16442466875E+02  0.16442466875E+02  0.00000000000E+00 0.  1.
          2   -1    0    0  501    0  0.00000000000E+00 -0.00000000000E+00 -0.12510250244E+03  0.12510250244E+03  0.00000000000E+00 0. -1.
         23    2    1    2    0    0  0.00000000000E+00  0.00000000000E+00 -0.10866003557E+03  0.14154496932E+03  0.90708186011E+02 0.  0.
        -11    1    3    3    0    0  0.30497523348E+02 -0.10072158753E+02 -0.43605817989E+01  0.32412373963E+02  0.00000000000E+00 0.  1.
         11    1    3    3    0    0 -0.30497523348E+02  0.10072158753E+02 -0.10429945377E+03  0.10913259535E+03  0.00000000000E+00 0. -1.
<mgrwt>
<rscale>  0 0.90708186E+02</rscale>
<asrwt>0</asrwt>
<pdfrwt beam="2">  1        2 0.19246538E-01 0.90708186E+02</pdfrwt>
<pdfrwt beam="1">  1       -2 0.25296103E-02 0.90708186E+02</pdfrwt>
<totfact> 0.13348389E+05</totfact>
</mgrwt>
</event>
<event>
 5    1  0.1256986E+001  0.9315935E+02  0.7546771E-02  0.1295376E+00
          1   -1    0    0  501    0  0.00000000000E+00  0.00000000000E+00  0.51620346467E+02  0.51620346467E+02  0.00000000000E+00 0. -1.
         -1   -1    0    0    0  501 -0.00000000000E+00 -0.00000000000E+00 -0.42031220888E+02  0.42031220888E+02  0.00000000000E+00 0.  1.
         23    2    1    2    0    0  0.00000000000E+00  0.00000000000E+00  0.95891255789E+01  0.93651567356E+02  0.93159351322E+02 0.  0.
        -11    1    3    3    0    0  0.25043156000E+02  0.14208664727E+02  0.41602501840E+02  0.50594604209E+02  0.00000000000E+00 0. -1.
         11    1    3    3    0    0 -0.25043156000E+02 -0.14208664727E+02 -0.32013376261E+02  0.43056963146E+02  0.00000000000E+00 0.  1.
<mgrwt>
<rscale>  0 0.93159351E+02</rscale>
<asrwt>0</asrwt>
<pdfrwt beam="1">  1        1 0.79415917E-02 0.93159351E+02</pdfrwt>
<pdfrwt beam="2">  1       -1 0.64663417E-02 0.93159351E+02</pdfrwt>
<totfact> 0.88709316E+04</totfact>
</mgrwt>
</event>
<event>
 5    1  0.1256986E+001  0.9128621E+02  0.7546771E-02  0.1299767E+00
         -1   -1    0    0    0  501 -0.00000000000E+00  0.00000000000E+00  0.12988875100E+02  0.12988875100E+02  0.00000000000E+00 0.  1.
          1   -1    0    0  501    0  0.00000000000E+00 -0.00000000000E+00 -0.16039056086E+03  0.16039056086E+03  0.00000000000E+00 0. -1.
         23    2    1    2    0    0  0.00000000000E+00  0.00000000000E+00 -0.14740168576E+03  0.17337943596E+03  0.91286208425E+02 0.  0.
        -11    1    3    3    0    0  0.41188527647E+02 -0.14589685445E+02 -0.98749888839E+02  0.10798562069E+03  0.00000000000E+00 0. -1.
         11    1    3    3    0    0 -0.41188527647E+02  0.14589685445E+02 -0.48651796917E+02  0.65393815261E+02  0.00000000000E+00 0.  1.
<mgrwt>
<rscale>  0 0.91286208E+02</rscale>
<asrwt>0</asrwt>
<pdfrwt beam="2">  1        1 0.24675473E-01 0.91286208E+02</pdfrwt>
<pdfrwt beam="1">  1       -1 0.19982883E-02 0.91286208E+02</pdfrwt>
<totfact> 0.11316530E+05</totfact>
</mgrwt>
</event>
<event>
 5    1  0.1256986E+001  0.8856392E+02  0.7546771E-02  0.1306367E+00
          2   -1    0    0  501    0  0.00000000000E+00  0.00000000000E+00  0.71772979814E+02  0.71772979814E+02  0.00000000000E+00 0. -1.
         -2   -1    0    0    0  501 -0.00000000000E+00 -0.00000000000E+00 -0.27320757815E+02  0.27320757815E+02  0.00000000000E+00 0.  1.
         23    2    1    2    0    0  0.00000000000E+00  0.00000000000E+00  0.44452222000E+02  0.99093737629E+02  0.88563924917E+02 0.  0.
        -11    1    3    3    0    0 -0.44042372474E+02 -0.41623901100E+01  0.20034637244E+02  0.48563800861E+02  0.00000000000E+00 0. -1.
         11    1    3    3    0    0  0.44042372474E+02  0.41623901100E+01  0.24417584756E+02  0.50529936769E+02  0.00000000000E+00 0.  1.
<mgrwt>
<rscale>  0 0.88563925E+02</rscale>
<asrwt>0</asrwt>
<pdfrwt beam="1">  1        2 0.11041997E-01 0.88563925E+02</pdfrwt>
<pdfrwt beam="2">  1       -2 0.42031936E-02 0.88563925E+02</pdfrwt>
<totfact> 0.12078664E+05</totfact>
</mgrwt>
</event>
<event>
 5    1  0.1256986E+001  0.9066517E+02  0.7546771E-02  0.1301249E+00
         -2   -1    0    0    0  501 -0.00000000000E+00  0.00000000000E+00  0.16234530406E+03  0.16234530406E+03  0.00000000000E+00 0. -1.
          2   -1    0    0  501    0  0.00000000000E+00 -0.00000000000E+00 -0.12658469796E+02  0.12658469796E+02  0.00000000000E+00 0.  1.
         23    2    1    2    0    0  0.00000000000E+00  0.00000000000E+00  0.14968683427E+03  0.17500377386E+03  0.90665167027E+02 0.  0.
        -11    1    3    3    0    0  0.21020202458E+02 -0.27041508684E+02  0.17520381285E+02  0.38471494170E+02  0.00000000000E+00 0.  1.
         11    1    3    3    0    0 -0.21020202458E+02  0.27041508684E+02  0.13216645298E+03  0.13653227969E+03  0.00000000000E+00 0. -1.
<mgrwt>
<rscale>  0 0.90665167E+02</rscale>
<asrwt>0</asrwt>
<pdfrwt beam="2">  1        2 0.19474570E-02 0.90665167E+02</pdfrwt>
<pdfrwt beam="1">  1       -2 0.24976199E-01 0.90665167E+02</pdfrwt>
<totfact> 0.68804803E+04</totfact>
</mgrwt>
</event>
<event>
 5    1  0.1256986E+001  0.9155078E+02  0.7546771E-02  0.1299139E+00
         -2   -1    0    0    0  501 -0.00000000000E+00  0.00000000000E+00  0.22022573631E+03  0.22022573631E+03  0.00000000000E+00 0.  1.
          2   -1    0    0  501    0  0.00000000000E+00 -0.00000000000E+00 -0.95147214230E+01  0.95147214230E+01  0.00000000000E+00 0. -1.
         23    2    1    2    0    0  0.00000000000E+00  0.00000000000E+00  0.21071101489E+03  0.22974045773E+03  0.91550784402E+02 0.  0.
        -11    1    3    3    0    0 -0.22740129495E+02  0.29333848690E+02  0.38123412496E+02  0.53206980264E+02  0.00000000000E+00 0. -1.
         11    1    3    3    0    0  0.22740129495E+02 -0.29333848690E+02  0.17258760239E+03  0.17653347747E+03  0.00000000000E+00 0.  1.
<mgrwt>
<rscale>  0 0.91550784E+02</rscale>
<asrwt>0</asrwt>
<pdfrwt beam="2">  1        2 0.14638035E-02 0.91550784E+02</pdfrwt>
<pdfrwt beam="1">  1       -2 0.33880879E-01 0.91550784E+02</pdfrwt>
<totfact> 0.59073854E+04</totfact>
</mgrwt>
</event>
<event>
 5    1  0.1256986E+001  0.9258087E+02  0.7546771E-02  0.1296719E+00
         -1   -1    0    0    0  501 -0.00000000000E+00  0.00000000000E+00  0.49961305713E+02  0.49961305713E+02  0.00000000000E+00 0.  1.
          1   -1    0    0  501    0  0.00000000000E+00 -0.00000000000E+00 -0.42889279391E+02  0.42889279391E+02  0.00000000000E+00 0. -1.
         23    2    1    2    0    0  0.00000000000E+00  0.00000000000E+00  0.70720263219E+01  0.92850585103E+02  0.92580870582E+02 0.  0.
        -11    1    3    3    0    0 -0.40285540075E+02  0.11638856721E+02  0.23199679359E+02  0.47922988714E+02  0.00000000000E+00 0.  1.
         11    1    3    3    0    0  0.40285540075E+02 -0.11638856721E+02 -0.16127653037E+02  0.44927596390E+02  0.00000000000E+00 0. -1.
<mgrwt>
<rscale>  0 0.92580871E+02</rscale>
<asrwt>0</asrwt>
<pdfrwt beam="2">  1        1 0.65983507E-02 0.92580871E+02</pdfrwt>
<pdfrwt beam="1">  1       -1 0.76863547E-02 0.92580871E+02</pdfrwt>
<totfact> 0.87759612E+04</totfact>
</mgrwt>
</event>
<event>
 5    1  0.1256986E+001  0.9284246E+02  0.7546771E-02  0.1296111E+00
         -2   -1    0    0    0  501 -0.00000000000E+00  0.00000000000E+00  0.51867574946E+01  0.51867574946E+01  0.00000000000E+00 0. -1.
          2   -1    0    0  501    0  0.00000000000E+00 -0.00000000000E+00 -0.41546775366E+03  0.41546775366E+03  0.00000000000E+00 0.  1.
         23    2    1    2    0    0  0.00000000000E+00  0.00000000000E+00 -0.41028099616E+03  0.42065451115E+03  0.92842457638E+02 0.  0.
        -11    1    3    3    0    0  0.34034965606E+01 -0.45599883363E+02 -0.24138647938E+03  0.24567939592E+03  0.00000000000E+00 0. -1.
         11    1    3    3    0    0 -0.34034965606E+01  0.45599883363E+02 -0.16889451678E+03  0.17497511523E+03  0.00000000000E+00 0.  1.
<mgrwt>
<rscale>  0 0.92842458E+02</rscale>
<asrwt>0</asrwt>
<pdfrwt beam="2">  1        2 0.63918122E-01 0.92842458E+02</pdfrwt>
<pdfrwt beam="1">  1       -2 0.79796262E-03 0.92842458E+02</pdfrwt>
<totfact> 0.19283253E+05</totfact>
</mgrwt>
</event>
<event>
 5    1  0.1256986E+001  0.9149632E+02  0.7546771E-02  0.1299268E+00
          1   -1    0    0  501    0  0.00000000000E+00  0.00000000000E+00  0.12284753756E+02  0.12284753756E+02  0.00000000000E+00 0. -1.
         -1   -1    0    0    0  501 -0.00000000000E+00 -0.00000000000E+00 -0.17036518230E+03  0.17036518230E+03  0.00000000000E+00 0.  1.
         23    2    1    2    0    0  0.00000000000E+00  0.00000000000E+00 -0.15808042854E+03  0.18264993605E+03  0.91496323710E+02 0.  0.
        -11    1    3    3    0    0 -0.64157424505E+01  0.45117129138E+02 -0.71011096477E+02  0.84375902459E+02  0.00000000000E+00 0. -1.
         11    1    3    3    0    0  0.64157424505E+01 -0.45117129138E+02 -0.87069332065E+02  0.98274033595E+02  0.00000000000E+00 0.  1.
<mgrwt>
<rscale>  0 0.91496324E+02</rscale>
<asrwt>0</asrwt>
<pdfrwt beam="1">  1        1 0.18899622E-02 0.91496324E+02</pdfrwt>
<pdfrwt beam="2">  1       -1 0.26210027E-01 0.91496324E+02</pdfrwt>
<totfact> 0.71841694E+04</totfact>
</mgrwt>
</event>
<event>
 5    1  0.1256986E+001  0.8149591E+02  0.7546771E-02  0.1324859E+00
         -2   -1    0    0    0  501 -0.00000000000E+00  0.00000000000E+00  0.48819850582E+02  0.48819850582E+02  0.00000000000E+00 0.  1.
          2   -1    0    0  501    0  0.00000000000E+00 -0.00000000000E+00 -0.34010670106E+02  0.34010670106E+02  0.00000000000E+00 0. -1.
         23    2    1    2    0    0  0.00000000000E+00  0.00000000000E+00  0.14809180476E+02  0.82830520688E+02  0.81495909904E+02 0.  0.
        -13    1    3    3    0    0 -0.22514498344E+02  0.30374488825E+02 -0.80391022452E+01  0.38654099032E+02  0.00000000000E+00 0. -1.
         13    1    3    3    0    0  0.22514498344E+02 -0.30374488825E+02  0.22848282721E+02  0.44176421656E+02  0.00000000000E+00 0.  1.
<mgrwt>
<rscale>  0 0.81495910E+02</rscale>
<asrwt>0</asrwt>
<pdfrwt beam="2">  1        2 0.52324108E-02 0.81495910E+02</pdfrwt>
<pdfrwt beam="1">  1       -2 0.75107462E-02 0.81495910E+02</pdfrwt>
<totfact> 0.12656805E+05</totfact>
</mgrwt>
</event>
<event>
 5    1  0.1256986E+001  0.9017956E+02  0.7546771E-02  0.1302417E+00
          1   -1    0    0  501    0  0.00000000000E+00  0.00000000000E+00  0.10219662596E+03  0.10219662596E+03  0.00000000000E+00 0. -1.
         -1   -1    0    0    0  501 -0.00000000000E+00 -0.00000000000E+00 -0.19893888759E+02  0.19893888759E+02  0.00000000000E+00 0.  1.
         23    2    1    2    0    0  0.00000000000E+00  0.00000000000E+00  0.82302737197E+02  0.12209051472E+03  0.90179561062E+02 0.  0.
        -11    1    3    3    0    0 -0.86251923495E+01  0.40306605492E+02  0.65896729569E+02  0.77726413511E+02  0.00000000000E+00 0.  1.
         11    1    3    3    0    0  0.86251923495E+01 -0.40306605492E+02  0.16406007629E+02  0.44364101205E+02  0.00000000000E+00 0. -1.
<mgrwt>
<rscale>  0 0.90179561E+02</rscale>
<asrwt>0</asrwt>
<pdfrwt beam="1">  1        1 0.15722557E-01 0.90179561E+02</pdfrwt>
<pdfrwt beam="2">  1       -1 0.30605983E-02 0.90179561E+02</pdfrwt>
<totfact> 0.10801483E+05</totfact>
</mgrwt>
</event>
<event>
 5    1  0.1256986E+001  0.9073846E+02  0.7546771E-02  0.1301073E+00
          3   -1    0    0  501    0  0.00000000000E+00  0.00000000000E+00  0.10364798738E+03  0.10364798738E+03  0.00000000000E+00 0. -1.
         -3   -1    0    0    0  501 -0.00000000000E+00 -0.00000000000E+00 -0.19859209966E+02  0.19859209966E+02  0.00000000000E+00 0.  1.
         23    2    1    2    0    0  0.00000000000E+00  0.00000000000E+00  0.83788777410E+02  0.12350719734E+03  0.90738462491E+02 0.  0.
        -13    1    3    3    0    0 -0.27057699017E+02 -0.39985892050E+01  0.91164039557E+02  0.95178726090E+02  0.00000000000E+00 0. -1.
         13    1    3    3    0    0  0.27057699017E+02  0.39985892050E+01 -0.73752621469E+01  0.28328471252E+02  0.00000000000E+00 0.  1.
<mgrwt>
<rscale>  0 0.90738462E+02</rscale>
<asrwt>0</asrwt>
<pdfrwt beam="1">  1        3 0.15945844E-01 0.90738462E+02</pdfrwt>
<pdfrwt beam="2">  1       -3 0.30552632E-02 0.90738462E+02</pdfrwt>
<totfact> 0.33442474E+04</totfact>
</mgrwt>
</event>
<event>
 5    1  0.1256986E+001  0.9141256E+02  0.7546771E-02  0.1299467E+00
          1   -1    0    0  501    0  0.00000000000E+00  0.00000000000E+00  0.76715435134E+02  0.76715435134E+02  0.00000000000E+00 0. -1.
         -1   -1    0    0    0  501 -0.00000000000E+00 -0.00000000000E+00 -0.27231337012E+02  0.27231337012E+02  0.00000000000E+00 0.  1.
         23    2    1    2    0    0  0.00000000000E+00  0.00000000000E+00  0.49484098122E+02  0.10394677215E+03  0.91412556427E+02 0.  0.
        -13    1    3    3    0    0 -0.52268173280E+01  0.12343419754E+02 -0.24945985665E+02  0.28319283737E+02  0.00000000000E+00 0.  1.
         13    1    3    3    0    0  0.52268173280E+01 -0.12343419754E+02  0.74430083786E+02  0.75627488409E+02  0.00000000000E+00 0. -1.
<mgrwt>
<rscale>  0 0.91412556E+02</rscale>
<asrwt>0</asrwt>
<pdfrwt beam="1">  1        1 0.11802375E-01 0.91412556E+02</pdfrwt>
<pdfrwt beam="2">  1       -1 0.41894365E-02 0.91412556E+02</pdfrwt>
<totfact> 0.99373876E+04</totfact>
</mgrwt>
</event>
<event>
 5    1  0.1256986E+001  0.8923504E+02  0.7546771E-02  0.1304715E+00
          3   -1    0    0  501    0  0.00000000000E+00  0.00000000000E+00  0.24325808157E+03  0.24325808157E+03  0.00000000000E+00 0. -1.
         -3   -1    0    0    0  501 -0.00000000000E+00 -0.00000000000E+00 -0.81835848185E+01  0.81835848185E+01  0.00000000000E+00 0.  1.
         23    2    1    2    0    0  0.00000000000E+00  0.00000000000E+00  0.23507449675E+03  0.25144166639E+03  0.89235041174E+02 0.  0.
        -11    1    3    3    0    0 -0.32283638553E+02 -0.25631866022E+02  0.69429053310E+02  0.80744159650E+02  0.00000000000E+00 0.  1.
         11    1    3    3    0    0  0.32283638553E+02  0.25631866022E+02  0.16564544344E+03  0.17069750674E+03  0.00000000000E+00 0. -1.
<mgrwt>
<rscale>  0 0.89235041E+02</rscale>
<asrwt>0</asrwt>
<pdfrwt beam="1">  1        3 0.37424315E-01 0.89235041E+02</pdfrwt>
<pdfrwt beam="2">  1       -3 0.12590132E-02 0.89235041E+02</pdfrwt>
<totfact> 0.27588161E+04</totfact>
</mgrwt>
</event>
<event>
 5    1  0.1256986E+001  0.9285701E+02  0.7546771E-02  0.1296077E+00
          2   -1    0    0  501    0  0.00000000000E+00  0.00000000000E+00  0.58735834503E+02  0.58735834503E+02  0.00000000000E+00 0. -1.
         -2   -1    0    0    0  501 -0.00000000000E+00 -0.00000000000E+00 -0.36700018989E+02  0.36700018989E+02  0.00000000000E+00 0.  1.
         23    2    1    2    0    0  0.00000000000E+00  0.00000000000E+00  0.22035815515E+02  0.95435853492E+02  0.92857013555E+02 0.  0.
        -13    1    3    3    0    0 -0.88070281786E+01  0.32111963186E+02 -0.22235951033E+02  0.40039723318E+02  0.00000000000E+00 0.  1.
         13    1    3    3    0    0  0.88070281786E+01 -0.32111963186E+02  0.44271766548E+02  0.55396130174E+02  0.00000000000E+00 0. -1.
<mgrwt>
<rscale>  0 0.92857014E+02</rscale>
<asrwt>0</asrwt>
<pdfrwt beam="1">  1        2 0.90362822E-02 0.92857014E+02</pdfrwt>
<pdfrwt beam="2">  1       -2 0.56461568E-02 0.92857014E+02</pdfrwt>
<totfact> 0.10015202E+05</totfact>
</mgrwt>
</event>
<event>
 5    1  0.1256986E+001  0.9180718E+02  0.7546771E-02  0.1298533E+00
          1   -1    0    0  501    0  0.00000000000E+00  0.00000000000E+00  0.11465628070E+02  0.11465628070E+02  0.00000000000E+00 0. -1.
         -1   -1    0    0    0  501 -0.00000000000E+00 -0.00000000000E+00 -0.18377883503E+03  0.18377883503E+03  0.00000000000E+00 0.  1.
         23    2    1    2    0    0  0.00000000000E+00  0.00000000000E+00 -0.17231320696E+03  0.19524446310E+03  0.91807184242E+02 0.  0.
        -13    1    3    3    0    0  0.21242916007E+02  0.36578804156E+02 -0.12407294300E+03  0.13108533700E+03  0.00000000000E+00 0.  1.
         13    1    3    3    0    0 -0.21242916007E+02 -0.36578804156E+02 -0.48240263962E+02  0.64159126094E+02  0.00000000000E+00 0. -1.
<mgrwt>
<rscale>  0 0.91807184E+02</rscale>
<asrwt>0</asrwt>
<pdfrwt beam="1">  1        1 0.17639429E-02 0.91807184E+02</pdfrwt>
<pdfrwt beam="2">  1       -1 0.28273665E-01 0.91807184E+02</pdfrwt>
<totfact> 0.69809104E+04</totfact>
</mgrwt>
</event>
<event>
 5    1  0.1256986E+001  0.9187097E+02  0.7546771E-02  0.1298383E+00
         -4   -1    0    0    0  501 -0.00000000000E+00  0.00000000000E+00  0.15330595212E+03  0.15330595212E+03  0.00000000000E+00 0.  1.
          4   -1    0    0  501    0  0.00000000000E+00 -0.00000000000E+00 -0.13763774499E+02  0.13763774499E+02  0.00000000000E+00 0. -1.
         23    2    1    2    0    0  0.00000000000E+00  0.00000000000E+00  0.13954217762E+03  0.16706972662E+03  0.91870965039E+02 0.  0.
        -13    1    3    3    0    0 -0.26372446272E+02 -0.29736361147E+02  0.27893179816E+02  0.48557044565E+02  0.00000000000E+00 0. -1.
         13    1    3    3    0    0  0.26372446272E+02  0.29736361147E+02  0.11164899781E+03  0.11851268205E+03  0.00000000000E+00 0.  1.
<mgrwt>
<rscale>  0 0.91870965E+02</rscale>
<asrwt>0</asrwt>
<pdfrwt beam="2">  1        4 0.21175039E-02 0.91870965E+02</pdfrwt>
<pdfrwt beam="1">  1       -4 0.23585530E-01 0.91870965E+02</pdfrwt>
<totfact> 0.22382713E+04</totfact>
</mgrwt>
</event>
<event>
 5    1  0.1256986E+001  0.9461891E+02  0.7546771E-02  0.1292037E+00
          2   -1    0    0  501    0  0.00000000000E+00  0.00000000000E+00  0.15348296739E+03  0.15348296739E+03  0.00000000000E+00 0. -1.
         -2   -1    0    0    0  501 -0.00000000000E+00 -0.00000000000E+00 -0.14582624618E+02  0.14582624618E+02  0.00000000000E+00 0.  1.
         23    2    1    2    0    0  0.00000000000E+00  0.00000000000E+00  0.13890034277E+03  0.16806559200E+03  0.94618909286E+02 0.  0.
        -11    1    3    3    0    0  0.27818120247E+02 -0.26103759556E+02  0.19749477010E+02  0.42956907701E+02  0.00000000000E+00 0.  1.
         11    1    3    3    0    0 -0.27818120247E+02  0.26103759556E+02  0.11915086576E+03  0.12510868430E+03  0.00000000000E+00 0. -1.
<mgrwt>
<rscale>  0 0.94618909E+02</rscale>
<asrwt>0</asrwt>
<pdfrwt beam="1">  1        2 0.23612763E-01 0.94618909E+02</pdfrwt>
<pdfrwt beam="2">  1       -2 0.22434808E-02 0.94618909E+02</pdfrwt>
<totfact> 0.12739405E+05</totfact>
</mgrwt>
</event>
<event>
 5    1  0.1256986E+001  0.9132944E+02  0.7546771E-02  0.1299664E+00
         -1   -1    0    0    0  501 -0.00000000000E+00  0.00000000000E+00  0.12675140133E+02  0.12675140133E+02  0.00000000000E+00 0.  1.
          1   -1    0    0  501    0  0.00000000000E+00 -0.00000000000E+00 -0.16451625622E+03  0.16451625622E+03  0.00000000000E+00 0. -1.
         23    2    1    2    0    0  0.00000000000E+00  0.00000000000E+00 -0.15184111609E+03  0.17719139635E+03  0.91329438883E+02 0.  0.
        -13    1    3    3    0    0 -0.42383791387E+02 -0.15853116161E+02 -0.64030281426E+02  0.78406530364E+02  0.00000000000E+00 0.  1.
         13    1    3    3    0    0  0.42383791387E+02  0.15853116161E+02 -0.87810834663E+02  0.98784865989E+02  0.00000000000E+00 0. -1.
<mgrwt>
<rscale>  0 0.91329439E+02</rscale>
<asrwt>0</asrwt>
<pdfrwt beam="2">  1        1 0.25310190E-01 0.91329439E+02</pdfrwt>
<pdfrwt beam="1">  1       -1 0.19500218E-02 0.91329439E+02</pdfrwt>
<totfact> 0.11355835E+05</totfact>
</mgrwt>
</event>
<event>
 5    1  0.1256986E+001  0.9022528E+02  0.7546771E-02  0.1302307E+00
          3   -1    0    0  501    0  0.00000000000E+00  0.00000000000E+00  0.36108913588E+02  0.36108913588E+02  0.00000000000E+00 0. -1.
         -3   -1    0    0    0  501 -0.00000000000E+00 -0.00000000000E+00 -0.56361433609E+02  0.56361433609E+02  0.00000000000E+00 0.  1.
         23    2    1    2    0    0  0.00000000000E+00  0.00000000000E+00 -0.20252520021E+02  0.92470347197E+02  0.90225276633E+02 0.  0.
        -11    1    3    3    0    0  0.44135077249E+02 -0.73116122254E+01 -0.41691047506E+01  0.44930459062E+02  0.00000000000E+00 0. -1.
         11    1    3    3    0    0 -0.44135077249E+02  0.73116122254E+01 -0.16083415270E+02  0.47539888135E+02  0.00000000000E+00 0.  1.
<mgrwt>
<rscale>  0 0.90225277E+02</rscale>
<asrwt>0</asrwt>
<pdfrwt beam="1">  1        3 0.55552175E-02 0.90225277E+02</pdfrwt>
<pdfrwt beam="2">  1       -3 0.86709898E-02 0.90225277E+02</pdfrwt>
<totfact> 0.36259963E+04</totfact>
</mgrwt>
</event>
<event>
 5    1  0.1256986E+001  0.9071347E+02  0.7546771E-02  0.1301133E+00
         -2   -1    0    0    0  501 -0.00000000000E+00  0.00000000000E+00  0.16293341358E+03  0.16293341358E+03  0.00000000000E+00 0.  1.
          2   -1    0    0  501    0  0.00000000000E+00 -0.00000000000E+00 -0.12626223004E+02  0.12626223004E+02  0.00000000000E+00 0. -1.
         23    2    1    2    0    0  0.00000000000E+00  0.00000000000E+00  0.15030719058E+03  0.17555963658E+03  0.90713474516E+02 0.  0.
        -11    1    3    3    0    0 -0.26945377571E+02 -0.17403206890E+01  0.14568405009E+03  0.14816519342E+03  0.00000000000E+00 0.  1.
         11    1    3    3    0    0  0.26945377571E+02  0.17403206890E+01  0.46231404821E+01  0.27394443167E+02  0.00000000000E+00 0. -1.
<mgrwt>
<rscale>  0 0.90713475E+02</rscale>
<asrwt>0</asrwt>
<pdfrwt beam="2">  1        2 0.19424960E-02 0.90713475E+02</pdfrwt>
<pdfrwt beam="1">  1       -2 0.25066678E-01 0.90713475E+02</pdfrwt>
<totfact> 0.68617369E+04</totfact>
</mgrwt>
</event>
<event>
 5    1  0.1256986E+001  0.9122910E+02  0.7546771E-02  0.1299902E+00
          1   -1    0    0  501    0  0.00000000000E+00  0.00000000000E+00  0.80312076020E+02  0.80312076020E+02  0.00000000000E+00 0.  1.
         -1   -1    0    0    0  501 -0.00000000000E+00 -0.00000000000E+00 -0.25907526809E+02  0.25907526809E+02  0.00000000000E+00 0. -1.
         23    2    1    2    0    0  0.00000000000E+00  0.00000000000E+00  0.54404549211E+02  0.10621960283E+03  0.91229101992E+02 0.  0.
        -13    1    3    3    0    0 -0.36382307313E+02  0.14663983276E+02  0.54308180980E+02  0.66993157951E+02  0.00000000000E+00 0.  1.
         13    1    3    3    0    0  0.36382307313E+02 -0.14663983276E+02  0.96368231495E-01  0.39226444878E+02  0.00000000000E+00 0. -1.
<mgrwt>
<rscale>  0 0.91229102E+02</rscale>
<asrwt>0</asrwt>
<pdfrwt beam="1">  1        1 0.12355704E-01 0.91229102E+02</pdfrwt>
<pdfrwt beam="2">  1       -1 0.39857734E-02 0.91229102E+02</pdfrwt>
<totfact> 0.10064755E+05</totfact>
</mgrwt>
</event>
<event>
 5    1  0.1256986E+001  0.9160236E+02  0.7546771E-02  0.1299017E+00
         -1   -1    0    0    0  501 -0.00000000000E+00  0.00000000000E+00  0.27748021265E+03  0.27748021265E+03  0.00000000000E+00 0.  1.
          1   -1    0    0  501    0  0.00000000000E+00 -0.00000000000E+00 -0.75599919416E+01  0.75599919416E+01  0.00000000000E+00 0. -1.
         23    2    1    2    0    0  0.00000000000E+00  0.00000000000E+00  0.26992022071E+03  0.28504020460E+03  0.91602361795E+02 0.  0.
        -11    1    3    3    0    0  0.53064485640E+01 -0.39836382201E+02  0.20332241536E+03  0.20725612254E+03  0.00000000000E+00 0.  1.
         11    1    3    3    0    0 -0.53064485640E+01  0.39836382201E+02  0.66597805354E+02  0.77784082055E+02  0.00000000000E+00 0. -1.
<mgrwt>
<rscale>  0 0.91602362E+02</rscale>
<asrwt>0</asrwt>
<pdfrwt beam="2">  1        1 0.11630759E-02 0.91602362E+02</pdfrwt>
<pdfrwt beam="1">  1       -1 0.42689256E-01 0.91602362E+02</pdfrwt>
<totfact> 0.61661026E+04</totfact>
</mgrwt>
</event>
<event>
 5    1  0.1256986E+001  0.9169913E+02  0.7546771E-02  0.1298788E+00
         -1   -1    0    0    0  501 -0.00000000000E+00  0.00000000000E+00  0.19095145554E+03  0.19095145554E+03  0.00000000000E+00 0.  1.
          1   -1    0    0  501    0  0.00000000000E+00 -0.00000000000E+00 -0.11008989303E+02  0.11008989303E+02  0.00000000000E+00 0. -1.
         23    2    1    2    0    0  0.00000000000E+00  0.00000000000E+00  0.17994246624E+03  0.20196044484E+03  0.91699128271E+02 0.  0.
        -11    1    3    3    0    0 -0.40082845817E+02  0.20826975955E+02  0.72659406205E+02  0.85555752386E+02  0.00000000000E+00 0.  1.
         11    1    3    3    0    0  0.40082845817E+02 -0.20826975955E+02  0.10728306003E+03  0.11640469246E+03  0.00000000000E+00 0. -1.
<mgrwt>
<rscale>  0 0.91699128E+02</rscale>
<asrwt>0</asrwt>
<pdfrwt beam="2">  1        1 0.16936908E-02 0.91699128E+02</pdfrwt>
<pdfrwt beam="1">  1       -1 0.29377145E-01 0.91699128E+02</pdfrwt>
<totfact> 0.69295282E+04</totfact>
</mgrwt>
</event>
<event>
 5    1  0.1256986E+001  0.8948149E+02  0.7546771E-02  0.1304112E+00
         -1   -1    0    0    0  501 -0.00000000000E+00  0.00000000000E+00  0.35456892289E+02  0.35456892289E+02  0.00000000000E+00 0.  1.
          1   -1    0    0  501    0  0.00000000000E+00 -0.00000000000E+00 -0.56455437879E+02  0.56455437879E+02  0.00000000000E+00 0. -1.
         23    2    1    2    0    0  0.00000000000E+00  0.00000000000E+00 -0.20998545590E+02  0.91912330167E+02  0.89481492611E+02 0.  0.
        -11    1    3    3    0    0 -0.16850321968E+01 -0.29682456688E+02  0.23843211071E+02  0.38110186075E+02  0.00000000000E+00 0.  1.
         11    1    3    3    0    0  0.16850321968E+01  0.29682456688E+02 -0.44841756661E+02  0.53802144092E+02  0.00000000000E+00 0. -1.
<mgrwt>
<rscale>  0 0.89481493E+02</rscale>
<asrwt>0</asrwt>
<pdfrwt beam="2">  1        1 0.86854519E-02 0.89481493E+02</pdfrwt>
<pdfrwt beam="1">  1       -1 0.54549066E-02 0.89481493E+02</pdfrwt>
<totfact> 0.10059352E+05</totfact>
</mgrwt>
</event>
<event>
 5    1  0.1256986E+001  0.9292149E+02  0.7546771E-02  0.1295927E+00
         -1   -1    0    0    0  501 -0.00000000000E+00  0.00000000000E+00  0.20484941303E+02  0.20484941303E+02  0.00000000000E+00 0.  1.
          1   -1    0    0  501    0  0.00000000000E+00 -0.00000000000E+00 -0.10537500425E+03  0.10537500425E+03  0.00000000000E+00 0. -1.
         23    2    1    2    0    0  0.00000000000E+00  0.00000000000E+00 -0.84890062948E+02  0.12585994555E+03  0.92921488943E+02 0.  0.
        -13    1    3    3    0    0 -0.20563157524E+02  0.17969910604E+01 -0.98823273485E+02  0.10095599044E+03  0.00000000000E+00 0. -1.
         13    1    3    3    0    0  0.20563157524E+02 -0.17969910604E+01  0.13933210537E+02  0.24903955110E+02  0.00000000000E+00 0.  1.
<mgrwt>
<rscale>  0 0.92921489E+02</rscale>
<asrwt>0</asrwt>
<pdfrwt beam="2">  1        1 0.16211539E-01 0.92921489E+02</pdfrwt>
<pdfrwt beam="1">  1       -1 0.31515294E-02 0.92921489E+02</pdfrwt>
<totfact> 0.10006131E+05</totfact>
</mgrwt>
</event>
<event>
 5    1  0.1256986E+001  0.9168736E+02  0.7546771E-02  0.1298816E+00
         -2   -1    0    0    0  501 -0.00000000000E+00  0.00000000000E+00  0.16283127186E+02  0.16283127186E+02  0.00000000000E+00 0.  1.
          2   -1    0    0  501    0  0.00000000000E+00 -0.00000000000E+00 -0.12906875610E+03  0.12906875610E+03  0.00000000000E+00 0. -1.
         23    2    1    2    0    0  0.00000000000E+00  0.00000000000E+00 -0.11278562892E+03  0.14535188329E+03  0.91687359463E+02 0.  0.
        -11    1    3    3    0    0  0.35974766873E+02  0.10937752942E+01 -0.10140701094E+03  0.10760465633E+03  0.00000000000E+00 0. -1.
         11    1    3    3    0    0 -0.35974766873E+02 -0.10937752942E+01 -0.11378617976E+02  0.37747226958E+02  0.00000000000E+00 0.  1.
<mgrwt>
<rscale>  0 0.91687359E+02</rscale>
<asrwt>0</asrwt>
<pdfrwt beam="2">  1        2 0.19856732E-01 0.91687359E+02</pdfrwt>
<pdfrwt beam="1">  1       -2 0.25050965E-02 0.91687359E+02</pdfrwt>
<totfact> 0.13095497E+05</totfact>
</mgrwt>
</event>
<event>
 5    1  0.1256986E+001  0.9199361E+02  0.7546771E-02  0.1298094E+00
         -1   -1    0    0    0  501 -0.00000000000E+00  0.00000000000E+00  0.21698666586E+02  0.21698666586E+02  0.00000000000E+00 0.  1.
          1   -1    0    0  501    0  0.00000000000E+00 -0.00000000000E+00 -0.97503961212E+02  0.97503961212E+02  0.00000000000E+00 0. -1.
         23    2    1    2    0    0  0.00000000000E+00  0.00000000000E+00 -0.75805294626E+02  0.11920262780E+03  0.91993607281E+02 0.  0.
        -13    1    3    3    0    0 -0.10864625391E+02  0.44434411328E+02 -0.31654807961E+02  0.55628085191E+02  0.00000000000E+00 0.  1.
         13    1    3    3    0    0  0.10864625391E+02 -0.44434411328E+02 -0.44150486666E+02  0.63574542608E+02  0.00000000000E+00 0. -1.
<mgrwt>
<rscale>  0 0.91993607E+02</rscale>
<asrwt>0</asrwt>
<pdfrwt beam="2">  1        1 0.15000610E-01 0.91993607E+02</pdfrwt>
<pdfrwt beam="1">  1       -1 0.33382563E-02 0.91993607E+02</pdfrwt>
<totfact> 0.10151118E+05</totfact>
</mgrwt>
</event>
<event>
 5    1  0.1256986E+001  0.9156208E+02  0.7546771E-02  0.1299112E+00
          1   -1    0    0  501    0  0.00000000000E+00  0.00000000000E+00  0.23594349182E+03  0.23594349182E+03  0.00000000000E+00 0. -1.
         -1   -1    0    0    0  501 -0.00000000000E+00 -0.00000000000E+00 -0.88830737184E+01  0.88830737184E+01  0.00000000000E+00 0.  1.
         23    2    1    2    0    0  0.00000000000E+00  0.00000000000E+00  0.22706041810E+03  0.24482656553E+03  0.91562075800E+02 0.  0.
        -13    1    3    3    0    0  0.49322764028E+01  0.43799963859E+02  0.80441016964E+02  0.91725249494E+02  0.00000000000E+00 0.  1.
         13    1    3    3    0    0 -0.49322764028E+01 -0.43799963859E+02  0.14661940113E+03  0.15310131604E+03  0.00000000000E+00 0. -1.
<mgrwt>
<rscale>  0 0.91562076E+02</rscale>
<asrwt>0</asrwt>
<pdfrwt beam="1">  1        1 0.36298994E-01 0.91562076E+02</pdfrwt>
<pdfrwt beam="2">  1       -1 0.13666269E-02 0.91562076E+02</pdfrwt>
<totfact> 0.12091024E+05</totfact>
</mgrwt>
</event>
<event>
 5    1  0.1256986E+001  0.9022362E+02  0.7546771E-02  0.1302311E+00
         -2   -1    0    0    0  501 -0.00000000000E+00  0.00000000000E+00  0.27755104207E+03  0.27755104207E+03  0.00000000000E+00 0.  1.
          2   -1    0    0  501    0  0.00000000000E+00 -0.00000000000E+00 -0.73322567288E+01  0.73322567288E+01  0.00000000000E+00 0. -1.
         23    2    1    2    0    0  0.00000000000E+00  0.00000000000E+00  0.27021878534E+03  0.28488329880E+03  0.90223622092E+02 0.  0.
        -11    1    3    3    0    0 -0.19801055499E+02 -0.33877885203E+02  0.20537992815E+03  0.20909497314E+03  0.00000000000E+00 0. -1.
         11    1    3    3    0    0  0.19801055499E+02  0.33877885203E+02  0.64838857193E+02  0.75788325663E+02  0.00000000000E+00 0.  1.
<mgrwt>
<rscale>  0 0.90223622E+02</rscale>
<asrwt>0</asrwt>
<pdfrwt beam="2">  1        2 0.11280397E-02 0.90223622E+02</pdfrwt>
<pdfrwt beam="1">  1       -2 0.42700152E-01 0.90223622E+02</pdfrwt>
<totfact> 0.54680229E+04</totfact>
</mgrwt>
</event>
<event>
 5    1  0.1256986E+001  0.8994005E+02  0.7546771E-02  0.1302997E+00
          1   -1    0    0  501    0  0.00000000000E+00  0.00000000000E+00  0.33238810059E+03  0.33238810059E+03  0.00000000000E+00 0. -1.
         -1   -1    0    0    0  501 -0.00000000000E+00 -0.00000000000E+00 -0.60841617978E+01  0.60841617978E+01  0.00000000000E+00 0.  1.
         23    2    1    2    0    0  0.00000000000E+00  0.00000000000E+00  0.32630393879E+03  0.33847226239E+03  0.89940046334E+02 0.  0.
        -13    1    3    3    0    0  0.20390490038E+02  0.37813091071E+02  0.11312668870E+03  0.12100929566E+03  0.00000000000E+00 0.  1.
         13    1    3    3    0    0 -0.20390490038E+02 -0.37813091071E+02  0.21317725010E+03  0.21746296673E+03  0.00000000000E+00 0. -1.
<mgrwt>
<rscale>  0 0.89940046E+02</rscale>
<asrwt>0</asrwt>
<pdfrwt beam="1">  1        1 0.51136617E-01 0.89940046E+02</pdfrwt>
<pdfrwt beam="2">  1       -1 0.93602515E-03 0.89940046E+02</pdfrwt>
<totfact> 0.13543394E+05</totfact>
</mgrwt>
</event>
<event>
 4    1  0.1256986E+001  0.1347196E+03  0.7546771E-02  0.1220616E+00
         -1   -1    0    0    0  501 -0.00000000000E+00  0.00000000000E+00  0.35842255317E+02  0.35842255317E+02  0.00000000000E+00 0.  1.
          1   -1    0    0  501    0  0.00000000000E+00 -0.00000000000E+00 -0.12659206174E+03  0.12659206174E+03  0.00000000000E+00 0. -1.
        -11    1    1    2    0    0 -0.15204647180E+02  0.21178377318E+02  0.29512322209E+02  0.39378701399E+02  0.00000000000E+00 0.  1.
         11    1    1    2    0    0  0.15204647180E+02 -0.21178377318E+02 -0.12026212864E+03  0.12305561566E+03  0.00000000000E+00 0. -1.
<mgrwt>
<rscale>  0 0.13471963E+03</rscale>
<asrwt>0</asrwt>
<pdfrwt beam="2">  1        1 0.19475702E-01 0.13471963E+03</pdfrwt>
<pdfrwt beam="1">  1       -1 0.55141930E-02 0.13471963E+03</pdfrwt>
<totfact> 0.36746384E+04</totfact>
</mgrwt>
</event>
<event>
 5    1  0.1256986E+001  0.9955417E+02  0.7546771E-02  0.1281236E+00
          1   -1    0    0  501    0  0.00000000000E+00  0.00000000000E+00  0.73091418732E+02  0.73091418732E+02  0.00000000000E+00 0. -1.
         -1   -1    0    0    0  501 -0.00000000000E+00 -0.00000000000E+00 -0.33899443742E+02  0.33899443742E+02  0.00000000000E+00 0.  1.
         23    2    1    2    0    0  0.00000000000E+00  0.00000000000E+00  0.39191974991E+02  0.10699086247E+03  0.99554174947E+02 0.  0.
        -11    1    3    3    0    0 -0.13141135571E+02  0.28306664227E+02  0.61271649234E+02  0.68761702158E+02  0.00000000000E+00 0. -1.
         11    1    3    3    0    0  0.13141135571E+02 -0.28306664227E+02 -0.22079674244E+02  0.38229160316E+02  0.00000000000E+00 0.  1.
<mgrwt>
<rscale>  0 0.99554175E+02</rscale>
<asrwt>0</asrwt>
<pdfrwt beam="1">  1        1 0.11244834E-01 0.99554175E+02</pdfrwt>
<pdfrwt beam="2">  1       -1 0.52152991E-02 0.99554175E+02</pdfrwt>
<totfact> 0.77843083E+04</totfact>
</mgrwt>
</event>
<event>
 5    1  0.1256986E+001  0.9475517E+02  0.7546771E-02  0.1291728E+00
          1   -1    0    0  501    0  0.00000000000E+00  0.00000000000E+00  0.13551179361E+02  0.13551179361E+02  0.00000000000E+00 0. -1.
         -1   -1    0    0    0  501 -0.00000000000E+00 -0.00000000000E+00 -0.16564135478E+03  0.16564135478E+03  0.00000000000E+00 0.  1.
         23    2    1    2    0    0  0.00000000000E+00  0.00000000000E+00 -0.15209017542E+03  0.17919253414E+03  0.94755173118E+02 0.  0.
        -11    1    3    3    0    0 -0.44829032154E+02  0.15231542167E+02 -0.79317150788E+02  0.92373439959E+02  0.00000000000E+00 0. -1.
         11    1    3    3    0    0  0.44829032154E+02 -0.15231542167E+02 -0.72773024631E+02  0.86819094182E+02  0.00000000000E+00 0.  1.
<mgrwt>
<rscale>  0 0.94755173E+02</rscale>
<asrwt>0</asrwt>
<pdfrwt beam="1">  1        1 0.20847968E-02 0.94755173E+02</pdfrwt>
<pdfrwt beam="2">  1       -1 0.25483286E-01 0.94755173E+02</pdfrwt>
<totfact> 0.66051223E+04</totfact>
</mgrwt>
</event>
<event>
 5    1  0.1256986E+001  0.9085663E+02  0.7546771E-02  0.1300790E+00
         -1   -1    0    0    0  501 -0.00000000000E+00  0.00000000000E+00  0.45825602701E+02  0.45825602701E+02  0.00000000000E+00 0.  1.
          1   -1    0    0  501    0  0.00000000000E+00 -0.00000000000E+00 -0.45034468965E+02  0.45034468965E+02  0.00000000000E+00 0. -1.
         23    2    1    2    0    0  0.00000000000E+00  0.00000000000E+00  0.79113373617E+00  0.90860071666E+02  0.90856627334E+02 0.  0.
        -13    1    3    3    0    0 -0.35468749884E+02  0.78666244181E+01 -0.26878451556E+02  0.45192556424E+02  0.00000000000E+00 0. -1.
         13    1    3    3    0    0  0.35468749884E+02 -0.78666244181E+01  0.27669585293E+02  0.45667515242E+02  0.00000000000E+00 0.  1.
<mgrwt>
<rscale>  0 0.90856627E+02</rscale>
<asrwt>0</asrwt>
<pdfrwt beam="2">  1        1 0.69283799E-02 0.90856627E+02</pdfrwt>
<pdfrwt beam="1">  1       -1 0.70500927E-02 0.90856627E+02</pdfrwt>
<totfact> 0.93218601E+04</totfact>
</mgrwt>
</event>
<event>
 5    1  0.1256986E+001  0.9301412E+02  0.7546771E-02  0.1295712E+00
          1   -1    0    0  501    0  0.00000000000E+00  0.00000000000E+00  0.11194214877E+03  0.11194214877E+03  0.00000000000E+00 0. -1.
         -1   -1    0    0    0  501 -0.00000000000E+00 -0.00000000000E+00 -0.19321648193E+02  0.19321648193E+02  0.00000000000E+00 0.  1.
         23    2    1    2    0    0  0.00000000000E+00  0.00000000000E+00  0.92620500573E+02  0.13126379696E+03  0.93014124011E+02 0.  0.
        -11    1    3    3    0    0  0.24049949080E+02 -0.79451695607E+01  0.10135489374E+03  0.10447171988E+03  0.00000000000E+00 0. -1.
         11    1    3    3    0    0 -0.24049949080E+02  0.79451695607E+01 -0.87343931665E+01  0.26792077077E+02  0.00000000000E+00 0.  1.
<mgrwt>
<rscale>  0 0.93014124E+02</rscale>
<asrwt>0</asrwt>
<pdfrwt beam="1">  1        1 0.17221869E-01 0.93014124E+02</pdfrwt>
<pdfrwt beam="2">  1       -1 0.29725613E-02 0.93014124E+02</pdfrwt>
<totfact> 0.10082749E+05</totfact>
</mgrwt>
</event>
<event>
 5    1  0.1256986E+001  0.8909591E+02  0.7546771E-02  0.1305056E+00
          2   -1    0    0  501    0  0.00000000000E+00  0.00000000000E+00  0.21412537025E+02  0.21412537025E+02  0.00000000000E+00 0. -1.
         -2   -1    0    0    0  501 -0.00000000000E+00 -0.00000000000E+00 -0.92680295783E+02  0.92680295783E+02  0.00000000000E+00 0.  1.
         23    2    1    2    0    0  0.00000000000E+00  0.00000000000E+00 -0.71267758758E+02  0.11409283281E+03  0.89095909333E+02 0.  0.
        -11    1    3    3    0    0 -0.39311017954E+02  0.17027826890E+02 -0.51276521362E+02  0.66817547577E+02  0.00000000000E+00 0.  1.
         11    1    3    3    0    0  0.39311017954E+02 -0.17027826890E+02 -0.19991237396E+02  0.47275285232E+02  0.00000000000E+00 0. -1.
<mgrwt>
<rscale>  0 0.89095909E+02</rscale>
<asrwt>0</asrwt>
<pdfrwt beam="1">  1        2 0.32942365E-02 0.89095909E+02</pdfrwt>
<pdfrwt beam="2">  1       -2 0.14258507E-01 0.89095909E+02</pdfrwt>
<totfact> 0.86413190E+04</totfact>
</mgrwt>
</event>
<event>
 5    1  0.1256986E+001  0.8546358E+02  0.7546771E-02  0.1314225E+00
          1   -1    0    0  501    0  0.00000000000E+00  0.00000000000E+00  0.14737969609E+03  0.14737969609E+03  0.00000000000E+00 0. -1.
         -1   -1    0    0    0  501 -0.00000000000E+00 -0.00000000000E+00 -0.12389807618E+02  0.12389807618E+02  0.00000000000E+00 0.  1.
         23    2    1    2    0    0  0.00000000000E+00  0.00000000000E+00  0.13498988847E+03  0.15976950371E+03  0.85463584792E+02 0.  0.
        -13    1    3    3    0    0  0.23908456715E+00 -0.26100628196E+02  0.42450527856E+01  0.26444667266E+02  0.00000000000E+00 0.  1.
         13    1    3    3    0    0 -0.23908456715E+00  0.26100628196E+02  0.13074483569E+03  0.13332483644E+03  0.00000000000E+00 0. -1.
<mgrwt>
<rscale>  0 0.85463585E+02</rscale>
<asrwt>0</asrwt>
<pdfrwt beam="1">  1        1 0.22673798E-01 0.85463585E+02</pdfrwt>
<pdfrwt beam="2">  1       -1 0.19061243E-02 0.85463585E+02</pdfrwt>
<totfact> 0.13299403E+05</totfact>
</mgrwt>
</event>
<event>
 5    1  0.1256986E+001  0.9124001E+02  0.7546771E-02  0.1299876E+00
         -2   -1    0    0    0  501 -0.00000000000E+00  0.00000000000E+00  0.35232469310E+02  0.35232469310E+02  0.00000000000E+00 0.  1.
          2   -1    0    0  501    0  0.00000000000E+00 -0.00000000000E+00 -0.59070086772E+02  0.59070086772E+02  0.00000000000E+00 0. -1.
         23    2    1    2    0    0  0.00000000000E+00  0.00000000000E+00 -0.23837617461E+02  0.94302556082E+02  0.91240013576E+02 0.  0.
        -13    1    3    3    0    0 -0.68143213205E+01 -0.36158808781E+02  0.15954729955E+02  0.40105458924E+02  0.00000000000E+00 0.  1.
         13    1    3    3    0    0  0.68143213205E+01  0.36158808781E+02 -0.39792347416E+02  0.54197097159E+02  0.00000000000E+00 0. -1.
<mgrwt>
<rscale>  0 0.91240014E+02</rscale>
<asrwt>0</asrwt>
<pdfrwt beam="2">  1        2 0.90877056E-02 0.91240014E+02</pdfrwt>
<pdfrwt beam="1">  1       -2 0.54203799E-02 0.91240014E+02</pdfrwt>
<totfact> 0.10541978E+05</totfact>
</mgrwt>
</event>
<event>
 5    1  0.1256986E+001  0.9032242E+02  0.7546771E-02  0.1302073E+00
         -2   -1    0    0    0  501 -0.00000000000E+00  0.00000000000E+00  0.16495215825E+02  0.16495215825E+02  0.00000000000E+00 0.  1.
          2   -1    0    0  501    0  0.00000000000E+00 -0.00000000000E+00 -0.12364403029E+03  0.12364403029E+03  0.00000000000E+00 0. -1.
         23    2    1    2    0    0  0.00000000000E+00  0.00000000000E+00 -0.10714881446E+03  0.14013924612E+03  0.90322421694E+02 0.  0.
        -13    1    3    3    0    0 -0.38842047904E+02 -0.14555563653E+01 -0.17898614043E+02  0.42792332425E+02  0.00000000000E+00 0.  1.
         13    1    3    3    0    0  0.38842047904E+02  0.14555563653E+01 -0.89250200422E+02  0.97346913691E+02  0.00000000000E+00 0. -1.
<mgrwt>
<rscale>  0 0.90322422E+02</rscale>
<asrwt>0</asrwt>
<pdfrwt beam="2">  1        2 0.19022158E-01 0.90322422E+02</pdfrwt>
<pdfrwt beam="1">  1       -2 0.25377256E-02 0.90322422E+02</pdfrwt>
<totfact> 0.13453200E+05</totfact>
</mgrwt>
</event>
<event>
 5    1  0.1256986E+001  0.9069015E+02  0.7546771E-02  0.1301189E+00
         -2   -1    0    0    0  501 -0.00000000000E+00  0.00000000000E+00  0.65334928251E+01  0.65334928251E+01  0.00000000000E+00 0.  1.
          2   -1    0    0  501    0  0.00000000000E+00 -0.00000000000E+00 -0.31471313723E+03  0.31471313723E+03  0.00000000000E+00 0. -1.
         23    2    1    2    0    0  0.00000000000E+00  0.00000000000E+00 -0.30817964440E+03  0.32124663005E+03  0.90690154351E+02 0.  0.
        -11    1    3    3    0    0 -0.20235122170E+02  0.40011414459E+02 -0.17806287560E+03  0.18362124366E+03  0.00000000000E+00 0. -1.
         11    1    3    3    0    0  0.20235122170E+02 -0.40011414459E+02 -0.13011676880E+03  0.13762538640E+03  0.00000000000E+00 0.  1.
<mgrwt>
<rscale>  0 0.90690154E+02</rscale>
<asrwt>0</asrwt>
<pdfrwt beam="2">  1        2 0.48417394E-01 0.90690154E+02</pdfrwt>
<pdfrwt beam="1">  1       -2 0.10051530E-02 0.90690154E+02</pdfrwt>
<totfact> 0.18551337E+05</totfact>
</mgrwt>
</event>
<event>
 5    1  0.1256986E+001  0.8953054E+02  0.7546771E-02  0.1303993E+00
         -3   -1    0    0    0  501 -0.00000000000E+00  0.00000000000E+00  0.68790294528E+02  0.68790294528E+02  0.00000000000E+00 0.  1.
          3   -1    0    0  501    0  0.00000000000E+00 -0.00000000000E+00 -0.29130989626E+02  0.29130989626E+02  0.00000000000E+00 0. -1.
         23    2    1    2    0    0  0.00000000000E+00  0.00000000000E+00  0.39659304902E+02  0.97921284154E+02  0.89530539064E+02 0.  0.
        -11    1    3    3    0    0  0.17998315995E+02 -0.30597368572E+02  0.49658149026E+02  0.61041544106E+02  0.00000000000E+00 0.  1.
         11    1    3    3    0    0 -0.17998315995E+02  0.30597368572E+02 -0.99988441249E+01  0.36879740048E+02  0.00000000000E+00 0. -1.
<mgrwt>
<rscale>  0 0.89530539E+02</rscale>
<asrwt>0</asrwt>
<pdfrwt beam="2">  1        3 0.44816907E-02 0.89530539E+02</pdfrwt>
<pdfrwt beam="1">  1       -3 0.10583122E-01 0.89530539E+02</pdfrwt>
<totfact> 0.36593878E+04</totfact>
</mgrwt>
</event>
<event>
 5    1  0.1256986E+001  0.9262420E+02  0.7546771E-02  0.1296618E+00
         -1   -1    0    0    0  501 -0.00000000000E+00  0.00000000000E+00  0.24825065310E+03  0.24825065310E+03  0.00000000000E+00 0.  1.
          1   -1    0    0  501    0  0.00000000000E+00 -0.00000000000E+00 -0.86396983031E+01  0.86396983031E+01  0.00000000000E+00 0. -1.
         23    2    1    2    0    0  0.00000000000E+00  0.00000000000E+00  0.23961095480E+03  0.25689035140E+03  0.92624203021E+02 0.  0.
        -13    1    3    3    0    0 -0.57723586275E+01 -0.45881493939E+02  0.11280054023E+03  0.12191141655E+03  0.00000000000E+00 0.  1.
         13    1    3    3    0    0  0.57723586275E+01  0.45881493939E+02  0.12681041457E+03  0.13497893485E+03  0.00000000000E+00 0. -1.
<mgrwt>
<rscale>  0 0.92624203E+02</rscale>
<asrwt>0</asrwt>
<pdfrwt beam="2">  1        1 0.13291845E-02 0.92624203E+02</pdfrwt>
<pdfrwt beam="1">  1       -1 0.38192403E-01 0.92624203E+02</pdfrwt>
<totfact> 0.62300191E+04</totfact>
</mgrwt>
</event>
<event>
 5    1  0.1256986E+001  0.9166897E+02  0.7546771E-02  0.1298860E+00
         -1   -1    0    0    0  501 -0.00000000000E+00  0.00000000000E+00  0.12355029254E+02  0.12355029254E+02  0.00000000000E+00 0.  1.
          1   -1    0    0  501    0  0.00000000000E+00 -0.00000000000E+00 -0.17003600364E+03  0.17003600364E+03  0.00000000000E+00 0. -1.
         23    2    1    2    0    0  0.00000000000E+00  0.00000000000E+00 -0.15768097438E+03  0.18239103289E+03  0.91668965288E+02 0.  0.
        -11    1    3    3    0    0 -0.12448863352E+02  0.43832746189E+02 -0.68988913193E+02  0.82678618643E+02  0.00000000000E+00 0.  1.
         11    1    3    3    0    0  0.12448863352E+02 -0.43832746189E+02 -0.88692061191E+02  0.99712414250E+02  0.00000000000E+00 0. -1.
<mgrwt>
<rscale>  0 0.91668965E+02</rscale>
<asrwt>0</asrwt>
<pdfrwt beam="2">  1        1 0.26159384E-01 0.91668965E+02</pdfrwt>
<pdfrwt beam="1">  1       -1 0.19007738E-02 0.91668965E+02</pdfrwt>
<totfact> 0.11312802E+05</totfact>
</mgrwt>
</event>
<event>
 5    1  0.1256986E+001  0.8756498E+02  0.7546771E-02  0.1308858E+00
          3   -1    0    0  501    0  0.00000000000E+00  0.00000000000E+00  0.34535663184E+03  0.34535663184E+03  0.00000000000E+00 0. -1.
         -3   -1    0    0    0  501 -0.00000000000E+00 -0.00000000000E+00 -0.55505125221E+01  0.55505125221E+01  0.00000000000E+00 0.  1.
         23    2    1    2    0    0  0.00000000000E+00  0.00000000000E+00  0.33980611932E+03  0.35090714436E+03  0.87564977236E+02 0.  0.
        -13    1    3    3    0    0  0.43042288243E+02  0.76890526983E+01  0.16081219601E+03  0.16665030002E+03  0.00000000000E+00 0. -1.
         13    1    3    3    0    0 -0.43042288243E+02 -0.76890526983E+01  0.17899392330E+03  0.18425684434E+03  0.00000000000E+00 0.  1.
<mgrwt>
<rscale>  0 0.87564977E+02</rscale>
<asrwt>0</asrwt>
<pdfrwt beam="1">  1        3 0.53131773E-01 0.87564977E+02</pdfrwt>
<pdfrwt beam="2">  1       -3 0.85392528E-03 0.87564977E+02</pdfrwt>
<totfact> 0.24714078E+04</totfact>
</mgrwt>
</event>
<event>
 5    1  0.1256986E+001  0.9368127E+02  0.7546771E-02  0.1294174E+00
          2   -1    0    0  501    0  0.00000000000E+00  0.00000000000E+00  0.31849486740E+03  0.31849486740E+03  0.00000000000E+00 0. -1.
         -2   -1    0    0    0  501 -0.00000000000E+00 -0.00000000000E+00 -0.68887920505E+01  0.68887920505E+01  0.00000000000E+00 0.  1.
         23    2    1    2    0    0  0.00000000000E+00  0.00000000000E+00  0.31160607535E+03  0.32538365945E+03  0.93681266232E+02 0.  0.
        -11    1    3    3    0    0  0.32268569447E+01  0.46726119878E+02  0.15771185884E+03  0.16451982648E+03  0.00000000000E+00 0. -1.
         11    1    3    3    0    0 -0.32268569447E+01 -0.46726119878E+02  0.15389421651E+03  0.16086383298E+03  0.00000000000E+00 0.  1.
<mgrwt>
<rscale>  0 0.93681266E+02</rscale>
<asrwt>0</asrwt>
<pdfrwt beam="1">  1        2 0.48999199E-01 0.93681266E+02</pdfrwt>
<pdfrwt beam="2">  1       -2 0.10598144E-02 0.93681266E+02</pdfrwt>
<totfact> 0.17087422E+05</totfact>
</mgrwt>
</event>
<event>
 5    1  0.1256986E+001  0.9186696E+02  0.7546771E-02  0.1298393E+00
          1   -1    0    0  501    0  0.00000000000E+00  0.00000000000E+00  0.13047102652E+03  0.13047102652E+03  0.00000000000E+00 0. -1.
         -1   -1    0    0    0  501 -0.00000000000E+00 -0.00000000000E+00 -0.16171288217E+02  0.16171288217E+02  0.00000000000E+00 0.  1.
         23    2    1    2    0    0  0.00000000000E+00  0.00000000000E+00  0.11429973830E+03  0.14664231474E+03  0.91866959760E+02 0.  0.
        -13    1    3    3    0    0 -0.23369917379E+02 -0.15744044903E+02  0.11505329273E+03  0.11845373846E+03  0.00000000000E+00 0. -1.
         13    1    3    3    0    0  0.23369917379E+02  0.15744044903E+02 -0.75355442388E+00  0.28188576276E+02  0.00000000000E+00 0.  1.
<mgrwt>
<rscale>  0 0.91866960E+02</rscale>
<asrwt>0</asrwt>
<pdfrwt beam="1">  1        1 0.20072465E-01 0.91866960E+02</pdfrwt>
<pdfrwt beam="2">  1       -1 0.24878906E-02 0.91866960E+02</pdfrwt>
<totfact> 0.10712575E+05</totfact>
</mgrwt>
</event>
<event>
 5    1  0.1256986E+001  0.9047044E+02  0.7546771E-02  0.1301716E+00
         -3   -1    0    0    0  501 -0.00000000000E+00  0.00000000000E+00  0.63480251691E+02  0.63480251691E+02  0.00000000000E+00 0.  1.
          3   -1    0    0  501    0  0.00000000000E+00 -0.00000000000E+00 -0.32234040794E+02  0.32234040794E+02  0.00000000000E+00 0. -1.
         23    2    1    2    0    0  0.00000000000E+00  0.00000000000E+00  0.31246210897E+02  0.95714292485E+02  0.90470437661E+02 0.  0.
        -11    1    3    3    0    0 -0.12621272147E+02 -0.36274780777E+02  0.40905273608E+02  0.56110584028E+02  0.00000000000E+00 0.  1.
         11    1    3    3    0    0  0.12621272147E+02  0.36274780777E+02 -0.96590627115E+01  0.39603708457E+02  0.00000000000E+00 0. -1.
<mgrwt>
<rscale>  0 0.90470438E+02</rscale>
<asrwt>0</asrwt>
<pdfrwt beam="2">  1        3 0.49590832E-02 0.90470438E+02</pdfrwt>
<pdfrwt beam="1">  1       -3 0.97661925E-02 0.90470438E+02</pdfrwt>
<totfact> 0.35740963E+04</totfact>
</mgrwt>
</event>
<event>
 5    1  0.1256986E+001  0.8894170E+02  0.7546771E-02  0.1305435E+00
         -4   -1    0    0    0  501 -0.00000000000E+00  0.00000000000E+00  0.79341846153E+01  0.79341846153E+01  0.00000000000E+00 0.  1.
          4   -1    0    0  501    0  0.00000000000E+00 -0.00000000000E+00 -0.24925770401E+03  0.24925770401E+03  0.00000000000E+00 0. -1.
         23    2    1    2    0    0  0.00000000000E+00  0.00000000000E+00 -0.24132351940E+03  0.25719188863E+03  0.88941703164E+02 0.  0.
        -13    1    3    3    0    0 -0.30063266161E+02  0.24974587257E+02 -0.59311106112E+02  0.71030537723E+02  0.00000000000E+00 0.  1.
         13    1    3    3    0    0  0.30063266161E+02 -0.24974587257E+02 -0.18201241329E+03  0.18616135091E+03  0.00000000000E+00 0. -1.
<mgrwt>
<rscale>  0 0.88941703E+02</rscale>
<asrwt>0</asrwt>
<pdfrwt beam="2">  1        4 0.38347341E-01 0.88941703E+02</pdfrwt>
<pdfrwt beam="1">  1       -4 0.12206437E-02 0.88941703E+02</pdfrwt>
<totfact> 0.20521003E+04</totfact>
</mgrwt>
</event>
<event>
 5    1  0.1256986E+001  0.9164187E+02  0.7546771E-02  0.1298924E+00
         -1   -1    0    0    0  501 -0.00000000000E+00  0.00000000000E+00  0.76519611621E+01  0.76519611621E+01  0.00000000000E+00 0.  1.
          1   -1    0    0  501    0  0.00000000000E+00 -0.00000000000E+00 -0.27438167992E+03  0.27438167992E+03  0.00000000000E+00 0. -1.
         23    2    1    2    0    0  0.00000000000E+00  0.00000000000E+00 -0.26672971876E+03  0.28203364108E+03  0.91641867252E+02 0.  0.
        -13    1    3    3    0    0  0.36735428340E+02  0.21261482471E+01 -0.49332968525E+02  0.61544731579E+02  0.00000000000E+00 0.  1.
         13    1    3    3    0    0 -0.36735428340E+02 -0.21261482471E+01 -0.21739675023E+03  0.22048890950E+03  0.00000000000E+00 0. -1.
<mgrwt>
<rscale>  0 0.91641867E+02</rscale>
<asrwt>0</asrwt>
<pdfrwt beam="2">  1        1 0.42212563E-01 0.91641867E+02</pdfrwt>
<pdfrwt beam="1">  1       -1 0.11772249E-02 0.91641867E+02</pdfrwt>
<totfact> 0.12423725E+05</totfact>
</mgrwt>
</event>
<event>
 5    1  0.1256986E+001  0.9632260E+02  0.7546771E-02  0.1288225E+00
         -1   -1    0    0    0  501 -0.00000000000E+00  0.00000000000E+00  0.10204809018E+03  0.10204809018E+03  0.00000000000E+00 0.  1.
          1   -1    0    0  501    0  0.00000000000E+00 -0.00000000000E+00 -0.22729586709E+02  0.22729586709E+02  0.00000000000E+00 0. -1.
         23    2    1    2    0    0  0.00000000000E+00  0.00000000000E+00  0.79318503468E+02  0.12477767689E+03  0.96322602003E+02 0.  0.
        -13    1    3    3    0    0  0.80324789213E+01 -0.36741308958E+02  0.78630912541E+02  0.87162290634E+02  0.00000000000E+00 0.  1.
         13    1    3    3    0    0 -0.80324789213E+01  0.36741308958E+02  0.68759092744E+00  0.37615386252E+02  0.00000000000E+00 0. -1.
<mgrwt>
<rscale>  0 0.96322602E+02</rscale>
<asrwt>0</asrwt>
<pdfrwt beam="2">  1        1 0.34968595E-02 0.96322602E+02</pdfrwt>
<pdfrwt beam="1">  1       -1 0.15699706E-01 0.96322602E+02</pdfrwt>
<totfact> 0.70353823E+04</totfact>
</mgrwt>
</event>
<event>
 5    1  0.1256986E+001  0.9162798E+02  0.7546771E-02  0.1298957E+00
         -3   -1    0    0    0  501 -0.00000000000E+00  0.00000000000E+00  0.18037613376E+03  0.18037613376E+03  0.00000000000E+00 0.  1.
          3   -1    0    0  501    0  0.00000000000E+00 -0.00000000000E+00 -0.11636360737E+02  0.11636360737E+02  0.00000000000E+00 0. -1.
         23    2    1    2    0    0  0.00000000000E+00  0.00000000000E+00  0.16873977302E+03  0.19201249449E+03  0.91627981769E+02 0.  0.
        -11    1    3    3    0    0 -0.21453076227E+02  0.22497689103E+02  0.15489249809E+03  0.15798122185E+03  0.00000000000E+00 0.  1.
         11    1    3    3    0    0  0.21453076227E+02 -0.22497689103E+02  0.13847274934E+02  0.34031272642E+02  0.00000000000E+00 0. -1.
<mgrwt>
<rscale>  0 0.91627982E+02</rscale>
<asrwt>0</asrwt>
<pdfrwt beam="2">  1        3 0.17902095E-02 0.91627982E+02</pdfrwt>
<pdfrwt beam="1">  1       -3 0.27750172E-01 0.91627982E+02</pdfrwt>
<totfact> 0.28532676E+04</totfact>
</mgrwt>
</event>
<event>
 5    1  0.1256986E+001  0.9227517E+02  0.7546771E-02  0.1297434E+00
         -1   -1    0    0    0  501 -0.00000000000E+00  0.00000000000E+00  0.14881310978E+02  0.14881310978E+02  0.00000000000E+00 0.  1.
          1   -1    0    0  501    0  0.00000000000E+00 -0.00000000000E+00 -0.14304361690E+03  0.14304361690E+03  0.00000000000E+00 0. -1.
         23    2    1    2    0    0  0.00000000000E+00  0.00000000000E+00 -0.12816230592E+03  0.15792492788E+03  0.92275165598E+02 0.  0.
        -11    1    3    3    0    0 -0.21424965307E+02 -0.17041407668E+02 -0.52092667592E+00  0.27380834142E+02  0.00000000000E+00 0.  1.
         11    1    3    3    0    0  0.21424965307E+02  0.17041407668E+02 -0.12764137925E+03  0.13054409374E+03  0.00000000000E+00 0. -1.
<mgrwt>
<rscale>  0 0.92275166E+02</rscale>
<asrwt>0</asrwt>
<pdfrwt beam="2">  1        1 0.22006712E-01 0.92275166E+02</pdfrwt>
<pdfrwt beam="1">  1       -1 0.22894323E-02 0.92275166E+02</pdfrwt>
<totfact> 0.10762030E+05</totfact>
</mgrwt>
</event>
<event>
 5    1  0.1256986E+001  0.9225884E+02  0.7546771E-02  0.1297472E+00
         -2   -1    0    0    0  501 -0.00000000000E+00  0.00000000000E+00  0.75778420884E+01  0.75778420884E+01  0.00000000000E+00 0.  1.
          2   -1    0    0  501    0  0.00000000000E+00 -0.00000000000E+00 -0.28080859715E+03  0.28080859715E+03  0.00000000000E+00 0. -1.
         23    2    1    2    0    0  0.00000000000E+00  0.00000000000E+00 -0.27323075506E+03  0.28838643924E+03  0.92258836028E+02 0.  0.
        -13    1    3    3    0    0 -0.59048496980E+01 -0.41590725581E+02 -0.77038170819E+02  0.87746996914E+02  0.00000000000E+00 0.  1.
         13    1    3    3    0    0  0.59048496980E+01  0.41590725581E+02 -0.19619258424E+03  0.20063944233E+03  0.00000000000E+00 0. -1.
<mgrwt>
<rscale>  0 0.92258836E+02</rscale>
<asrwt>0</asrwt>
<pdfrwt beam="2">  1        2 0.43201319E-01 0.92258836E+02</pdfrwt>
<pdfrwt beam="1">  1       -2 0.11658220E-02 0.92258836E+02</pdfrwt>
<totfact> 0.16984009E+05</totfact>
</mgrwt>
</event>
<event>
 5    1  0.1256986E+001  0.8952454E+02  0.7546771E-02  0.1304007E+00
          1   -1    0    0  501    0  0.00000000000E+00  0.00000000000E+00  0.25301325414E+02  0.25301325414E+02  0.00000000000E+00 0. -1.
         -1   -1    0    0    0  501 -0.00000000000E+00 -0.00000000000E+00 -0.79191935207E+02  0.79191935207E+02  0.00000000000E+00 0.  1.
         23    2    1    2    0    0  0.00000000000E+00  0.00000000000E+00 -0.53890609793E+02  0.10449326062E+03  0.89524542396E+02 0.  0.
        -13    1    3    3    0    0  0.32294966316E+01  0.43619252837E+02 -0.38054720908E+02  0.57976121378E+02  0.00000000000E+00 0.  1.
         13    1    3    3    0    0 -0.32294966316E+01 -0.43619252837E+02 -0.15835888884E+02  0.46517139243E+02  0.00000000000E+00 0. -1.
<mgrwt>
<rscale>  0 0.89524542E+02</rscale>
<asrwt>0</asrwt>
<pdfrwt beam="1">  1        1 0.38925116E-02 0.89524542E+02</pdfrwt>
<pdfrwt beam="2">  1       -1 0.12183375E-01 0.89524542E+02</pdfrwt>
<totfact> 0.88854115E+04</totfact>
</mgrwt>
</event>
<event>
 5    1  0.1256986E+001  0.9629990E+02  0.7546771E-02  0.1288275E+00
          1   -1    0    0  501    0  0.00000000000E+00  0.00000000000E+00  0.18314357014E+02  0.18314357014E+02  0.00000000000E+00 0. -1.
         -1   -1    0    0    0  501 -0.00000000000E+00 -0.00000000000E+00 -0.12659017060E+03  0.12659017060E+03  0.00000000000E+00 0.  1.
         23    2    1    2    0    0  0.00000000000E+00  0.00000000000E+00 -0.10827581359E+03  0.14490452762E+03  0.96299897796E+02 0.  0.
        -13    1    3    3    0    0  0.38138118961E+02  0.30179529669E+01 -0.10144589127E+02  0.39579500332E+02  0.00000000000E+00 0. -1.
         13    1    3    3    0    0 -0.38138118961E+02 -0.30179529669E+01 -0.98131224464E+02  0.10532502729E+03  0.00000000000E+00 0.  1.
<mgrwt>
<rscale>  0 0.96299898E+02</rscale>
<asrwt>0</asrwt>
<pdfrwt beam="1">  1        1 0.28175934E-02 0.96299898E+02</pdfrwt>
<pdfrwt beam="2">  1       -1 0.19475410E-01 0.96299898E+02</pdfrwt>
<totfact> 0.67399530E+04</totfact>
</mgrwt>
</event>
<event>
 5    1  0.1256986E+001  0.9117677E+02  0.7546771E-02  0.1300027E+00
         -1   -1    0    0    0  501 -0.00000000000E+00  0.00000000000E+00  0.63972651861E+01  0.63972651861E+01  0.00000000000E+00 0.  1.
          1   -1    0    0  501    0  0.00000000000E+00 -0.00000000000E+00 -0.32487333567E+03  0.32487333567E+03  0.00000000000E+00 0. -1.
         23    2    1    2    0    0  0.00000000000E+00  0.00000000000E+00 -0.31847607049E+03  0.33127060086E+03  0.91176770731E+02 0.  0.
        -11    1    3    3    0    0 -0.33529292290E+02  0.28443560017E+02 -0.20299624544E+03  0.20770345498E+03  0.00000000000E+00 0. -1.
         11    1    3    3    0    0  0.33529292290E+02 -0.28443560017E+02 -0.11547982505E+03  0.12356714588E+03  0.00000000000E+00 0.  1.
<mgrwt>
<rscale>  0 0.91176771E+02</rscale>
<asrwt>0</asrwt>
<pdfrwt beam="2">  1        1 0.49980505E-01 0.91176771E+02</pdfrwt>
<pdfrwt beam="1">  1       -1 0.98419481E-03 0.91176771E+02</pdfrwt>
<totfact> 0.13005657E+05</totfact>
</mgrwt>
</event>
<event>
 5    1  0.1256986E+001  0.6855419E+02  0.7546771E-02  0.1365080E+00
          2   -1    0    0  501    0  0.00000000000E+00  0.00000000000E+00  0.39858717230E+02  0.39858717230E+02  0.00000000000E+00 0. -1.
         -2   -1    0    0    0  501 -0.00000000000E+00 -0.00000000000E+00 -0.29477094998E+02  0.29477094998E+02  0.00000000000E+00 0.  1.
         23    2    1    2    0    0  0.00000000000E+00  0.00000000000E+00  0.10381622232E+02  0.69335812228E+02  0.68554188619E+02 0.  0.
        -11    1    3    3    0    0 -0.26745850517E+02  0.11898101274E+02  0.23227077330E+02  0.37368468728E+02  0.00000000000E+00 0. -1.
         11    1    3    3    0    0  0.26745850517E+02 -0.11898101274E+02 -0.12845455098E+02  0.31967343500E+02  0.00000000000E+00 0.  1.
<mgrwt>
<rscale>  0 0.68554189E+02</rscale>
<asrwt>0</asrwt>
<pdfrwt beam="1">  1        2 0.61321104E-02 0.68554189E+02</pdfrwt>
<pdfrwt beam="2">  1       -2 0.45349377E-02 0.68554189E+02</pdfrwt>
<totfact> 0.21254205E+05</totfact>
</mgrwt>
</event>
<event>
 5    1  0.1256986E+001  0.9107071E+02  0.7546771E-02  0.1300279E+00
         -2   -1    0    0    0  501 -0.00000000000E+00  0.00000000000E+00  0.88236831697E+01  0.88236831697E+01  0.00000000000E+00 0.  1.
          2   -1    0    0  501    0  0.00000000000E+00 -0.00000000000E+00 -0.23498898381E+03  0.23498898381E+03  0.00000000000E+00 0. -1.
         23    2    1    2    0    0  0.00000000000E+00  0.00000000000E+00 -0.22616530065E+03  0.24381266698E+03  0.91070705313E+02 0.  0.
        -13    1    3    3    0    0  0.30643011356E+01  0.41330513786E+02 -0.62579154344E+02  0.75058323120E+02  0.00000000000E+00 0. -1.
         13    1    3    3    0    0 -0.30643011356E+01 -0.41330513786E+02 -0.16358614630E+03  0.16875434386E+03  0.00000000000E+00 0.  1.
<mgrwt>
<rscale>  0 0.91070705E+02</rscale>
<asrwt>0</asrwt>
<pdfrwt beam="2">  1        2 0.36152151E-01 0.91070705E+02</pdfrwt>
<pdfrwt beam="1">  1       -2 0.13574897E-02 0.91070705E+02</pdfrwt>
<totfact> 0.16457902E+05</totfact>
</mgrwt>
</event>
<event>
 5    1  0.1256986E+001  0.9173544E+02  0.7546771E-02  0.1298703E+00
          2   -1    0    0  501    0  0.00000000000E+00  0.00000000000E+00  0.15806140573E+03  0.15806140573E+03  0.00000000000E+00 0.  1.
         -2   -1    0    0    0  501 -0.00000000000E+00 -0.00000000000E+00 -0.13310320042E+02  0.13310320042E+02  0.00000000000E+00 0. -1.
         23    2    1    2    0    0  0.00000000000E+00  0.00000000000E+00  0.14475108569E+03  0.17137172578E+03  0.91735443457E+02 0.  0.
        -13    1    3    3    0    0 -0.97856672711E+01  0.34387200353E+02  0.12605266602E+03  0.13102485811E+03  0.00000000000E+00 0.  1.
         13    1    3    3    0    0  0.97856672711E+01 -0.34387200353E+02  0.18698419669E+02  0.40346867662E+02  0.00000000000E+00 0. -1.
<mgrwt>
<rscale>  0 0.91735443E+02</rscale>
<asrwt>0</asrwt>
<pdfrwt beam="1">  1        2 0.24317138E-01 0.91735443E+02</pdfrwt>
<pdfrwt beam="2">  1       -2 0.20477417E-02 0.91735443E+02</pdfrwt>
<totfact> 0.13999758E+05</totfact>
</mgrwt>
</event>
<event>
 5    1  0.1256986E+001  0.9234411E+02  0.7546771E-02  0.1297272E+00
         -1   -1    0    0    0  501 -0.00000000000E+00  0.00000000000E+00  0.23223230788E+03  0.23223230788E+03  0.00000000000E+00 0.  1.
          1   -1    0    0  501    0  0.00000000000E+00 -0.00000000000E+00 -0.91798535956E+01  0.91798535956E+01  0.00000000000E+00 0. -1.
         23    2    1    2    0    0  0.00000000000E+00  0.00000000000E+00  0.22305245429E+03  0.24141216148E+03  0.92344108345E+02 0.  0.
        -13    1    3    3    0    0 -0.23013645868E+01  0.38109060522E+02  0.17940972848E+03  0.18342695398E+03  0.00000000000E+00 0.  1.
         13    1    3    3    0    0  0.23013645868E+01 -0.38109060522E+02  0.43642725807E+02  0.57985207499E+02  0.00000000000E+00 0. -1.
<mgrwt>
<rscale>  0 0.92344108E+02</rscale>
<asrwt>0</asrwt>
<pdfrwt beam="2">  1        1 0.14122853E-02 0.92344108E+02</pdfrwt>
<pdfrwt beam="1">  1       -1 0.35728043E-01 0.92344108E+02</pdfrwt>
<totfact> 0.64187342E+04</totfact>
</mgrwt>
</event>
<event>
 5    1  0.1256986E+001  0.8680135E+02  0.7546771E-02  0.1310788E+00
         -1   -1    0    0    0  501 -0.00000000000E+00  0.00000000000E+00  0.33316289031E+02  0.33316289031E+02  0.00000000000E+00 0.  1.
          1   -1    0    0  501    0  0.00000000000E+00 -0.00000000000E+00 -0.56537463152E+02  0.56537463152E+02  0.00000000000E+00 0. -1.
         23    2    1    2    0    0  0.00000000000E+00  0.00000000000E+00 -0.23221174121E+02  0.89853752184E+02  0.86801347074E+02 0.  0.
        -13    1    3    3    0    0 -0.15048772674E+02  0.11464829541E+02  0.28823331539E+02  0.34477417484E+02  0.00000000000E+00 0.  1.
         13    1    3    3    0    0  0.15048772674E+02 -0.11464829541E+02 -0.52044505660E+02  0.55376334700E+02  0.00000000000E+00 0. -1.
<mgrwt>
<rscale>  0 0.86801347E+02</rscale>
<asrwt>0</asrwt>
<pdfrwt beam="2">  1        1 0.86980712E-02 0.86801347E+02</pdfrwt>
<pdfrwt beam="1">  1       -1 0.51255829E-02 0.86801347E+02</pdfrwt>
<totfact> 0.10943699E+05</totfact>
</mgrwt>
</event>
<event>
 5    1  0.1256986E+001  0.9082239E+02  0.7546771E-02  0.1300872E+00
         -2   -1    0    0    0  501 -0.00000000000E+00  0.00000000000E+00  0.57623301665E+01  0.57623301665E+01  0.00000000000E+00 0.  1.
          2   -1    0    0  501    0  0.00000000000E+00 -0.00000000000E+00 -0.35787199948E+03  0.35787199948E+03  0.00000000000E+00 0. -1.
         23    2    1    2    0    0  0.00000000000E+00  0.00000000000E+00 -0.35210966931E+03  0.36363432964E+03  0.90822389714E+02 0.  0.
        -13    1    3    3    0    0 -0.11295682523E+02 -0.40728675155E+02 -0.24254186771E+03  0.24619702479E+03  0.00000000000E+00 0. -1.
         13    1    3    3    0    0  0.11295682523E+02  0.40728675155E+02 -0.10956780160E+03  0.11743730485E+03  0.00000000000E+00 0.  1.
<mgrwt>
<rscale>  0 0.90822390E+02</rscale>
<asrwt>0</asrwt>
<pdfrwt beam="2">  1        2 0.55057223E-01 0.90822390E+02</pdfrwt>
<pdfrwt beam="1">  1       -2 0.88651245E-03 0.90822390E+02</pdfrwt>
<totfact> 0.19374452E+05</totfact>
</mgrwt>
</event>
<event>
 5    1  0.1256986E+001  0.9167537E+02  0.7546771E-02  0.1298845E+00
         -1   -1    0    0    0  501 -0.00000000000E+00  0.00000000000E+00  0.99222783583E+02  0.99222783583E+02  0.00000000000E+00 0.  1.
          1   -1    0    0  501    0  0.00000000000E+00 -0.00000000000E+00 -0.21175511051E+02  0.21175511051E+02  0.00000000000E+00 0. -1.
         23    2    1    2    0    0  0.00000000000E+00  0.00000000000E+00  0.78047272532E+02  0.12039829463E+03  0.91675365290E+02 0.  0.
        -13    1    3    3    0    0  0.39490948037E+01 -0.17410468930E+02 -0.16421956265E+02  0.24256966540E+02  0.00000000000E+00 0. -1.
         13    1    3    3    0    0 -0.39490948037E+01  0.17410468930E+02  0.94469228797E+02  0.96141328094E+02  0.00000000000E+00 0.  1.
<mgrwt>
<rscale>  0 0.91675365E+02</rscale>
<asrwt>0</asrwt>
<pdfrwt beam="2">  1        1 0.32577710E-02 0.91675365E+02</pdfrwt>
<pdfrwt beam="1">  1       -1 0.15265043E-01 0.91675365E+02</pdfrwt>
<totfact> 0.80351220E+04</totfact>
</mgrwt>
</event>
<event>
 5    1  0.1256986E+001  0.9061572E+02  0.7546771E-02  0.1301367E+00
         -1   -1    0    0    0  501 -0.00000000000E+00  0.00000000000E+00  0.16387640014E+03  0.16387640014E+03  0.00000000000E+00 0.  1.
          1   -1    0    0  501    0  0.00000000000E+00 -0.00000000000E+00 -0.12526527913E+02  0.12526527913E+02  0.00000000000E+00 0. -1.
         23    2    1    2    0    0  0.00000000000E+00  0.00000000000E+00  0.15134987223E+03  0.17640292805E+03  0.90615722712E+02 0.  0.
        -11    1    3    3    0    0  0.23685567624E+02 -0.38540779110E+02  0.80601520778E+02  0.92428366424E+02  0.00000000000E+00 0.  1.
         11    1    3    3    0    0 -0.23685567624E+02  0.38540779110E+02  0.70748351449E+02  0.83974561630E+02  0.00000000000E+00 0. -1.
<mgrwt>
<rscale>  0 0.90615723E+02</rscale>
<asrwt>0</asrwt>
<pdfrwt beam="2">  1        1 0.19271583E-02 0.90615723E+02</pdfrwt>
<pdfrwt beam="1">  1       -1 0.25211752E-01 0.90615723E+02</pdfrwt>
<totfact> 0.74393509E+04</totfact>
</mgrwt>
</event>
<event>
 5    1  0.1256986E+001  0.8741909E+02  0.7546771E-02  0.1309225E+00
          3   -1    0    0  501    0  0.00000000000E+00  0.00000000000E+00  0.71845037568E+02  0.71845037568E+02  0.00000000000E+00 0. -1.
         -3   -1    0    0    0  501 -0.00000000000E+00 -0.00000000000E+00 -0.26592295161E+02  0.26592295161E+02  0.00000000000E+00 0.  1.
         23    2    1    2    0    0  0.00000000000E+00  0.00000000000E+00  0.45252742407E+02  0.98437332729E+02  0.87419092762E+02 0.  0.
        -11    1    3    3    0    0  0.42201352924E+02  0.10801306958E+02  0.26671035387E+02  0.51078043710E+02  0.00000000000E+00 0.  1.
         11    1    3    3    0    0 -0.42201352924E+02 -0.10801306958E+02  0.18581707020E+02  0.47359289019E+02  0.00000000000E+00 0. -1.
<mgrwt>
<rscale>  0 0.87419093E+02</rscale>
<asrwt>0</asrwt>
<pdfrwt beam="1">  1        3 0.11053083E-01 0.87419093E+02</pdfrwt>
<pdfrwt beam="2">  1       -3 0.40911224E-02 0.87419093E+02</pdfrwt>
<totfact> 0.38992393E+04</totfact>
</mgrwt>
</event>
<event>
 5    1  0.1256986E+001  0.9083946E+02  0.7546771E-02  0.1300831E+00
         -1   -1    0    0    0  501 -0.00000000000E+00  0.00000000000E+00  0.49772382557E+01  0.49772382557E+01  0.00000000000E+00 0.  1.
          1   -1    0    0  501    0  0.00000000000E+00 -0.00000000000E+00 -0.41447721312E+03  0.41447721312E+03  0.00000000000E+00 0. -1.
         23    2    1    2    0    0  0.00000000000E+00  0.00000000000E+00 -0.40949997486E+03  0.41945445137E+03  0.90839459295E+02 0.  0.
        -11    1    3    3    0    0  0.44220189958E+02  0.58508648579E+01 -0.16521837368E+03  0.17113377464E+03  0.00000000000E+00 0.  1.
         11    1    3    3    0    0 -0.44220189958E+02 -0.58508648579E+01 -0.24428160118E+03  0.24832067673E+03  0.00000000000E+00 0. -1.
<mgrwt>
<rscale>  0 0.90839459E+02</rscale>
<asrwt>0</asrwt>
<pdfrwt beam="2">  1        1 0.63765735E-01 0.90839459E+02</pdfrwt>
<pdfrwt beam="1">  1       -1 0.76572885E-03 0.90839459E+02</pdfrwt>
<totfact> 0.13700696E+05</totfact>
</mgrwt>
</event>
<event>
 5    1  0.1256986E+001  0.9154655E+02  0.7546771E-02  0.1299149E+00
          2   -1    0    0  501    0  0.00000000000E+00  0.00000000000E+00  0.23099117401E+03  0.23099117401E+03  0.00000000000E+00 0. -1.
         -2   -1    0    0    0  501 -0.00000000000E+00 -0.00000000000E+00 -0.90704440895E+01  0.90704440895E+01  0.00000000000E+00 0.  1.
         23    2    1    2    0    0  0.00000000000E+00  0.00000000000E+00  0.22192072992E+03  0.24006161810E+03  0.91546546172E+02 0.  0.
        -13    1    3    3    0    0 -0.43317301246E+02 -0.14791000989E+02  0.11050442172E+03  0.11960932036E+03  0.00000000000E+00 0.  1.
         13    1    3    3    0    0  0.43317301246E+02  0.14791000989E+02  0.11141630820E+03  0.12045229774E+03  0.00000000000E+00 0. -1.
<mgrwt>
<rscale>  0 0.91546546E+02</rscale>
<asrwt>0</asrwt>
<pdfrwt beam="1">  1        2 0.35537099E-01 0.91546546E+02</pdfrwt>
<pdfrwt beam="2">  1       -2 0.13954531E-02 0.91546546E+02</pdfrwt>
<totfact> 0.16127002E+05</totfact>
</mgrwt>
</event>
<event>
 5    1  0.1256986E+001  0.8910794E+02  0.7546771E-02  0.1305026E+00
         -2   -1    0    0    0  501 -0.00000000000E+00  0.00000000000E+00  0.11030664438E+02  0.11030664438E+02  0.00000000000E+00 0. -1.
          2   -1    0    0  501    0  0.00000000000E+00 -0.00000000000E+00 -0.17995799353E+03  0.17995799353E+03  0.00000000000E+00 0.  1.
         23    2    1    2    0    0  0.00000000000E+00  0.00000000000E+00 -0.16892732909E+03  0.19098865797E+03  0.89107939928E+02 0.  0.
        -11    1    3    3    0    0  0.21208663736E+01 -0.27159734041E+02 -0.16002689088E+03  0.16232915644E+03  0.00000000000E+00 0.  1.
         11    1    3    3    0    0 -0.21208663736E+01  0.27159734041E+02 -0.89004382157E+01  0.28659501527E+02  0.00000000000E+00 0. -1.
<mgrwt>
<rscale>  0 0.89107940E+02</rscale>
<asrwt>0</asrwt>
<pdfrwt beam="2">  1        2 0.27685842E-01 0.89107940E+02</pdfrwt>
<pdfrwt beam="1">  1       -2 0.16970255E-02 0.89107940E+02</pdfrwt>
<totfact> 0.15843444E+05</totfact>
</mgrwt>
</event>
<event>
 5    1  0.1256986E+001  0.8979212E+02  0.7546771E-02  0.1303356E+00
          1   -1    0    0  501    0  0.00000000000E+00  0.00000000000E+00  0.16522166741E+03  0.16522166741E+03  0.00000000000E+00 0. -1.
         -1   -1    0    0    0  501 -0.00000000000E+00 -0.00000000000E+00 -0.12199709015E+02  0.12199709015E+02  0.00000000000E+00 0.  1.
         23    2    1    2    0    0  0.00000000000E+00  0.00000000000E+00  0.15302195840E+03  0.17742137643E+03  0.89792121379E+02 0.  0.
        -13    1    3    3    0    0 -0.40225406764E+02  0.77273531704E+01  0.11283021468E+03  0.12003521434E+03  0.00000000000E+00 0. -1.
         13    1    3    3    0    0  0.40225406764E+02 -0.77273531704E+01  0.40191743713E+02  0.57386162087E+02  0.00000000000E+00 0.  1.
<mgrwt>
<rscale>  0 0.89792121E+02</rscale>
<asrwt>0</asrwt>
<pdfrwt beam="1">  1        1 0.25418716E-01 0.89792121E+02</pdfrwt>
<pdfrwt beam="2">  1       -1 0.18768784E-02 0.89792121E+02</pdfrwt>
<totfact> 0.11895616E+05</totfact>
</mgrwt>
</event>
<event>
 5    1  0.1256986E+001  0.9318723E+02  0.7546771E-02  0.1295312E+00
         -2   -1    0    0    0  501 -0.00000000000E+00  0.00000000000E+00  0.11152802707E+03  0.11152802707E+03  0.00000000000E+00 0.  1.
          2   -1    0    0  501    0  0.00000000000E+00 -0.00000000000E+00 -0.19465645952E+02  0.19465645952E+02  0.00000000000E+00 0. -1.
         23    2    1    2    0    0  0.00000000000E+00  0.00000000000E+00  0.92062381114E+02  0.13099367302E+03  0.93187232786E+02 0.  0.
        -11    1    3    3    0    0  0.23025630513E+02  0.25318345476E+02  0.90478273335E+02  0.96734255690E+02  0.00000000000E+00 0.  1.
         11    1    3    3    0    0 -0.23025630513E+02 -0.25318345476E+02  0.15841077788E+01  0.34259417328E+02  0.00000000000E+00 0. -1.
<mgrwt>
<rscale>  0 0.93187233E+02</rscale>
<asrwt>0</asrwt>
<pdfrwt beam="2">  1        2 0.29947148E-02 0.93187233E+02</pdfrwt>
<pdfrwt beam="1">  1       -2 0.17158158E-01 0.93187233E+02</pdfrwt>
<totfact> 0.73090522E+04</totfact>
</mgrwt>
</event>
<event>
 5    1  0.1256986E+001  0.9291081E+02  0.7546771E-02  0.1295952E+00
         -4   -1    0    0    0  501 -0.00000000000E+00  0.00000000000E+00  0.15221185678E+03  0.15221185678E+03  0.00000000000E+00 0.  1.
          4   -1    0    0  501    0  0.00000000000E+00 -0.00000000000E+00 -0.14178295324E+02  0.14178295324E+02  0.00000000000E+00 0. -1.
         23    2    1    2    0    0  0.00000000000E+00  0.00000000000E+00  0.13803356145E+03  0.16639015210E+03  0.92910810075E+02 0.  0.
        -13    1    3    3    0    0 -0.27399662050E+02  0.21912833786E+02  0.12354809321E+03  0.12843303742E+03  0.00000000000E+00 0.  1.
         13    1    3    3    0    0  0.27399662050E+02 -0.21912833786E+02  0.14485468249E+02  0.37957114687E+02  0.00000000000E+00 0. -1.
<mgrwt>
<rscale>  0 0.92910810E+02</rscale>
<asrwt>0</asrwt>
<pdfrwt beam="2">  1        4 0.21812763E-02 0.92910810E+02</pdfrwt>
<pdfrwt beam="1">  1       -4 0.23417208E-01 0.92910810E+02</pdfrwt>
<totfact> 0.21744175E+04</totfact>
</mgrwt>
</event>
<event>
 5    1  0.1256986E+001  0.8890295E+02  0.7546771E-02  0.1305530E+00
          1   -1    0    0  501    0  0.00000000000E+00  0.00000000000E+00  0.13233271412E+02  0.13233271412E+02  0.00000000000E+00 0. -1.
         -1   -1    0    0    0  501 -0.00000000000E+00 -0.00000000000E+00 -0.14931558330E+03  0.14931558330E+03  0.00000000000E+00 0.  1.
         23    2    1    2    0    0  0.00000000000E+00  0.00000000000E+00 -0.13608231189E+03  0.16254885471E+03  0.88902950228E+02 0.  0.
        -11    1    3    3    0    0 -0.18262868862E+02 -0.40505699081E+02 -0.70417777554E+02  0.83264082489E+02  0.00000000000E+00 0.  1.
         11    1    3    3    0    0  0.18262868862E+02  0.40505699081E+02 -0.65664534333E+02  0.79284772222E+02  0.00000000000E+00 0. -1.
<mgrwt>
<rscale>  0 0.88902950E+02</rscale>
<asrwt>0</asrwt>
<pdfrwt beam="1">  1        1 0.20358878E-02 0.88902950E+02</pdfrwt>
<pdfrwt beam="2">  1       -1 0.22971630E-01 0.88902950E+02</pdfrwt>
<totfact> 0.79932861E+04</totfact>
</mgrwt>
</event>
<event>
 5    1  0.1256986E+001  0.9148513E+02  0.7546771E-02  0.1299295E+00
          1   -1    0    0  501    0  0.00000000000E+00  0.00000000000E+00  0.29476036464E+03  0.29476036464E+03  0.00000000000E+00 0. -1.
         -1   -1    0    0    0  501 -0.00000000000E+00 -0.00000000000E+00 -0.70985880185E+01  0.70985880185E+01  0.00000000000E+00 0.  1.
         23    2    1    2    0    0  0.00000000000E+00  0.00000000000E+00  0.28766177662E+03  0.30185895265E+03  0.91485133060E+02 0.  0.
        -13    1    3    3    0    0 -0.32012255788E+02  0.26152739547E+02  0.79204334395E+02  0.89342469707E+02  0.00000000000E+00 0.  1.
         13    1    3    3    0    0  0.32012255788E+02 -0.26152739547E+02  0.20845744222E+03  0.21251648295E+03  0.00000000000E+00 0. -1.
<mgrwt>
<rscale>  0 0.91485133E+02</rscale>
<asrwt>0</asrwt>
<pdfrwt beam="1">  1        1 0.45347739E-01 0.91485133E+02</pdfrwt>
<pdfrwt beam="2">  1       -1 0.10920907E-02 0.91485133E+02</pdfrwt>
<totfact> 0.12654665E+05</totfact>
</mgrwt>
</event>
<event>
 5    1  0.1256986E+001  0.9161822E+02  0.7546771E-02  0.1298980E+00
          3   -1    0    0  501    0  0.00000000000E+00  0.00000000000E+00  0.14124400973E+02  0.14124400973E+02  0.00000000000E+00 0. -1.
         -3   -1    0    0    0  501 -0.00000000000E+00 -0.00000000000E+00 -0.14857087514E+03  0.14857087514E+03  0.00000000000E+00 0.  1.
         23    2    1    2    0    0  0.00000000000E+00  0.00000000000E+00 -0.13444647417E+03  0.16269527611E+03  0.91618221189E+02 0.  0.
        -13    1    3    3    0    0  0.31196546019E+02  0.31227189475E+02 -0.45466092205E+02  0.63368189073E+02  0.00000000000E+00 0.  1.
         13    1    3    3    0    0 -0.31196546019E+02 -0.31227189475E+02 -0.88980381962E+02  0.99327087042E+02  0.00000000000E+00 0. -1.
<mgrwt>
<rscale>  0 0.91618221E+02</rscale>
<asrwt>0</asrwt>
<pdfrwt beam="1">  1        3 0.21729847E-02 0.91618221E+02</pdfrwt>
<pdfrwt beam="2">  1       -3 0.22857058E-01 0.91618221E+02</pdfrwt>
<totfact> 0.30151345E+04</totfact>
</mgrwt>
</event>
<event>
 5    1  0.1256986E+001  0.9429863E+02  0.7546771E-02  0.1292764E+00
          1   -1    0    0  501    0  0.00000000000E+00  0.00000000000E+00  0.25000971695E+03  0.25000971695E+03  0.00000000000E+00 0. -1.
         -1   -1    0    0    0  501 -0.00000000000E+00 -0.00000000000E+00 -0.88918869343E+01  0.88918869343E+01  0.00000000000E+00 0.  1.
         23    2    1    2    0    0  0.00000000000E+00  0.00000000000E+00  0.24111783002E+03  0.25890160389E+03  0.94298634891E+02 0.  0.
        -13    1    3    3    0    0  0.43188297940E+02 -0.78311605484E+01  0.73282652562E+02  0.85421913588E+02  0.00000000000E+00 0.  1.
         13    1    3    3    0    0 -0.43188297940E+02  0.78311605484E+01  0.16783517745E+03  0.17347969030E+03  0.00000000000E+00 0. -1.
<mgrwt>
<rscale>  0 0.94298635E+02</rscale>
<asrwt>0</asrwt>
<pdfrwt beam="1">  1        1 0.38463028E-01 0.94298635E+02</pdfrwt>
<pdfrwt beam="2">  1       -1 0.13679828E-02 0.94298635E+02</pdfrwt>
<totfact> 0.11300906E+05</totfact>
</mgrwt>
</event>
<event>
 5    1  0.1256986E+001  0.9006720E+02  0.7546771E-02  0.1302689E+00
          1   -1    0    0  501    0  0.00000000000E+00  0.00000000000E+00  0.35760840751E+02  0.35760840751E+02  0.00000000000E+00 0. -1.
         -1   -1    0    0    0  501 -0.00000000000E+00 -0.00000000000E+00 -0.56710784203E+02  0.56710784203E+02  0.00000000000E+00 0.  1.
         23    2    1    2    0    0  0.00000000000E+00  0.00000000000E+00 -0.20949943453E+02  0.92471624954E+02  0.90067204303E+02 0.  0.
        -11    1    3    3    0    0 -0.25762187179E+02 -0.36749905092E+02 -0.14286145032E+02  0.47099254266E+02  0.00000000000E+00 0.  1.
         11    1    3    3    0    0  0.25762187179E+02  0.36749905092E+02 -0.66637984207E+01  0.45372370689E+02  0.00000000000E+00 0. -1.
<mgrwt>
<rscale>  0 0.90067204E+02</rscale>
<asrwt>0</asrwt>
<pdfrwt beam="1">  1        1 0.55016678E-02 0.90067204E+02</pdfrwt>
<pdfrwt beam="2">  1       -1 0.87247360E-02 0.90067204E+02</pdfrwt>
<totfact> 0.92270278E+04</totfact>
</mgrwt>
</event>
<event>
 5    1  0.1256986E+001  0.6607066E+02  0.7546771E-02  0.1373989E+00
          1   -1    0    0  501    0  0.00000000000E+00  0.00000000000E+00  0.68480411582E+02  0.68480411582E+02  0.00000000000E+00 0. -1.
         -1   -1    0    0    0  501 -0.00000000000E+00 -0.00000000000E+00 -0.15936424722E+02  0.15936424722E+02  0.00000000000E+00 0.  1.
         23    2    1    2    0    0  0.00000000000E+00  0.00000000000E+00  0.52543986861E+02  0.84416836304E+02  0.66070656849E+02 0.  0.
        -13    1    3    3    0    0 -0.30421700042E+02 -0.12359424155E+02  0.30895999384E+02  0.45086560934E+02  0.00000000000E+00 0. -1.
         13    1    3    3    0    0  0.30421700042E+02  0.12359424155E+02  0.21647987477E+02  0.39330275370E+02  0.00000000000E+00 0.  1.
<mgrwt>
<rscale>  0 0.66070657E+02</rscale>
<asrwt>0</asrwt>
<pdfrwt beam="1">  1        1 0.10535448E-01 0.66070657E+02</pdfrwt>
<pdfrwt beam="2">  1       -1 0.24517577E-02 0.66070657E+02</pdfrwt>
<totfact> 0.23434971E+05</totfact>
</mgrwt>
</event>
<event>
 5    1  0.1256986E+001  0.9120360E+02  0.7546771E-02  0.1299963E+00
         -1   -1    0    0    0  501 -0.00000000000E+00  0.00000000000E+00  0.76152804757E+02  0.76152804757E+02  0.00000000000E+00 0.  1.
          1   -1    0    0  501    0  0.00000000000E+00 -0.00000000000E+00 -0.27307254546E+02  0.27307254546E+02  0.00000000000E+00 0. -1.
         23    2    1    2    0    0  0.00000000000E+00  0.00000000000E+00  0.48845550211E+02  0.10346005930E+03  0.91203596944E+02 0.  0.
        -13    1    3    3    0    0 -0.20102243393E+02  0.33762110929E+02 -0.18289721161E+01  0.39336058048E+02  0.00000000000E+00 0. -1.
         13    1    3    3    0    0  0.20102243393E+02 -0.33762110929E+02  0.50674522327E+02  0.64124001254E+02  0.00000000000E+00 0.  1.
<mgrwt>
<rscale>  0 0.91203597E+02</rscale>
<asrwt>0</asrwt>
<pdfrwt beam="2">  1        1 0.42011161E-02 0.91203597E+02</pdfrwt>
<pdfrwt beam="1">  1       -1 0.11715816E-01 0.91203597E+02</pdfrwt>
<totfact> 0.85288759E+04</totfact>
</mgrwt>
</event>
<event>
 5    1  0.1256986E+001  0.9065638E+02  0.7546771E-02  0.1301270E+00
         -2   -1    0    0    0  501 -0.00000000000E+00  0.00000000000E+00  0.33787947913E+02  0.33787947913E+02  0.00000000000E+00 0.  1.
          2   -1    0    0  501    0  0.00000000000E+00 -0.00000000000E+00 -0.60809985005E+02  0.60809985005E+02  0.00000000000E+00 0. -1.
         23    2    1    2    0    0  0.00000000000E+00  0.00000000000E+00 -0.27022037091E+02  0.94597932918E+02  0.90656375528E+02 0.  0.
        -11    1    3    3    0    0  0.22054130123E+02 -0.24751348308E+02  0.18746305951E+02  0.38084614812E+02  0.00000000000E+00 0.  1.
         11    1    3    3    0    0 -0.22054130123E+02  0.24751348308E+02 -0.45768343042E+02  0.56513318106E+02  0.00000000000E+00 0. -1.
<mgrwt>
<rscale>  0 0.90656376E+02</rscale>
<asrwt>0</asrwt>
<pdfrwt beam="2">  1        2 0.93553823E-02 0.90656376E+02</pdfrwt>
<pdfrwt beam="1">  1       -2 0.51981458E-02 0.90656376E+02</pdfrwt>
<totfact> 0.10818199E+05</totfact>
</mgrwt>
</event>
<event>
 5    1  0.1256986E+001  0.9129917E+02  0.7546771E-02  0.1299736E+00
         -2   -1    0    0    0  501 -0.00000000000E+00  0.00000000000E+00  0.23769470595E+02  0.23769470595E+02  0.00000000000E+00 0.  1.
          2   -1    0    0  501    0  0.00000000000E+00 -0.00000000000E+00 -0.87670635732E+02  0.87670635732E+02  0.00000000000E+00 0. -1.
         23    2    1    2    0    0  0.00000000000E+00  0.00000000000E+00 -0.63901165137E+02  0.11144010633E+03  0.91299169723E+02 0.  0.
        -11    1    3    3    0    0 -0.21851196480E+02 -0.28893458976E+02  0.19544809555E+01  0.36278461310E+02  0.00000000000E+00 0.  1.
         11    1    3    3    0    0  0.21851196480E+02  0.28893458976E+02 -0.65855646093E+02  0.75161645016E+02  0.00000000000E+00 0. -1.
<mgrwt>
<rscale>  0 0.91299170E+02</rscale>
<asrwt>0</asrwt>
<pdfrwt beam="2">  1        2 0.13487790E-01 0.91299170E+02</pdfrwt>
<pdfrwt beam="1">  1       -2 0.36568416E-02 0.91299170E+02</pdfrwt>
<totfact> 0.11750621E+05</totfact>
</mgrwt>
</event>
<event>
 5    1  0.1256986E+001  0.9302526E+02  0.7546771E-02  0.1295687E+00
          2   -1    0    0  501    0  0.00000000000E+00  0.00000000000E+00  0.29399166652E+03  0.29399166652E+03  0.00000000000E+00 0. -1.
         -2   -1    0    0    0  501 -0.00000000000E+00 -0.00000000000E+00 -0.73587956762E+01  0.73587956762E+01  0.00000000000E+00 0.  1.
         23    2    1    2    0    0  0.00000000000E+00  0.00000000000E+00  0.28663287085E+03  0.30135046220E+03  0.93025256882E+02 0.  0.
        -13    1    3    3    0    0 -0.22760794390E+02  0.30676663185E+02  0.57345056735E+02  0.68902590353E+02  0.00000000000E+00 0.  1.
         13    1    3    3    0    0  0.22760794390E+02 -0.30676663185E+02  0.22928781411E+03  0.23244787185E+03  0.00000000000E+00 0. -1.
<mgrwt>
<rscale>  0 0.93025257E+02</rscale>
<asrwt>0</asrwt>
<pdfrwt beam="1">  1        2 0.45229478E-01 0.93025257E+02</pdfrwt>
<pdfrwt beam="2">  1       -2 0.11321226E-02 0.93025257E+02</pdfrwt>
<totfact> 0.16899424E+05</totfact>
</mgrwt>
</event>
<event>
 5    1  0.1256986E+001  0.8904734E+02  0.7546771E-02  0.1305175E+00
         -1   -1    0    0    0  501 -0.00000000000E+00  0.00000000000E+00  0.70837310783E+02  0.70837310783E+02  0.00000000000E+00 0.  1.
          1   -1    0    0  501    0  0.00000000000E+00 -0.00000000000E+00 -0.27984645660E+02  0.27984645660E+02  0.00000000000E+00 0. -1.
         23    2    1    2    0    0  0.00000000000E+00  0.00000000000E+00  0.42852665123E+02  0.98821956444E+02  0.89047336665E+02 0.  0.
        -11    1    3    3    0    0  0.42284093677E+02  0.12548847064E+01  0.60154143287E+01  0.42728263752E+02  0.00000000000E+00 0. -1.
         11    1    3    3    0    0 -0.42284093677E+02 -0.12548847064E+01  0.36837250794E+02  0.56093692692E+02  0.00000000000E+00 0.  1.
<mgrwt>
<rscale>  0 0.89047337E+02</rscale>
<asrwt>0</asrwt>
<pdfrwt beam="2">  1        1 0.43053301E-02 0.89047337E+02</pdfrwt>
<pdfrwt beam="1">  1       -1 0.10898048E-01 0.89047337E+02</pdfrwt>
<totfact> 0.91732588E+04</totfact>
</mgrwt>
</event>
<event>
 5    1  0.1256986E+001  0.8860200E+02  0.7546771E-02  0.1306273E+00
         -2   -1    0    0    0  501 -0.00000000000E+00  0.00000000000E+00  0.80353220814E+01  0.80353220814E+01  0.00000000000E+00 0.  1.
          2   -1    0    0  501    0  0.00000000000E+00 -0.00000000000E+00 -0.24424389921E+03  0.24424389921E+03  0.00000000000E+00 0. -1.
         23    2    1    2    0    0  0.00000000000E+00  0.00000000000E+00 -0.23620857713E+03  0.25227922129E+03  0.88601995385E+02 0.  0.
        -13    1    3    3    0    0  0.21897388423E+02  0.38491072869E+02 -0.11459376345E+03  0.12285271235E+03  0.00000000000E+00 0. -1.
         13    1    3    3    0    0 -0.21897388423E+02 -0.38491072869E+02 -0.12161481368E+03  0.12942650894E+03  0.00000000000E+00 0.  1.
<mgrwt>
<rscale>  0 0.88601995E+02</rscale>
<asrwt>0</asrwt>
<pdfrwt beam="2">  1        2 0.37575985E-01 0.88601995E+02</pdfrwt>
<pdfrwt beam="1">  1       -2 0.12362034E-02 0.88601995E+02</pdfrwt>
<totfact> 0.17966641E+05</totfact>
</mgrwt>
</event>
<event>
 5    1  0.1256986E+001  0.9321304E+02  0.7546771E-02  0.1295252E+00
          2   -1    0    0  501    0  0.00000000000E+00  0.00000000000E+00  0.23028616906E+03  0.23028616906E+03  0.00000000000E+00 0. -1.
         -2   -1    0    0    0  501 -0.00000000000E+00 -0.00000000000E+00 -0.94324717105E+01  0.94324717105E+01  0.00000000000E+00 0.  1.
         23    2    1    2    0    0  0.00000000000E+00  0.00000000000E+00  0.22085369735E+03  0.23971864077E+03  0.93213041469E+02 0.  0.
        -13    1    3    3    0    0  0.12611417668E+02  0.37089718620E+02  0.45495276231E+02  0.60037615228E+02  0.00000000000E+00 0.  1.
         13    1    3    3    0    0 -0.12611417668E+02 -0.37089718620E+02  0.17535842112E+03  0.17968102554E+03  0.00000000000E+00 0. -1.
<mgrwt>
<rscale>  0 0.93213041E+02</rscale>
<asrwt>0</asrwt>
<pdfrwt beam="1">  1        2 0.35428637E-01 0.93213041E+02</pdfrwt>
<pdfrwt beam="2">  1       -2 0.14511497E-02 0.93213041E+02</pdfrwt>
<totfact> 0.15346016E+05</totfact>
</mgrwt>
</event>
<event>
 5    1  0.1256986E+001  0.9129188E+02  0.7546771E-02  0.1299753E+00
         -1   -1    0    0    0  501 -0.00000000000E+00  0.00000000000E+00  0.84105487071E+02  0.84105487071E+02  0.00000000000E+00 0.  1.
          1   -1    0    0  501    0  0.00000000000E+00 -0.00000000000E+00 -0.24773078198E+02  0.24773078198E+02  0.00000000000E+00 0. -1.
         23    2    1    2    0    0  0.00000000000E+00  0.00000000000E+00  0.59332408873E+02  0.10887856527E+03  0.91291879334E+02 0.  0.
        -11    1    3    3    0    0  0.87723908141E+01 -0.41224352864E+02  0.50568081470E+02  0.65829575217E+02  0.00000000000E+00 0.  1.
         11    1    3    3    0    0 -0.87723908141E+01  0.41224352864E+02  0.87643274032E+01  0.43048990052E+02  0.00000000000E+00 0. -1.
<mgrwt>
<rscale>  0 0.91291879E+02</rscale>
<asrwt>0</asrwt>
<pdfrwt beam="2">  1        1 0.38112428E-02 0.91291879E+02</pdfrwt>
<pdfrwt beam="1">  1       -1 0.12939306E-01 0.91291879E+02</pdfrwt>
<totfact> 0.83659488E+04</totfact>
</mgrwt>
</event>
<event>
 5    1  0.1256986E+001  0.8949196E+02  0.7546771E-02  0.1304087E+00
         -2   -1    0    0    0  501 -0.00000000000E+00  0.00000000000E+00  0.41885843358E+02  0.41885843358E+02  0.00000000000E+00 0.  1.
          2   -1    0    0  501    0  0.00000000000E+00 -0.00000000000E+00 -0.47801418943E+02  0.47801418943E+02  0.00000000000E+00 0. -1.
         23    2    1    2    0    0  0.00000000000E+00  0.00000000000E+00 -0.59155755851E+01  0.89687262301E+02  0.89491960446E+02 0.  0.
        -11    1    3    3    0    0 -0.30136299177E+02 -0.28450582548E+02  0.13948246199E+02  0.43728546139E+02  0.00000000000E+00 0.  1.
         11    1    3    3    0    0  0.30136299177E+02  0.28450582548E+02 -0.19863821784E+02  0.45958716162E+02  0.00000000000E+00 0. -1.
<mgrwt>
<rscale>  0 0.89491960E+02</rscale>
<asrwt>0</asrwt>
<pdfrwt beam="2">  1        2 0.73540645E-02 0.89491960E+02</pdfrwt>
<pdfrwt beam="1">  1       -2 0.64439759E-02 0.89491960E+02</pdfrwt>
<totfact> 0.10535820E+05</totfact>
</mgrwt>
</event>
<event>
 5    1  0.1256986E+001  0.9327115E+02  0.7546771E-02  0.1295118E+00
         -1   -1    0    0    0  501 -0.00000000000E+00  0.00000000000E+00  0.10273807291E+02  0.10273807291E+02  0.00000000000E+00 0.  1.
          1   -1    0    0  501    0  0.00000000000E+00 -0.00000000000E+00 -0.21169141002E+03  0.21169141002E+03  0.00000000000E+00 0. -1.
         23    2    1    2    0    0  0.00000000000E+00  0.00000000000E+00 -0.20141760273E+03  0.22196521731E+03  0.93271147773E+02 0.  0.
        -11    1    3    3    0    0  0.13275153234E+02 -0.29411532926E+02 -0.20583586801E+02  0.38274691482E+02  0.00000000000E+00 0.  1.
         11    1    3    3    0    0 -0.13275153234E+02  0.29411532926E+02 -0.18083401593E+03  0.18369052583E+03  0.00000000000E+00 0. -1.
<mgrwt>
<rscale>  0 0.93271148E+02</rscale>
<asrwt>0</asrwt>
<pdfrwt beam="2">  1        1 0.32567908E-01 0.93271148E+02</pdfrwt>
<pdfrwt beam="1">  1       -1 0.15805858E-02 0.93271148E+02</pdfrwt>
<totfact> 0.11264058E+05</totfact>
</mgrwt>
</event>
<event>
 5    1  0.1256986E+001  0.8904401E+02  0.7546771E-02  0.1305183E+00
          1   -1    0    0  501    0  0.00000000000E+00  0.00000000000E+00  0.67697840517E+01  0.67697840517E+01  0.00000000000E+00 0.  1.
         -1   -1    0    0    0  501 -0.00000000000E+00 -0.00000000000E+00 -0.29280238731E+03  0.29280238731E+03  0.00000000000E+00 0. -1.
         23    2    1    2    0    0  0.00000000000E+00  0.00000000000E+00 -0.28603260326E+03  0.29957217136E+03  0.89044010061E+02 0.  0.
        -11    1    3    3    0    0  0.42433728338E+01 -0.38216094386E+02 -0.67507618985E+02  0.77690119733E+02  0.00000000000E+00 0.  1.
         11    1    3    3    0    0 -0.42433728338E+01  0.38216094386E+02 -0.21852498428E+03  0.22188205163E+03  0.00000000000E+00 0. -1.
<mgrwt>
<rscale>  0 0.89044010E+02</rscale>
<asrwt>0</asrwt>
<pdfrwt beam="1">  1        1 0.10415054E-02 0.89044010E+02</pdfrwt>
<pdfrwt beam="2">  1       -1 0.45046514E-01 0.89044010E+02</pdfrwt>
<totfact> 0.65062077E+04</totfact>
</mgrwt>
</event>
<event>
 5    1  0.1256986E+001  0.9134779E+02  0.7546771E-02  0.1299620E+00
          1   -1    0    0  501    0  0.00000000000E+00  0.00000000000E+00  0.36250772201E+03  0.36250772201E+03  0.00000000000E+00 0.  1.
         -1   -1    0    0    0  501 -0.00000000000E+00 -0.00000000000E+00 -0.57546492397E+01  0.57546492397E+01  0.00000000000E+00 0. -1.
         23    2    1    2    0    0  0.00000000000E+00  0.00000000000E+00  0.35675307277E+03  0.36826237125E+03  0.91347792242E+02 0.  0.
        -13    1    3    3    0    0  0.22999534891E+02  0.39163420899E+02  0.15889481493E+03  0.16525832613E+03  0.00000000000E+00 0.  1.
         13    1    3    3    0    0 -0.22999534891E+02 -0.39163420899E+02  0.19785825783E+03  0.20300404512E+03  0.00000000000E+00 0. -1.
<mgrwt>
<rscale>  0 0.91347792E+02</rscale>
<asrwt>0</asrwt>
<pdfrwt beam="1">  1        1 0.55770401E-01 0.91347792E+02</pdfrwt>
<pdfrwt beam="2">  1       -1 0.88533093E-03 0.91347792E+02</pdfrwt>
<totfact> 0.13199384E+05</totfact>
</mgrwt>
</event>
<event>
 5    1  0.1256986E+001  0.1002247E+03  0.7546771E-02  0.1279824E+00
         -1   -1    0    0    0  501 -0.00000000000E+00  0.00000000000E+00  0.12772536523E+03  0.12772536523E+03  0.00000000000E+00 0.  1.
          1   -1    0    0  501    0  0.00000000000E+00 -0.00000000000E+00 -0.19661291291E+02  0.19661291291E+02  0.00000000000E+00 0. -1.
         23    2    1    2    0    0  0.00000000000E+00  0.00000000000E+00  0.10806407394E+03  0.14738665653E+03  0.10022465986E+03 0.  0.
        -11    1    3    3    0    0  0.10172411302E+01  0.47989667358E+02  0.32863968209E+02  0.58172874770E+02  0.00000000000E+00 0. -1.
         11    1    3    3    0    0 -0.10172411302E+01 -0.47989667358E+02  0.75200105734E+02  0.89213781755E+02  0.00000000000E+00 0.  1.
<mgrwt>
<rscale>  0 0.10022466E+03</rscale>
<asrwt>0</asrwt>
<pdfrwt beam="2">  1        1 0.30248141E-02 0.10022466E+03</pdfrwt>
<pdfrwt beam="1">  1       -1 0.19650056E-01 0.10022466E+03</pdfrwt>
<totfact> 0.60641408E+04</totfact>
</mgrwt>
</event>
<event>
 5    1  0.1256986E+001  0.9083363E+02  0.7546771E-02  0.1300845E+00
         -2   -1    0    0    0  501 -0.00000000000E+00  0.00000000000E+00  0.13230067647E+02  0.13230067647E+02  0.00000000000E+00 0.  1.
          2   -1    0    0  501    0  0.00000000000E+00 -0.00000000000E+00 -0.15590905155E+03  0.15590905155E+03  0.00000000000E+00 0. -1.
         23    2    1    2    0    0  0.00000000000E+00  0.00000000000E+00 -0.14267898390E+03  0.16913911919E+03  0.90833634711E+02 0.  0.
        -13    1    3    3    0    0  0.20030183729E+02 -0.14205376929E+02 -0.19731696412E+00  0.24556871297E+02  0.00000000000E+00 0.  1.
         13    1    3    3    0    0 -0.20030183729E+02  0.14205376929E+02 -0.14248166693E+03  0.14458224790E+03  0.00000000000E+00 0. -1.
<mgrwt>
<rscale>  0 0.90833635E+02</rscale>
<asrwt>0</asrwt>
<pdfrwt beam="2">  1        2 0.23986007E-01 0.90833635E+02</pdfrwt>
<pdfrwt beam="1">  1       -2 0.20353951E-02 0.90833635E+02</pdfrwt>
<totfact> 0.14312302E+05</totfact>
</mgrwt>
</event>
<event>
 5    1  0.1256986E+001  0.9263037E+02  0.7546771E-02  0.1296604E+00
          1   -1    0    0  501    0  0.00000000000E+00  0.00000000000E+00  0.12579733779E+03  0.12579733779E+03  0.00000000000E+00 0. -1.
         -1   -1    0    0    0  501 -0.00000000000E+00 -0.00000000000E+00 -0.17052000821E+02  0.17052000821E+02  0.00000000000E+00 0.  1.
         23    2    1    2    0    0  0.00000000000E+00  0.00000000000E+00  0.10874533697E+03  0.14284933861E+03  0.92630368829E+02 0.  0.
        -13    1    3    3    0    0 -0.41979918378E+02 -0.11652156654E+02  0.30135487077E+02  0.52973898130E+02  0.00000000000E+00 0. -1.
         13    1    3    3    0    0  0.41979918378E+02  0.11652156654E+02  0.78609849892E+02  0.89875440482E+02  0.00000000000E+00 0.  1.
<mgrwt>
<rscale>  0 0.92630369E+02</rscale>
<asrwt>0</asrwt>
<pdfrwt beam="1">  1        1 0.19353436E-01 0.92630369E+02</pdfrwt>
<pdfrwt beam="2">  1       -1 0.26233848E-02 0.92630369E+02</pdfrwt>
<totfact> 0.10406870E+05</totfact>
</mgrwt>
</event>
<event>
 5    1  0.1256986E+001  0.9343042E+02  0.7546771E-02  0.1294751E+00
         -2   -1    0    0    0  501 -0.00000000000E+00  0.00000000000E+00  0.99388744292E+01  0.99388744292E+01  0.00000000000E+00 0.  1.
          2   -1    0    0  501    0  0.00000000000E+00 -0.00000000000E+00 -0.21957322870E+03  0.21957322870E+03  0.00000000000E+00 0. -1.
         23    2    1    2    0    0  0.00000000000E+00  0.00000000000E+00 -0.20963435427E+03  0.22951210313E+03  0.93430417918E+02 0.  0.
        -11    1    3    3    0    0  0.34302990150E+02 -0.17160871736E+02 -0.17032433799E+03  0.17458972125E+03  0.00000000000E+00 0. -1.
         11    1    3    3    0    0 -0.34302990150E+02  0.17160871736E+02 -0.39310016278E+02  0.54922381884E+02  0.00000000000E+00 0.  1.
<mgrwt>
<rscale>  0 0.93430418E+02</rscale>
<asrwt>0</asrwt>
<pdfrwt beam="2">  1        2 0.33780495E-01 0.93430418E+02</pdfrwt>
<pdfrwt beam="1">  1       -2 0.15290577E-02 0.93430418E+02</pdfrwt>
<totfact> 0.14984636E+05</totfact>
</mgrwt>
</event>
<event>
 5    1  0.1256986E+001  0.9078181E+02  0.7546771E-02  0.1300969E+00
         -1   -1    0    0    0  501 -0.00000000000E+00  0.00000000000E+00  0.13962848782E+02  0.13962848782E+02  0.00000000000E+00 0.  1.
          1   -1    0    0  501    0  0.00000000000E+00 -0.00000000000E+00 -0.14755831355E+03  0.14755831355E+03  0.00000000000E+00 0. -1.
         23    2    1    2    0    0  0.00000000000E+00  0.00000000000E+00 -0.13359546477E+03  0.16152116233E+03  0.90781813568E+02 0.  0.
        -11    1    3    3    0    0  0.21306995392E+01 -0.30332046218E+02 -0.68360029857E+01  0.31165747947E+02  0.00000000000E+00 0.  1.
         11    1    3    3    0    0 -0.21306995392E+01  0.30332046218E+02 -0.12675946178E+03  0.13035541438E+03  0.00000000000E+00 0. -1.
<mgrwt>
<rscale>  0 0.90781814E+02</rscale>
<asrwt>0</asrwt>
<pdfrwt beam="2">  1        1 0.22701279E-01 0.90781814E+02</pdfrwt>
<pdfrwt beam="1">  1       -1 0.21481306E-02 0.90781814E+02</pdfrwt>
<totfact> 0.11311254E+05</totfact>
</mgrwt>
</event>
<event>
 5    1  0.1256986E+001  0.9172754E+02  0.7546771E-02  0.1298721E+00
         -1   -1    0    0    0  501 -0.00000000000E+00  0.00000000000E+00  0.64393651263E+01  0.64393651263E+01  0.00000000000E+00 0.  1.
          1   -1    0    0  501    0  0.00000000000E+00 -0.00000000000E+00 -0.32666036280E+03  0.32666036280E+03  0.00000000000E+00 0. -1.
         23    2    1    2    0    0  0.00000000000E+00  0.00000000000E+00 -0.32022099767E+03  0.33309972792E+03  0.91727538904E+02 0.  0.
        -11    1    3    3    0    0 -0.21970339193E+02 -0.37453287841E+02 -0.10648845120E+03  0.11500102092E+03  0.00000000000E+00 0.  1.
         11    1    3    3    0    0  0.21970339193E+02  0.37453287841E+02 -0.21373254647E+03  0.21809870700E+03  0.00000000000E+00 0. -1.
<mgrwt>
<rscale>  0 0.91727539E+02</rscale>
<asrwt>0</asrwt>
<pdfrwt beam="2">  1        1 0.50255423E-01 0.91727539E+02</pdfrwt>
<pdfrwt beam="1">  1       -1 0.99067191E-03 0.91727539E+02</pdfrwt>
<totfact> 0.12811661E+05</totfact>
</mgrwt>
</event>
<event>
 5    1  0.1256986E+001  0.9681613E+02  0.7546771E-02  0.1287137E+00
         -3   -1    0    0    0  501 -0.00000000000E+00  0.00000000000E+00  0.44489106898E+02  0.44489106898E+02  0.00000000000E+00 0.  1.
          3   -1    0    0  501    0  0.00000000000E+00 -0.00000000000E+00 -0.52672241223E+02  0.52672241223E+02  0.00000000000E+00 0. -1.
         23    2    1    2    0    0  0.00000000000E+00  0.00000000000E+00 -0.81831343253E+01  0.97161348121E+02  0.96816134406E+02 0.  0.
        -11    1    3    3    0    0  0.12737796952E+02  0.43296137787E+01 -0.50758384233E+02  0.52511052138E+02  0.00000000000E+00 0. -1.
         11    1    3    3    0    0 -0.12737796952E+02 -0.43296137787E+01  0.42575249908E+02  0.44650295983E+02  0.00000000000E+00 0.  1.
<mgrwt>
<rscale>  0 0.96816134E+02</rscale>
<asrwt>0</asrwt>
<pdfrwt beam="2">  1        3 0.81034216E-02 0.96816134E+02</pdfrwt>
<pdfrwt beam="1">  1       -3 0.68444781E-02 0.96816134E+02</pdfrwt>
<totfact> 0.29601123E+04</totfact>
</mgrwt>
</event>
<event>
 5    1  0.1256986E+001  0.1225792E+03  0.7546771E-02  0.1238902E+00
          2   -1    0    0  501    0  0.00000000000E+00  0.00000000000E+00  0.96863812214E+01  0.96863812214E+01  0.00000000000E+00 0. -1.
         -2   -1    0    0    0  501 -0.00000000000E+00 -0.00000000000E+00 -0.38780353198E+03  0.38780353198E+03  0.00000000000E+00 0.  1.
         23    2    1    2    0    0  0.00000000000E+00  0.00000000000E+00 -0.37811715075E+03  0.39748991320E+03  0.12257916380E+03 0.  0.
        -11    1    3    3    0    0 -0.12246672409E+02 -0.51314989588E+02 -0.29021916116E+03  0.29497520344E+03  0.00000000000E+00 0.  1.
         11    1    3    3    0    0  0.12246672409E+02  0.51314989588E+02 -0.87897989598E+02  0.10251470976E+03  0.00000000000E+00 0. -1.
<mgrwt>
<rscale>  0 0.12257916E+03</rscale>
<asrwt>0</asrwt>
<pdfrwt beam="1">  1        2 0.14902124E-02 0.12257916E+03</pdfrwt>
<pdfrwt beam="2">  1       -2 0.59662085E-01 0.12257916E+03</pdfrwt>
<totfact> 0.20173316E+04</totfact>
</mgrwt>
</event>
<event>
 5    1  0.1256986E+001  0.9206487E+02  0.7546771E-02  0.1297927E+00
         -2   -1    0    0    0  501 -0.00000000000E+00  0.00000000000E+00  0.54001723790E+02  0.54001723790E+02  0.00000000000E+00 0.  1.
          2   -1    0    0  501    0  0.00000000000E+00 -0.00000000000E+00 -0.39239208164E+02  0.39239208164E+02  0.00000000000E+00 0. -1.
         23    2    1    2    0    0  0.00000000000E+00  0.00000000000E+00  0.14762515626E+02  0.93240931954E+02  0.92064865851E+02 0.  0.
        -11    1    3    3    0    0  0.43105612897E+02 -0.11276866663E+02  0.19092857447E+02  0.48474723211E+02  0.00000000000E+00 0.  1.
         11    1    3    3    0    0 -0.43105612897E+02  0.11276866663E+02 -0.43303418210E+01  0.44766208743E+02  0.00000000000E+00 0. -1.
<mgrwt>
<rscale>  0 0.92064866E+02</rscale>
<asrwt>0</asrwt>
<pdfrwt beam="2">  1        2 0.60368013E-02 0.92064866E+02</pdfrwt>
<pdfrwt beam="1">  1       -2 0.83079575E-02 0.92064866E+02</pdfrwt>
<totfact> 0.92278617E+04</totfact>
</mgrwt>
</event>
<event>
 5    1  0.1256986E+001  0.9233459E+02  0.7546771E-02  0.1297295E+00
          1   -1    0    0  501    0  0.00000000000E+00  0.00000000000E+00  0.16076290624E+03  0.16076290624E+03  0.00000000000E+00 0. -1.
         -1   -1    0    0    0  501 -0.00000000000E+00 -0.00000000000E+00 -0.13258152303E+02  0.13258152303E+02  0.00000000000E+00 0.  1.
         23    2    1    2    0    0  0.00000000000E+00  0.00000000000E+00  0.14750475394E+03  0.17402105855E+03  0.92334589309E+02 0.  0.
        -11    1    3    3    0    0  0.43164469278E+02 -0.16291182590E+02  0.76931321157E+02  0.89705084656E+02  0.00000000000E+00 0.  1.
         11    1    3    3    0    0 -0.43164469278E+02  0.16291182590E+02  0.70573432782E+02  0.84315973889E+02  0.00000000000E+00 0. -1.
<mgrwt>
<rscale>  0 0.92334589E+02</rscale>
<asrwt>0</asrwt>
<pdfrwt beam="1">  1        1 0.24732753E-01 0.92334589E+02</pdfrwt>
<pdfrwt beam="2">  1       -1 0.20397158E-02 0.92334589E+02</pdfrwt>
<totfact> 0.10977944E+05</totfact>
</mgrwt>
</event>
<event>
 5    1  0.1256986E+001  0.9003457E+02  0.7546771E-02  0.1302768E+00
          1   -1    0    0  501    0  0.00000000000E+00  0.00000000000E+00  0.47050102462E+02  0.47050102462E+02  0.00000000000E+00 0. -1.
         -1   -1    0    0    0  501 -0.00000000000E+00 -0.00000000000E+00 -0.43072293340E+02  0.43072293340E+02  0.00000000000E+00 0.  1.
         23    2    1    2    0    0  0.00000000000E+00  0.00000000000E+00  0.39778091215E+01  0.90122395802E+02  0.90034567027E+02 0.  0.
        -11    1    3    3    0    0  0.32126048284E+02 -0.25546365323E+02  0.20496290715E+02  0.45878074204E+02  0.00000000000E+00 0. -1.
         11    1    3    3    0    0 -0.32126048284E+02  0.25546365323E+02 -0.16518481593E+02  0.44244321598E+02  0.00000000000E+00 0.  1.
<mgrwt>
<rscale>  0 0.90034567E+02</rscale>
<asrwt>0</asrwt>
<pdfrwt beam="1">  1        1 0.72384773E-02 0.90034567E+02</pdfrwt>
<pdfrwt beam="2">  1       -1 0.66265067E-02 0.90034567E+02</pdfrwt>
<totfact> 0.96247657E+04</totfact>
</mgrwt>
</event>
<event>
 5    1  0.1256986E+001  0.9319831E+02  0.7546771E-02  0.1295286E+00
         -4   -1    0    0    0  501 -0.00000000000E+00  0.00000000000E+00  0.52215135415E+02  0.52215135415E+02  0.00000000000E+00 0.  1.
          4   -1    0    0  501    0  0.00000000000E+00 -0.00000000000E+00 -0.41587195376E+02  0.41587195376E+02  0.00000000000E+00 0. -1.
         23    2    1    2    0    0  0.00000000000E+00  0.00000000000E+00  0.10627940039E+02  0.93802330791E+02  0.93198305523E+02 0.  0.
        -11    1    3    3    0    0  0.24193055412E+02 -0.28947389235E+02 -0.22217027214E+02  0.43781863504E+02  0.00000000000E+00 0.  1.
         11    1    3    3    0    0 -0.24193055412E+02  0.28947389235E+02  0.32844967253E+02  0.50020467286E+02  0.00000000000E+00 0. -1.
<mgrwt>
<rscale>  0 0.93198306E+02</rscale>
<asrwt>0</asrwt>
<pdfrwt beam="2">  1        4 0.63980301E-02 0.93198306E+02</pdfrwt>
<pdfrwt beam="1">  1       -4 0.80330977E-02 0.93198306E+02</pdfrwt>
<totfact> 0.25292182E+04</totfact>
</mgrwt>
</event>
<event>
 5    1  0.1256986E+001  0.9224179E+02  0.7546771E-02  0.1297512E+00
         -2   -1    0    0    0  501 -0.00000000000E+00  0.00000000000E+00  0.10856519236E+02  0.10856519236E+02  0.00000000000E+00 0.  1.
          2   -1    0    0  501    0  0.00000000000E+00 -0.00000000000E+00 -0.19593176964E+03  0.19593176964E+03  0.00000000000E+00 0. -1.
         23    2    1    2    0    0  0.00000000000E+00  0.00000000000E+00 -0.18507525040E+03  0.20678828887E+03  0.92241791525E+02 0.  0.
        -11    1    3    3    0    0  0.43646108662E+01  0.31303810651E+02 -0.17239650249E+02  0.36002554492E+02  0.00000000000E+00 0.  1.
         11    1    3    3    0    0 -0.43646108662E+01 -0.31303810651E+02 -0.16783560015E+03  0.17078573438E+03  0.00000000000E+00 0. -1.
<mgrwt>
<rscale>  0 0.92241792E+02</rscale>
<asrwt>0</asrwt>
<pdfrwt beam="2">  1        2 0.30143348E-01 0.92241792E+02</pdfrwt>
<pdfrwt beam="1">  1       -2 0.16702338E-02 0.92241792E+02</pdfrwt>
<totfact> 0.14880091E+05</totfact>
</mgrwt>
</event>
<event>
 5    1  0.1256986E+001  0.8987296E+02  0.7546771E-02  0.1303160E+00
          1   -1    0    0  501    0  0.00000000000E+00  0.00000000000E+00  0.37498273401E+02  0.37498273401E+02  0.00000000000E+00 0. -1.
         -1   -1    0    0    0  501 -0.00000000000E+00 -0.00000000000E+00 -0.53850143868E+02  0.53850143868E+02  0.00000000000E+00 0.  1.
         23    2    1    2    0    0  0.00000000000E+00  0.00000000000E+00 -0.16351870468E+02  0.91348417269E+02  0.89872964065E+02 0.  0.
        -13    1    3    3    0    0 -0.11070371359E+02 -0.87985904333E+01  0.35177788072E+02  0.37913653072E+02  0.00000000000E+00 0. -1.
         13    1    3    3    0    0  0.11070371359E+02  0.87985904333E+01 -0.51529658539E+02  0.53434764197E+02  0.00000000000E+00 0.  1.
<mgrwt>
<rscale>  0 0.89872964E+02</rscale>
<asrwt>0</asrwt>
<pdfrwt beam="1">  1        1 0.57689651E-02 0.89872964E+02</pdfrwt>
<pdfrwt beam="2">  1       -1 0.82846375E-02 0.89872964E+02</pdfrwt>
<totfact> 0.93507118E+04</totfact>
</mgrwt>
</event>
<event>
 5    1  0.1256986E+001  0.8589333E+02  0.7546771E-02  0.1313113E+00
          1   -1    0    0  501    0  0.00000000000E+00  0.00000000000E+00  0.17267986466E+02  0.17267986466E+02  0.00000000000E+00 0. -1.
         -1   -1    0    0    0  501 -0.00000000000E+00 -0.00000000000E+00 -0.10681130684E+03  0.10681130684E+03  0.00000000000E+00 0.  1.
         23    2    1    2    0    0  0.00000000000E+00  0.00000000000E+00 -0.89543320377E+02  0.12407929331E+03  0.85893333873E+02 0.  0.
        -13    1    3    3    0    0 -0.18499043826E+02 -0.38758054101E+02 -0.44595797060E+02  0.61912732904E+02  0.00000000000E+00 0. -1.
         13    1    3    3    0    0  0.18499043826E+02  0.38758054101E+02 -0.44947523317E+02  0.62166560404E+02  0.00000000000E+00 0.  1.
<mgrwt>
<rscale>  0 0.85893334E+02</rscale>
<asrwt>0</asrwt>
<pdfrwt beam="1">  1        1 0.26566133E-02 0.85893334E+02</pdfrwt>
<pdfrwt beam="2">  1       -1 0.16432509E-01 0.85893334E+02</pdfrwt>
<totfact> 0.93710460E+04</totfact>
</mgrwt>
</event>
<event>
 5    1  0.1256986E+001  0.9073039E+02  0.7546771E-02  0.1301093E+00
          2   -1    0    0  501    0  0.00000000000E+00  0.00000000000E+00  0.86809215284E+02  0.86809215284E+02  0.00000000000E+00 0.  1.
         -2   -1    0    0    0  501 -0.00000000000E+00 -0.00000000000E+00 -0.23707170886E+02  0.23707170886E+02  0.00000000000E+00 0. -1.
         23    2    1    2    0    0  0.00000000000E+00  0.00000000000E+00  0.63102044399E+02  0.11051638617E+03  0.90730389643E+02 0.  0.
        -11    1    3    3    0    0  0.18926251863E+02 -0.11892406353E+02 -0.16533907846E+02  0.27802921557E+02  0.00000000000E+00 0. -1.
         11    1    3    3    0    0 -0.18926251863E+02  0.11892406353E+02  0.79635952245E+02  0.82713464613E+02  0.00000000000E+00 0.  1.
<mgrwt>
<rscale>  0 0.90730390E+02</rscale>
<asrwt>0</asrwt>
<pdfrwt beam="1">  1        2 0.13355264E-01 0.90730390E+02</pdfrwt>
<pdfrwt beam="2">  1       -2 0.36472571E-02 0.90730390E+02</pdfrwt>
<totfact> 0.11921089E+05</totfact>
</mgrwt>
</event>
<event>
 5    1  0.1256986E+001  0.7470506E+02  0.7546771E-02  0.1344787E+00
         -2   -1    0    0    0  501 -0.00000000000E+00  0.00000000000E+00  0.34894458604E+02  0.34894458604E+02  0.00000000000E+00 0.  1.
          2   -1    0    0  501    0  0.00000000000E+00 -0.00000000000E+00 -0.39983760496E+02  0.39983760496E+02  0.00000000000E+00 0. -1.
         23    2    1    2    0    0  0.00000000000E+00  0.00000000000E+00 -0.50893018919E+01  0.74878219099E+02  0.74705064766E+02 0.  0.
        -13    1    3    3    0    0 -0.11392915085E+02 -0.32638929385E+02 -0.16723585554E+02  0.38402819419E+02  0.00000000000E+00 0. -1.
         13    1    3    3    0    0  0.11392915085E+02  0.32638929385E+02  0.11634283662E+02  0.36475399681E+02  0.00000000000E+00 0.  1.
<mgrwt>
<rscale>  0 0.74705065E+02</rscale>
<asrwt>0</asrwt>
<pdfrwt beam="2">  1        2 0.61513478E-02 0.74705065E+02</pdfrwt>
<pdfrwt beam="1">  1       -2 0.53683782E-02 0.74705065E+02</pdfrwt>
<totfact> 0.16784071E+05</totfact>
</mgrwt>
</event>
<event>
 5    1  0.1256986E+001  0.9084753E+02  0.7546771E-02  0.1300812E+00
          1   -1    0    0  501    0  0.00000000000E+00  0.00000000000E+00  0.14493557104E+03  0.14493557104E+03  0.00000000000E+00 0. -1.
         -1   -1    0    0    0  501 -0.00000000000E+00 -0.00000000000E+00 -0.14236108995E+02  0.14236108995E+02  0.00000000000E+00 0.  1.
         23    2    1    2    0    0  0.00000000000E+00  0.00000000000E+00  0.13069946205E+03  0.15917168003E+03  0.90847533517E+02 0.  0.
        -13    1    3    3    0    0  0.25816791793E+02  0.37057838101E+02  0.73848374798E+02  0.86564268399E+02  0.00000000000E+00 0. -1.
         13    1    3    3    0    0 -0.25816791793E+02 -0.37057838101E+02  0.56851087248E+02  0.72607411636E+02  0.00000000000E+00 0.  1.
<mgrwt>
<rscale>  0 0.90847534E+02</rscale>
<asrwt>0</asrwt>
<pdfrwt beam="1">  1        1 0.22297779E-01 0.90847534E+02</pdfrwt>
<pdfrwt beam="2">  1       -1 0.21901707E-02 0.90847534E+02</pdfrwt>
<totfact> 0.11252303E+05</totfact>
</mgrwt>
</event>
<event>
 5    1  0.1256986E+001  0.8965644E+02  0.7546771E-02  0.1303686E+00
         -1   -1    0    0    0  501 -0.00000000000E+00  0.00000000000E+00  0.49424653381E+01  0.49424653381E+01  0.00000000000E+00 0.  1.
          1   -1    0    0  501    0  0.00000000000E+00 -0.00000000000E+00 -0.40659252959E+03  0.40659252959E+03  0.00000000000E+00 0. -1.
         23    2    1    2    0    0  0.00000000000E+00  0.00000000000E+00 -0.40165006425E+03  0.41153499493E+03  0.89656443923E+02 0.  0.
        -13    1    3    3    0    0 -0.30485627494E+02 -0.30372312157E+02 -0.14317934846E+03  0.14950644353E+03  0.00000000000E+00 0. -1.
         13    1    3    3    0    0  0.30485627494E+02  0.30372312157E+02 -0.25847071579E+03  0.26202855140E+03  0.00000000000E+00 0.  1.
<mgrwt>
<rscale>  0 0.89656444E+02</rscale>
<asrwt>0</asrwt>
<pdfrwt beam="2">  1        1 0.62552711E-01 0.89656444E+02</pdfrwt>
<pdfrwt beam="1">  1       -1 0.76037911E-03 0.89656444E+02</pdfrwt>
<totfact> 0.14141746E+05</totfact>
</mgrwt>
</event>
<event>
 5    1  0.1256986E+001  0.9025502E+02  0.7546771E-02  0.1302235E+00
         -2   -1    0    0    0  501 -0.00000000000E+00  0.00000000000E+00  0.32203892806E+02  0.32203892806E+02  0.00000000000E+00 0.  1.
          2   -1    0    0  501    0  0.00000000000E+00 -0.00000000000E+00 -0.63237458355E+02  0.63237458355E+02  0.00000000000E+00 0. -1.
         23    2    1    2    0    0  0.00000000000E+00  0.00000000000E+00 -0.31033565548E+02  0.95441351161E+02  0.90255023798E+02 0.  0.
        -11    1    3    3    0    0 -0.39081967607E+02  0.22544560320E+02 -0.14550526468E+02  0.47406489140E+02  0.00000000000E+00 0.  1.
         11    1    3    3    0    0  0.39081967607E+02 -0.22544560320E+02 -0.16483039080E+02  0.48034862021E+02  0.00000000000E+00 0. -1.
<mgrwt>
<rscale>  0 0.90255024E+02</rscale>
<asrwt>0</asrwt>
<pdfrwt beam="2">  1        2 0.97288396E-02 0.90255024E+02</pdfrwt>
<pdfrwt beam="1">  1       -2 0.49544451E-02 0.90255024E+02</pdfrwt>
<totfact> 0.11069717E+05</totfact>
</mgrwt>
</event>
<event>
 5    1  0.1256986E+001  0.9037187E+02  0.7546771E-02  0.1301954E+00
          1   -1    0    0  501    0  0.00000000000E+00  0.00000000000E+00  0.16479334217E+03  0.16479334217E+03  0.00000000000E+00 0.  1.
         -1   -1    0    0    0  501 -0.00000000000E+00 -0.00000000000E+00 -0.12389874963E+02  0.12389874963E+02  0.00000000000E+00 0. -1.
         23    2    1    2    0    0  0.00000000000E+00  0.00000000000E+00  0.15240346720E+03  0.17718321713E+03  0.90371874035E+02 0.  0.
        -13    1    3    3    0    0 -0.36068622024E+02 -0.23822176958E+02  0.50389667207E+02  0.66389458282E+02  0.00000000000E+00 0. -1.
         13    1    3    3    0    0  0.36068622024E+02  0.23822176958E+02  0.10201380000E+03  0.11079375885E+03  0.00000000000E+00 0.  1.
<mgrwt>
<rscale>  0 0.90371874E+02</rscale>
<asrwt>0</asrwt>
<pdfrwt beam="1">  1        1 0.25352820E-01 0.90371874E+02</pdfrwt>
<pdfrwt beam="2">  1       -1 0.19061347E-02 0.90371874E+02</pdfrwt>
<totfact> 0.11686090E+05</totfact>
</mgrwt>
</event>
<event>
 5    1  0.1256986E+001  0.9091887E+02  0.7546771E-02  0.1300642E+00
          1   -1    0    0  501    0  0.00000000000E+00  0.00000000000E+00  0.64451280174E+02  0.64451280174E+02  0.00000000000E+00 0. -1.
         -1   -1    0    0    0  501 -0.00000000000E+00 -0.00000000000E+00 -0.32063910275E+02  0.32063910275E+02  0.00000000000E+00 0.  1.
         23    2    1    2    0    0  0.00000000000E+00  0.00000000000E+00  0.32387369899E+02  0.96515190449E+02  0.90918866350E+02 0.  0.
        -11    1    3    3    0    0 -0.42783816947E+02  0.55700363890E+01  0.31395766831E+02  0.53358921211E+02  0.00000000000E+00 0.  1.
         11    1    3    3    0    0  0.42783816947E+02 -0.55700363890E+01  0.99160306809E+00  0.43156269238E+02  0.00000000000E+00 0. -1.
<mgrwt>
<rscale>  0 0.90918866E+02</rscale>
<asrwt>0</asrwt>
<pdfrwt beam="1">  1        1 0.99155815E-02 0.90918866E+02</pdfrwt>
<pdfrwt beam="2">  1       -1 0.49329093E-02 0.90918866E+02</pdfrwt>
<totfact> 0.98191285E+04</totfact>
</mgrwt>
</event>
<event>
 5    1  0.1256986E+001  0.8885026E+02  0.7546771E-02  0.1305660E+00
         -2   -1    0    0    0  501 -0.00000000000E+00  0.00000000000E+00  0.23733602266E+02  0.23733602266E+02  0.00000000000E+00 0.  1.
          2   -1    0    0  501    0  0.00000000000E+00 -0.00000000000E+00 -0.83156039744E+02  0.83156039744E+02  0.00000000000E+00 0. -1.
         23    2    1    2    0    0  0.00000000000E+00  0.00000000000E+00 -0.59422437478E+02  0.10688964201E+03  0.88850264452E+02 0.  0.
        -13    1    3    3    0    0  0.26766979874E+02  0.58194299566E+01 -0.71787317712E+02  0.76835902812E+02  0.00000000000E+00 0. -1.
         13    1    3    3    0    0 -0.26766979874E+02 -0.58194299566E+01  0.12364880234E+02  0.30053739198E+02  0.00000000000E+00 0.  1.
<mgrwt>
<rscale>  0 0.88850264E+02</rscale>
<asrwt>0</asrwt>
<pdfrwt beam="2">  1        2 0.12793237E-01 0.88850264E+02</pdfrwt>
<pdfrwt beam="1">  1       -2 0.36513234E-02 0.88850264E+02</pdfrwt>
<totfact> 0.12474992E+05</totfact>
</mgrwt>
</event>
<event>
 5    1  0.1256986E+001  0.9416525E+02  0.7546771E-02  0.1293067E+00
          1   -1    0    0  501    0  0.00000000000E+00  0.00000000000E+00  0.66869058317E+02  0.66869058317E+02  0.00000000000E+00 0. -1.
         -1   -1    0    0    0  501 -0.00000000000E+00 -0.00000000000E+00 -0.33150961100E+02  0.33150961100E+02  0.00000000000E+00 0.  1.
         23    2    1    2    0    0  0.00000000000E+00  0.00000000000E+00  0.33718097217E+02  0.10002001942E+03  0.94165249451E+02 0.  0.
        -11    1    3    3    0    0 -0.11620130374E+02 -0.51876158557E+01  0.65007766310E+02  0.66241591683E+02  0.00000000000E+00 0. -1.
         11    1    3    3    0    0  0.11620130374E+02  0.51876158557E+01 -0.31289669093E+02  0.33778427733E+02  0.00000000000E+00 0.  1.
<mgrwt>
<rscale>  0 0.94165249E+02</rscale>
<asrwt>0</asrwt>
<pdfrwt beam="1">  1        1 0.10287547E-01 0.94165249E+02</pdfrwt>
<pdfrwt beam="2">  1       -1 0.51001479E-02 0.94165249E+02</pdfrwt>
<totfact> 0.89597946E+04</totfact>
</mgrwt>
</event>
<event>
 5    1  0.1256986E+001  0.9230676E+02  0.7546771E-02  0.1297360E+00
         -1   -1    0    0    0  501 -0.00000000000E+00  0.00000000000E+00  0.18398619827E+03  0.18398619827E+03  0.00000000000E+00 0.  1.
          1   -1    0    0  501    0  0.00000000000E+00 -0.00000000000E+00 -0.11577685803E+02  0.11577685803E+02  0.00000000000E+00 0. -1.
         23    2    1    2    0    0  0.00000000000E+00  0.00000000000E+00  0.17240851246E+03  0.19556388407E+03  0.92306758055E+02 0.  0.
        -11    1    3    3    0    0 -0.29227269261E+02 -0.17826592928E+02  0.15178308919E+03  0.15559603738E+03  0.00000000000E+00 0.  1.
         11    1    3    3    0    0  0.29227269261E+02  0.17826592928E+02  0.20625423271E+02  0.39967846689E+02  0.00000000000E+00 0. -1.
<mgrwt>
<rscale>  0 0.92306758E+02</rscale>
<asrwt>0</asrwt>
<pdfrwt beam="2">  1        1 0.17811826E-02 0.92306758E+02</pdfrwt>
<pdfrwt beam="1">  1       -1 0.28305567E-01 0.92306758E+02</pdfrwt>
<totfact> 0.68807753E+04</totfact>
</mgrwt>
</event>
<event>
 5    1  0.1256986E+001  0.9047473E+02  0.7546771E-02  0.1301706E+00
          2   -1    0    0  501    0  0.00000000000E+00  0.00000000000E+00  0.25661865860E+03  0.25661865860E+03  0.00000000000E+00 0. -1.
         -2   -1    0    0    0  501 -0.00000000000E+00 -0.00000000000E+00 -0.79745539031E+01  0.79745539031E+01  0.00000000000E+00 0.  1.
         23    2    1    2    0    0  0.00000000000E+00  0.00000000000E+00  0.24864410470E+03  0.26459321251E+03  0.90474732950E+02 0.  0.
        -13    1    3    3    0    0  0.49953433552E+01  0.41677030949E+02  0.17364915717E+03  0.17865037965E+03  0.00000000000E+00 0. -1.
         13    1    3    3    0    0 -0.49953433552E+01 -0.41677030949E+02  0.74994947530E+02  0.85942832854E+02  0.00000000000E+00 0.  1.
<mgrwt>
<rscale>  0 0.90474733E+02</rscale>
<asrwt>0</asrwt>
<pdfrwt beam="1">  1        2 0.39479787E-01 0.90474733E+02</pdfrwt>
<pdfrwt beam="2">  1       -2 0.12268546E-02 0.90474733E+02</pdfrwt>
<totfact> 0.17303333E+05</totfact>
</mgrwt>
</event>
<event>
 5    1  0.1256986E+001  0.9202652E+02  0.7546771E-02  0.1298017E+00
          1   -1    0    0  501    0  0.00000000000E+00  0.00000000000E+00  0.25804227393E+03  0.25804227393E+03  0.00000000000E+00 0. -1.
         -1   -1    0    0    0  501 -0.00000000000E+00 -0.00000000000E+00 -0.82049343341E+01  0.82049343341E+01  0.00000000000E+00 0.  1.
         23    2    1    2    0    0  0.00000000000E+00  0.00000000000E+00  0.24983733959E+03  0.26624720826E+03  0.92026516027E+02 0.  0.
        -13    1    3    3    0    0  0.15950004911E+02  0.42831929409E+02  0.10954321021E+03  0.11869579494E+03  0.00000000000E+00 0.  1.
         13    1    3    3    0    0 -0.15950004911E+02 -0.42831929409E+02  0.14029412938E+03  0.14755141332E+03  0.00000000000E+00 0. -1.
<mgrwt>
<rscale>  0 0.92026516E+02</rscale>
<asrwt>0</asrwt>
<pdfrwt beam="1">  1        1 0.39698805E-01 0.92026516E+02</pdfrwt>
<pdfrwt beam="2">  1       -1 0.12622978E-02 0.92026516E+02</pdfrwt>
<totfact> 0.12138760E+05</totfact>
</mgrwt>
</event>
<event>
 5    1  0.1256986E+001  0.9120873E+02  0.7546771E-02  0.1299951E+00
          3   -1    0    0  501    0  0.00000000000E+00  0.00000000000E+00  0.18369278471E+02  0.18369278471E+02  0.00000000000E+00 0. -1.
         -3   -1    0    0    0  501 -0.00000000000E+00 -0.00000000000E+00 -0.11321935678E+03  0.11321935678E+03  0.00000000000E+00 0.  1.
         23    2    1    2    0    0  0.00000000000E+00  0.00000000000E+00 -0.94850078310E+02  0.13158863525E+03  0.91208725308E+02 0.  0.
        -11    1    3    3    0    0  0.26279543090E+02  0.37271125900E+02 -0.47542974038E+02  0.65879325978E+02  0.00000000000E+00 0.  1.
         11    1    3    3    0    0 -0.26279543090E+02 -0.37271125900E+02 -0.47307104272E+02  0.65709309275E+02  0.00000000000E+00 0. -1.
<mgrwt>
<rscale>  0 0.91208725E+02</rscale>
<asrwt>0</asrwt>
<pdfrwt beam="1">  1        3 0.28260428E-02 0.91208725E+02</pdfrwt>
<pdfrwt beam="2">  1       -3 0.17418363E-01 0.91208725E+02</pdfrwt>
<totfact> 0.32442394E+04</totfact>
</mgrwt>
</event>
<event>
 5    1  0.1256986E+001  0.9445441E+02  0.7546771E-02  0.1292410E+00
         -2   -1    0    0    0  501 -0.00000000000E+00  0.00000000000E+00  0.38959169108E+02  0.38959169108E+02  0.00000000000E+00 0.  1.
          2   -1    0    0  501    0  0.00000000000E+00 -0.00000000000E+00 -0.57249905972E+02  0.57249905972E+02  0.00000000000E+00 0. -1.
         23    2    1    2    0    0  0.00000000000E+00  0.00000000000E+00 -0.18290736864E+02  0.96209075080E+02  0.94454407376E+02 0.  0.
        -11    1    3    3    0    0 -0.35016569620E+02  0.15497907180E+01  0.23094589238E+02  0.41975255227E+02  0.00000000000E+00 0.  1.
         11    1    3    3    0    0  0.35016569620E+02 -0.15497907180E+01 -0.41385326103E+02  0.54233819853E+02  0.00000000000E+00 0. -1.
<mgrwt>
<rscale>  0 0.94454407E+02</rscale>
<asrwt>0</asrwt>
<pdfrwt beam="2">  1        2 0.88076778E-02 0.94454407E+02</pdfrwt>
<pdfrwt beam="1">  1       -2 0.59937183E-02 0.94454407E+02</pdfrwt>
<totfact> 0.94751808E+04</totfact>
</mgrwt>
</event>
<event>
 5    1  0.1256986E+001  0.8959344E+02  0.7546771E-02  0.1303839E+00
         -1   -1    0    0    0  501 -0.00000000000E+00  0.00000000000E+00  0.42979435255E+02  0.42979435255E+02  0.00000000000E+00 0.  1.
          1   -1    0    0  501    0  0.00000000000E+00 -0.00000000000E+00 -0.46690845285E+02  0.46690845285E+02  0.00000000000E+00 0. -1.
         23    2    1    2    0    0  0.00000000000E+00  0.00000000000E+00 -0.37114100302E+01  0.89670280540E+02  0.89593440875E+02 0.  0.
        -11    1    3    3    0    0 -0.21724533609E+02 -0.38618341108E+02 -0.84503264802E+01  0.45108088499E+02  0.00000000000E+00 0.  1.
         11    1    3    3    0    0  0.21724533609E+02  0.38618341108E+02  0.47389164500E+01  0.44562192041E+02  0.00000000000E+00 0. -1.
<mgrwt>
<rscale>  0 0.89593441E+02</rscale>
<asrwt>0</asrwt>
<pdfrwt beam="2">  1        1 0.71832069E-02 0.89593441E+02</pdfrwt>
<pdfrwt beam="1">  1       -1 0.66122208E-02 0.89593441E+02</pdfrwt>
<totfact> 0.97466603E+04</totfact>
</mgrwt>
</event>
<event>
 5    1  0.1256986E+001  0.9331929E+02  0.7546771E-02  0.1295007E+00
          4   -1    0    0  501    0  0.00000000000E+00  0.00000000000E+00  0.20072879111E+02  0.20072879111E+02  0.00000000000E+00 0. -1.
         -4   -1    0    0    0  501 -0.00000000000E+00 -0.00000000000E+00 -0.10846090235E+03  0.10846090235E+03  0.00000000000E+00 0.  1.
         23    2    1    2    0    0  0.00000000000E+00  0.00000000000E+00 -0.88388023235E+02  0.12853378146E+03  0.93319292347E+02 0.  0.
        -13    1    3    3    0    0  0.20395595230E+02  0.28353891051E+02 -0.86807491162E+02  0.93570636229E+02  0.00000000000E+00 0.  1.
         13    1    3    3    0    0 -0.20395595230E+02 -0.28353891051E+02 -0.15805320731E+01  0.34963145227E+02  0.00000000000E+00 0. -1.
<mgrwt>
<rscale>  0 0.93319292E+02</rscale>
<asrwt>0</asrwt>
<pdfrwt beam="1">  1        4 0.30881353E-02 0.93319292E+02</pdfrwt>
<pdfrwt beam="2">  1       -4 0.16686292E-01 0.93319292E+02</pdfrwt>
<totfact> 0.23286198E+04</totfact>
</mgrwt>
</event>
<event>
 5    1  0.1256986E+001  0.9081528E+02  0.7546771E-02  0.1300889E+00
         -1   -1    0    0    0  501 -0.00000000000E+00  0.00000000000E+00  0.93540544617E+02  0.93540544617E+02  0.00000000000E+00 0.  1.
          1   -1    0    0  501    0  0.00000000000E+00 -0.00000000000E+00 -0.22042353951E+02  0.22042353951E+02  0.00000000000E+00 0. -1.
         23    2    1    2    0    0  0.00000000000E+00  0.00000000000E+00  0.71498190666E+02  0.11558289857E+03  0.90815280504E+02 0.  0.
        -11    1    3    3    0    0 -0.14720663916E+02 -0.32304541482E+02  0.71782561723E+02  0.80081318133E+02  0.00000000000E+00 0.  1.
         11    1    3    3    0    0  0.14720663916E+02  0.32304541482E+02 -0.28437105669E+00  0.35501580435E+02  0.00000000000E+00 0. -1.
<mgrwt>
<rscale>  0 0.90815281E+02</rscale>
<asrwt>0</asrwt>
<pdfrwt beam="2">  1        1 0.33911314E-02 0.90815281E+02</pdfrwt>
<pdfrwt beam="1">  1       -1 0.14390853E-01 0.90815281E+02</pdfrwt>
<totfact> 0.83217195E+04</totfact>
</mgrwt>
</event>
<event>
 5    1  0.1256986E+001  0.9713690E+02  0.7546771E-02  0.1286435E+00
          2   -1    0    0  501    0  0.00000000000E+00  0.00000000000E+00  0.19281384636E+02  0.19281384636E+02  0.00000000000E+00 0. -1.
         -2   -1    0    0    0  501 -0.00000000000E+00 -0.00000000000E+00 -0.12234050546E+03  0.12234050546E+03  0.00000000000E+00 0.  1.
         23    2    1    2    0    0  0.00000000000E+00  0.00000000000E+00 -0.10305912082E+03  0.14162189009E+03  0.97136900141E+02 0.  0.
        -11    1    3    3    0    0 -0.40144733590E+02  0.25233935012E+02 -0.66858503904E+02  0.81965911546E+02  0.00000000000E+00 0.  1.
         11    1    3    3    0    0  0.40144733590E+02 -0.25233935012E+02 -0.36200616919E+02  0.59655978548E+02  0.00000000000E+00 0. -1.
<mgrwt>
<rscale>  0 0.97136900E+02</rscale>
<asrwt>0</asrwt>
<pdfrwt beam="1">  1        2 0.29663669E-02 0.97136900E+02</pdfrwt>
<pdfrwt beam="2">  1       -2 0.18821616E-01 0.97136900E+02</pdfrwt>
<totfact> 0.63919573E+04</totfact>
</mgrwt>
</event>
<event>
 5    1  0.1256986E+001  0.9724561E+02  0.7546771E-02  0.1286197E+00
          1   -1    0    0  501    0  0.00000000000E+00  0.00000000000E+00  0.26853950586E+02  0.26853950586E+02  0.00000000000E+00 0. -1.
         -1   -1    0    0    0  501 -0.00000000000E+00 -0.00000000000E+00 -0.88038334331E+02  0.88038334331E+02  0.00000000000E+00 0.  1.
         23    2    1    2    0    0  0.00000000000E+00  0.00000000000E+00 -0.61184383745E+02  0.11489228492E+03  0.97245608226E+02 0.  0.
        -11    1    3    3    0    0 -0.74879973986E+01  0.43873829266E+02 -0.74646079671E+01  0.45129850118E+02  0.00000000000E+00 0. -1.
         11    1    3    3    0    0  0.74879973986E+01 -0.43873829266E+02 -0.53719775778E+02  0.69762434799E+02  0.00000000000E+00 0.  1.
<mgrwt>
<rscale>  0 0.97245608E+02</rscale>
<asrwt>0</asrwt>
<pdfrwt beam="1">  1        1 0.41313770E-02 0.97245608E+02</pdfrwt>
<pdfrwt beam="2">  1       -1 0.13544359E-01 0.97245608E+02</pdfrwt>
<totfact> 0.70553777E+04</totfact>
</mgrwt>
</event>
<event>
 5    1  0.1256986E+001  0.9363525E+02  0.7546771E-02  0.1294280E+00
          2   -1    0    0  501    0  0.00000000000E+00  0.00000000000E+00  0.77647562874E+02  0.77647562874E+02  0.00000000000E+00 0. -1.
         -2   -1    0    0    0  501 -0.00000000000E+00 -0.00000000000E+00 -0.28228703003E+02  0.28228703003E+02  0.00000000000E+00 0.  1.
         23    2    1    2    0    0  0.00000000000E+00  0.00000000000E+00  0.49418859871E+02  0.10587626588E+03  0.93635249587E+02 0.  0.
        -13    1    3    3    0    0  0.44382093256E+02  0.11675992726E+01  0.41509689625E+02  0.60779830722E+02  0.00000000000E+00 0. -1.
         13    1    3    3    0    0 -0.44382093256E+02 -0.11675992726E+01  0.79091702463E+01  0.45096435156E+02  0.00000000000E+00 0.  1.
<mgrwt>
<rscale>  0 0.93635250E+02</rscale>
<asrwt>0</asrwt>
<pdfrwt beam="1">  1        2 0.11945779E-01 0.93635250E+02</pdfrwt>
<pdfrwt beam="2">  1       -2 0.43428774E-02 0.93635250E+02</pdfrwt>
<totfact> 0.10573037E+05</totfact>
</mgrwt>
</event>
<event>
 5    1  0.1256986E+001  0.6339983E+02  0.7546771E-02  0.1384094E+00
         -1   -1    0    0    0  501 -0.00000000000E+00  0.00000000000E+00  0.27834290406E+02  0.27834290406E+02  0.00000000000E+00 0.  1.
          1   -1    0    0  501    0  0.00000000000E+00 -0.00000000000E+00 -0.36102393663E+02  0.36102393663E+02  0.00000000000E+00 0. -1.
         23    2    1    2    0    0  0.00000000000E+00  0.00000000000E+00 -0.82681032563E+01  0.63936684069E+02  0.63399826800E+02 0.  0.
        -13    1    3    3    0    0 -0.98751699210E+00  0.23001206280E+02 -0.26109715803E+02  0.34810170058E+02  0.00000000000E+00 0. -1.
         13    1    3    3    0    0  0.98751699210E+00 -0.23001206280E+02  0.17841612547E+02  0.29126514011E+02  0.00000000000E+00 0.  1.
<mgrwt>
<rscale>  0 0.63399827E+02</rscale>
<asrwt>0</asrwt>
<pdfrwt beam="2">  1        1 0.55542144E-02 0.63399827E+02</pdfrwt>
<pdfrwt beam="1">  1       -1 0.42821985E-02 0.63399827E+02</pdfrwt>
<totfact> 0.24261769E+05</totfact>
</mgrwt>
</event>
<event>
 5    1  0.1256986E+001  0.9042252E+02  0.7546771E-02  0.1301832E+00
         -2   -1    0    0    0  501 -0.00000000000E+00  0.00000000000E+00  0.17871540984E+02  0.17871540984E+02  0.00000000000E+00 0. -1.
          2   -1    0    0  501    0  0.00000000000E+00 -0.00000000000E+00 -0.11437503761E+03  0.11437503761E+03  0.00000000000E+00 0.  1.
         23    2    1    2    0    0  0.00000000000E+00  0.00000000000E+00 -0.96503496631E+02  0.13224657860E+03  0.90422523130E+02 0.  0.
        -13    1    3    3    0    0 -0.16250018261E+02 -0.24959001950E+02  0.14970540028E+01  0.29820396417E+02  0.00000000000E+00 0. -1.
         13    1    3    3    0    0  0.16250018261E+02  0.24959001950E+02 -0.98000550634E+02  0.10242618218E+03  0.00000000000E+00 0.  1.
<mgrwt>
<rscale>  0 0.90422523E+02</rscale>
<asrwt>0</asrwt>
<pdfrwt beam="2">  1        2 0.17596160E-01 0.90422523E+02</pdfrwt>
<pdfrwt beam="1">  1       -2 0.27494678E-02 0.90422523E+02</pdfrwt>
<totfact> 0.13083571E+05</totfact>
</mgrwt>
</event>
<event>
 5    1  0.1256986E+001  0.8186299E+02  0.7546771E-02  0.1323846E+00
          2   -1    0    0  501    0  0.00000000000E+00  0.00000000000E+00  0.19446403117E+02  0.19446403117E+02  0.00000000000E+00 0. -1.
         -2   -1    0    0    0  501 -0.00000000000E+00 -0.00000000000E+00 -0.86154095537E+02  0.86154095537E+02  0.00000000000E+00 0.  1.
         23    2    1    2    0    0  0.00000000000E+00  0.00000000000E+00 -0.66707692421E+02  0.10560049865E+03  0.81862989732E+02 0.  0.
        -11    1    3    3    0    0 -0.18834874675E+02 -0.31972597593E+02 -0.11071091600E+02  0.38724263325E+02  0.00000000000E+00 0. -1.
         11    1    3    3    0    0  0.18834874675E+02  0.31972597593E+02 -0.55636600821E+02  0.66876235329E+02  0.00000000000E+00 0.  1.
<mgrwt>
<rscale>  0 0.81862990E+02</rscale>
<asrwt>0</asrwt>
<pdfrwt beam="1">  1        2 0.29917544E-02 0.81862990E+02</pdfrwt>
<pdfrwt beam="2">  1       -2 0.13254476E-01 0.81862990E+02</pdfrwt>
<totfact> 0.10874677E+05</totfact>
</mgrwt>
</event>
<event>
 5    1  0.1256986E+001  0.9097477E+02  0.7546771E-02  0.1300508E+00
         -2   -1    0    0    0  501 -0.00000000000E+00  0.00000000000E+00  0.42564399462E+02  0.42564399462E+02  0.00000000000E+00 0.  1.
          2   -1    0    0  501    0  0.00000000000E+00 -0.00000000000E+00 -0.48611100939E+02  0.48611100939E+02  0.00000000000E+00 0. -1.
         23    2    1    2    0    0  0.00000000000E+00  0.00000000000E+00 -0.60467014771E+01  0.91175500401E+02  0.90974772738E+02 0.  0.
        -13    1    3    3    0    0 -0.52907327062E+01  0.44089157592E+02 -0.12906988657E+02  0.46243226811E+02  0.00000000000E+00 0. -1.
         13    1    3    3    0    0  0.52907327062E+01 -0.44089157592E+02  0.68602871796E+01  0.44932273590E+02  0.00000000000E+00 0.  1.
<mgrwt>
<rscale>  0 0.90974773E+02</rscale>
<asrwt>0</asrwt>
<pdfrwt beam="2">  1        2 0.74786309E-02 0.90974773E+02</pdfrwt>
<pdfrwt beam="1">  1       -2 0.65483692E-02 0.90974773E+02</pdfrwt>
<totfact> 0.10097459E+05</totfact>
</mgrwt>
</event>
<event>
 5    1  0.1256986E+001  0.9253935E+02  0.7546771E-02  0.1296816E+00
         -1   -1    0    0    0  501 -0.00000000000E+00  0.00000000000E+00  0.26405443335E+02  0.26405443335E+02  0.00000000000E+00 0.  1.
          1   -1    0    0  501    0  0.00000000000E+00 -0.00000000000E+00 -0.81077328292E+02  0.81077328292E+02  0.00000000000E+00 0. -1.
         23    2    1    2    0    0  0.00000000000E+00  0.00000000000E+00 -0.54671884957E+02  0.10748277163E+03  0.92539349425E+02 0.  0.
        -11    1    3    3    0    0  0.13893118055E+02  0.31812600734E+01  0.23792266127E+02  0.27734654720E+02  0.00000000000E+00 0.  1.
         11    1    3    3    0    0 -0.13893118055E+02 -0.31812600734E+01 -0.78464151084E+02  0.79748116908E+02  0.00000000000E+00 0. -1.
<mgrwt>
<rscale>  0 0.92539349E+02</rscale>
<asrwt>0</asrwt>
<pdfrwt beam="2">  1        1 0.12473435E-01 0.92539349E+02</pdfrwt>
<pdfrwt beam="1">  1       -1 0.40623760E-02 0.92539349E+02</pdfrwt>
<totfact> 0.96923597E+04</totfact>
</mgrwt>
</event>
<event>
 5    1  0.1256986E+001  0.8995015E+02  0.7546771E-02  0.1302972E+00
         -1   -1    0    0    0  501 -0.00000000000E+00  0.00000000000E+00  0.14804013393E+02  0.14804013393E+02  0.00000000000E+00 0.  1.
          1   -1    0    0  501    0  0.00000000000E+00 -0.00000000000E+00 -0.13663575715E+03  0.13663575715E+03  0.00000000000E+00 0. -1.
         23    2    1    2    0    0  0.00000000000E+00  0.00000000000E+00 -0.12183174376E+03  0.15143977054E+03  0.89950154616E+02 0.  0.
        -13    1    3    3    0    0  0.42631046326E+02  0.36349887041E+01 -0.37578871724E+02  0.56945507757E+02  0.00000000000E+00 0.  1.
         13    1    3    3    0    0 -0.42631046326E+02 -0.36349887041E+01 -0.84252872033E+02  0.94494262786E+02  0.00000000000E+00 0. -1.
<mgrwt>
<rscale>  0 0.89950155E+02</rscale>
<asrwt>0</asrwt>
<pdfrwt beam="2">  1        1 0.21020886E-01 0.89950155E+02</pdfrwt>
<pdfrwt beam="1">  1       -1 0.22775405E-02 0.89950155E+02</pdfrwt>
<totfact> 0.11435064E+05</totfact>
</mgrwt>
</event>
<event>
 5    1  0.1256986E+001  0.5965169E+02  0.7546771E-02  0.1399299E+00
          1   -1    0    0  501    0  0.00000000000E+00  0.00000000000E+00  0.68071573074E+01  0.68071573074E+01  0.00000000000E+00 0. -1.
         -1   -1    0    0    0  501 -0.00000000000E+00 -0.00000000000E+00 -0.13068319934E+03  0.13068319934E+03  0.00000000000E+00 0.  1.
         23    2    1    2    0    0  0.00000000000E+00  0.00000000000E+00 -0.12387604204E+03  0.13749035665E+03  0.59651692193E+02 0.  0.
        -13    1    3    3    0    0 -0.25705405534E+01 -0.19062708161E+02 -0.93994289145E+01  0.21408965063E+02  0.00000000000E+00 0. -1.
         13    1    3    3    0    0  0.25705405534E+01  0.19062708161E+02 -0.11447661312E+03  0.11608139159E+03  0.00000000000E+00 0.  1.
<mgrwt>
<rscale>  0 0.59651692E+02</rscale>
<asrwt>0</asrwt>
<pdfrwt beam="1">  1        1 0.10472550E-02 0.59651692E+02</pdfrwt>
<pdfrwt beam="2">  1       -1 0.20105106E-01 0.59651692E+02</pdfrwt>
<totfact> 0.22814420E+05</totfact>
</mgrwt>
</event>
<event>
 5    1  0.1256986E+001  0.8954454E+02  0.7546771E-02  0.1303958E+00
          2   -1    0    0  501    0  0.00000000000E+00  0.00000000000E+00  0.69569433767E+02  0.69569433767E+02  0.00000000000E+00 0. -1.
         -2   -1    0    0    0  501 -0.00000000000E+00 -0.00000000000E+00 -0.28813748407E+02  0.28813748407E+02  0.00000000000E+00 0.  1.
         23    2    1    2    0    0  0.00000000000E+00  0.00000000000E+00  0.40755685361E+02  0.98383182174E+02  0.89544540009E+02 0.  0.
        -11    1    3    3    0    0  0.46032149323E+01 -0.23268313881E+02  0.62099079940E+02  0.66474805362E+02  0.00000000000E+00 0. -1.
         11    1    3    3    0    0 -0.46032149323E+01  0.23268313881E+02 -0.21343394579E+02  0.31908376811E+02  0.00000000000E+00 0.  1.
<mgrwt>
<rscale>  0 0.89544540E+02</rscale>
<asrwt>0</asrwt>
<pdfrwt beam="1">  1        2 0.10702990E-01 0.89544540E+02</pdfrwt>
<pdfrwt beam="2">  1       -2 0.44328844E-02 0.89544540E+02</pdfrwt>
<totfact> 0.11614348E+05</totfact>
</mgrwt>
</event>
<event>
 5    1  0.1256986E+001  0.9917658E+02  0.7546771E-02  0.1282037E+00
         -2   -1    0    0    0  501 -0.00000000000E+00  0.00000000000E+00  0.23710417552E+02  0.23710417552E+02  0.00000000000E+00 0.  1.
          2   -1    0    0  501    0  0.00000000000E+00 -0.00000000000E+00 -0.10370962400E+03  0.10370962400E+03  0.00000000000E+00 0. -1.
         23    2    1    2    0    0  0.00000000000E+00  0.00000000000E+00 -0.79999206446E+02  0.12742004155E+03  0.99176579677E+02 0.  0.
        -11    1    3    3    0    0 -0.17076095320E+02 -0.61203396256E+01  0.19294704657E+02  0.26482772066E+02  0.00000000000E+00 0.  1.
         11    1    3    3    0    0  0.17076095320E+02  0.61203396256E+01 -0.99293911103E+02  0.10093726948E+03  0.00000000000E+00 0. -1.
<mgrwt>
<rscale>  0 0.99176580E+02</rscale>
<asrwt>0</asrwt>
<pdfrwt beam="2">  1        2 0.15955327E-01 0.99176580E+02</pdfrwt>
<pdfrwt beam="1">  1       -2 0.36477565E-02 0.99176580E+02</pdfrwt>
<totfact> 0.98287768E+04</totfact>
</mgrwt>
</event>
<event>
 5    1  0.1256986E+001  0.9144879E+02  0.7546771E-02  0.1299381E+00
          2   -1    0    0  501    0  0.00000000000E+00  0.00000000000E+00  0.16486832354E+02  0.16486832354E+02  0.00000000000E+00 0. -1.
         -2   -1    0    0    0  501 -0.00000000000E+00 -0.00000000000E+00 -0.12681151237E+03  0.12681151237E+03  0.00000000000E+00 0.  1.
         23    2    1    2    0    0  0.00000000000E+00  0.00000000000E+00 -0.11032468002E+03  0.14329834473E+03  0.91448786652E+02 0.  0.
        -11    1    3    3    0    0  0.25595611144E+02 -0.30330878774E+02 -0.19580433831E+02  0.44254840482E+02  0.00000000000E+00 0. -1.
         11    1    3    3    0    0 -0.25595611144E+02  0.30330878774E+02 -0.90744246187E+02  0.99043504244E+02  0.00000000000E+00 0.  1.
<mgrwt>
<rscale>  0 0.91448787E+02</rscale>
<asrwt>0</asrwt>
<pdfrwt beam="1">  1        2 0.25364358E-02 0.91448787E+02</pdfrwt>
<pdfrwt beam="2">  1       -2 0.19509463E-01 0.91448787E+02</pdfrwt>
<totfact> 0.73508496E+04</totfact>
</mgrwt>
</event>
<event>
 5    1  0.1256986E+001  0.8980745E+02  0.7546771E-02  0.1303319E+00
          1   -1    0    0  501    0  0.00000000000E+00  0.00000000000E+00  0.48808199864E+02  0.48808199864E+02  0.00000000000E+00 0. -1.
         -1   -1    0    0    0  501 -0.00000000000E+00 -0.00000000000E+00 -0.41311591693E+02  0.41311591693E+02  0.00000000000E+00 0.  1.
         23    2    1    2    0    0  0.00000000000E+00  0.00000000000E+00  0.74966081711E+01  0.90119791556E+02  0.89807447887E+02 0.  0.
        -13    1    3    3    0    0  0.14351394705E+02 -0.19348120030E+02 -0.34278506758E+02  0.41896638341E+02  0.00000000000E+00 0.  1.
         13    1    3    3    0    0 -0.14351394705E+02  0.19348120030E+02  0.41775114929E+02  0.48223153215E+02  0.00000000000E+00 0. -1.
<mgrwt>
<rscale>  0 0.89807448E+02</rscale>
<asrwt>0</asrwt>
<pdfrwt beam="1">  1        1 0.75089538E-02 0.89807448E+02</pdfrwt>
<pdfrwt beam="2">  1       -1 0.63556295E-02 0.89807448E+02</pdfrwt>
<totfact> 0.97457802E+04</totfact>
</mgrwt>
</event>
<event>
 5    1  0.1256986E+001  0.9012893E+02  0.7546771E-02  0.1302540E+00
         -2   -1    0    0    0  501 -0.00000000000E+00  0.00000000000E+00  0.55711897431E+02  0.55711897431E+02  0.00000000000E+00 0.  1.
          2   -1    0    0  501    0  0.00000000000E+00 -0.00000000000E+00 -0.36451922852E+02  0.36451922852E+02  0.00000000000E+00 0. -1.
         23    2    1    2    0    0  0.00000000000E+00  0.00000000000E+00  0.19259974579E+02  0.92163820283E+02  0.90128925148E+02 0.  0.
        -11    1    3    3    0    0 -0.18876010331E+02 -0.34709012575E+02 -0.12533930349E+02  0.41450195777E+02  0.00000000000E+00 0. -1.
         11    1    3    3    0    0  0.18876010331E+02  0.34709012575E+02  0.31793904929E+02  0.50713624506E+02  0.00000000000E+00 0.  1.
<mgrwt>
<rscale>  0 0.90128925E+02</rscale>
<asrwt>0</asrwt>
<pdfrwt beam="2">  1        2 0.56079881E-02 0.90128925E+02</pdfrwt>
<pdfrwt beam="1">  1       -2 0.85710612E-02 0.90128925E+02</pdfrwt>
<totfact> 0.96306416E+04</totfact>
</mgrwt>
</event>
<event>
 5    1  0.1256986E+001  0.8866819E+02  0.7546771E-02  0.1306109E+00
          1   -1    0    0  501    0  0.00000000000E+00  0.00000000000E+00  0.32405968290E+02  0.32405968290E+02  0.00000000000E+00 0. -1.
         -1   -1    0    0    0  501 -0.00000000000E+00 -0.00000000000E+00 -0.60652782243E+02  0.60652782243E+02  0.00000000000E+00 0.  1.
         23    2    1    2    0    0  0.00000000000E+00  0.00000000000E+00 -0.28246813952E+02  0.93058750533E+02  0.88668193577E+02 0.  0.
        -11    1    3    3    0    0 -0.26642516104E+02 -0.16492666278E+02  0.18793299335E+02  0.36537922837E+02  0.00000000000E+00 0. -1.
         11    1    3    3    0    0  0.26642516104E+02  0.16492666278E+02 -0.47040113288E+02  0.56520827696E+02  0.00000000000E+00 0.  1.
<mgrwt>
<rscale>  0 0.88668194E+02</rscale>
<asrwt>0</asrwt>
<pdfrwt beam="1">  1        1 0.49855337E-02 0.88668194E+02</pdfrwt>
<pdfrwt beam="2">  1       -1 0.93311971E-02 0.88668194E+02</pdfrwt>
<totfact> 0.95016062E+04</totfact>
</mgrwt>
</event>
<event>
 5    1  0.1256986E+001  0.9047696E+02  0.7546771E-02  0.1301701E+00
         -4   -1    0    0    0  501 -0.00000000000E+00  0.00000000000E+00  0.24156276841E+03  0.24156276841E+03  0.00000000000E+00 0.  1.
          4   -1    0    0  501    0  0.00000000000E+00 -0.00000000000E+00 -0.84720010410E+01  0.84720010410E+01  0.00000000000E+00 0. -1.
         23    2    1    2    0    0  0.00000000000E+00  0.00000000000E+00  0.23309076737E+03  0.25003476945E+03  0.90476958955E+02 0.  0.
        -13    1    3    3    0    0 -0.38396894401E+02  0.14123820430E+02  0.63193278823E+02  0.75280769733E+02  0.00000000000E+00 0. -1.
         13    1    3    3    0    0  0.38396894401E+02 -0.14123820430E+02  0.16989748855E+03  0.17475399972E+03  0.00000000000E+00 0.  1.
<mgrwt>
<rscale>  0 0.90476959E+02</rscale>
<asrwt>0</asrwt>
<pdfrwt beam="2">  1        4 0.13033850E-02 0.90476959E+02</pdfrwt>
<pdfrwt beam="1">  1       -4 0.37163498E-01 0.90476959E+02</pdfrwt>
<totfact> 0.19865771E+04</totfact>
</mgrwt>
</event>
<event>
 5    1  0.1256986E+001  0.9782201E+02  0.7546771E-02  0.1284944E+00
          4   -1    0    0  501    0  0.00000000000E+00  0.00000000000E+00  0.25562331502E+02  0.25562331502E+02  0.00000000000E+00 0. -1.
         -4   -1    0    0    0  501 -0.00000000000E+00 -0.00000000000E+00 -0.93586399980E+02  0.93586399980E+02  0.00000000000E+00 0.  1.
         23    2    1    2    0    0  0.00000000000E+00  0.00000000000E+00 -0.68024068478E+02  0.11914873148E+03  0.97822013480E+02 0.  0.
        -11    1    3    3    0    0  0.38896650193E+02 -0.14048257403E+02 -0.65820286437E+02  0.77734246243E+02  0.00000000000E+00 0.  1.
         11    1    3    3    0    0 -0.38896650193E+02  0.14048257403E+02 -0.22037820408E+01  0.41414485239E+02  0.00000000000E+00 0. -1.
<mgrwt>
<rscale>  0 0.97822013E+02</rscale>
<asrwt>0</asrwt>
<pdfrwt beam="1">  1        4 0.39326664E-02 0.97822013E+02</pdfrwt>
<pdfrwt beam="2">  1       -4 0.14397908E-01 0.97822013E+02</pdfrwt>
<totfact> 0.20912613E+04</totfact>
</mgrwt>
</event>
<event>
 5    1  0.1256986E+001  0.9052906E+02  0.7546771E-02  0.1301576E+00
          2   -1    0    0  501    0  0.00000000000E+00  0.00000000000E+00  0.29293369282E+03  0.29293369282E+03  0.00000000000E+00 0. -1.
         -2   -1    0    0    0  501 -0.00000000000E+00 -0.00000000000E+00 -0.69943387816E+01  0.69943387816E+01  0.00000000000E+00 0.  1.
         23    2    1    2    0    0  0.00000000000E+00  0.00000000000E+00  0.28593935404E+03  0.29992803160E+03  0.90529055846E+02 0.  0.
        -11    1    3    3    0    0  0.54794552746E+01  0.39603422332E+02  0.72656153367E+02  0.82929922903E+02  0.00000000000E+00 0.  1.
         11    1    3    3    0    0 -0.54794552746E+01 -0.39603422332E+02  0.21328320067E+03  0.21699810870E+03  0.00000000000E+00 0. -1.
<mgrwt>
<rscale>  0 0.90529056E+02</rscale>
<asrwt>0</asrwt>
<pdfrwt beam="1">  1        2 0.45066712E-01 0.90529056E+02</pdfrwt>
<pdfrwt beam="2">  1       -2 0.10760523E-02 0.90529056E+02</pdfrwt>
<totfact> 0.18149061E+05</totfact>
</mgrwt>
</event>
<event>
 5    1  0.1256986E+001  0.9034361E+02  0.7546771E-02  0.1302022E+00
          1   -1    0    0  501    0  0.00000000000E+00  0.00000000000E+00  0.17170612917E+03  0.17170612917E+03  0.00000000000E+00 0. -1.
         -1   -1    0    0    0  501 -0.00000000000E+00 -0.00000000000E+00 -0.11883628039E+02  0.11883628039E+02  0.00000000000E+00 0.  1.
         23    2    1    2    0    0  0.00000000000E+00  0.00000000000E+00  0.15982250113E+03  0.18358975720E+03  0.90343605661E+02 0.  0.
        -13    1    3    3    0    0 -0.33995412119E+02  0.92208782182E+01  0.13738057101E+03  0.14182430656E+03  0.00000000000E+00 0. -1.
         13    1    3    3    0    0  0.33995412119E+02 -0.92208782182E+01  0.22441930121E+02  0.41765450648E+02  0.00000000000E+00 0.  1.
<mgrwt>
<rscale>  0 0.90343606E+02</rscale>
<asrwt>0</asrwt>
<pdfrwt beam="1">  1        1 0.26416326E-01 0.90343606E+02</pdfrwt>
<pdfrwt beam="2">  1       -1 0.18282506E-02 0.90343606E+02</pdfrwt>
<totfact> 0.11786345E+05</totfact>
</mgrwt>
</event>
<event>
 5    1  0.1256986E+001  0.9174032E+02  0.7546771E-02  0.1298691E+00
          1   -1    0    0  501    0  0.00000000000E+00  0.00000000000E+00  0.36839553362E+02  0.36839553362E+02  0.00000000000E+00 0. -1.
         -1   -1    0    0    0  501 -0.00000000000E+00 -0.00000000000E+00 -0.57114468457E+02  0.57114468457E+02  0.00000000000E+00 0.  1.
         23    2    1    2    0    0  0.00000000000E+00  0.00000000000E+00 -0.20274915095E+02  0.93954021818E+02  0.91740318474E+02 0.  0.
        -13    1    3    3    0    0 -0.14354011577E+02  0.37478232776E+02 -0.32886426310E+02  0.51886150520E+02  0.00000000000E+00 0.  1.
         13    1    3    3    0    0  0.14354011577E+02 -0.37478232776E+02  0.12611511215E+02  0.42067871298E+02  0.00000000000E+00 0. -1.
<mgrwt>
<rscale>  0 0.91740318E+02</rscale>
<asrwt>0</asrwt>
<pdfrwt beam="1">  1        1 0.56676236E-02 0.91740318E+02</pdfrwt>
<pdfrwt beam="2">  1       -1 0.87868414E-02 0.91740318E+02</pdfrwt>
<totfact> 0.87976576E+04</totfact>
</mgrwt>
</event>
<event>
 5    1  0.1256986E+001  0.9261082E+02  0.7546771E-02  0.1296650E+00
         -2   -1    0    0    0  501 -0.00000000000E+00  0.00000000000E+00  0.24059832361E+03  0.24059832361E+03  0.00000000000E+00 0. -1.
          2   -1    0    0  501    0  0.00000000000E+00 -0.00000000000E+00 -0.89119124034E+01  0.89119124034E+01  0.00000000000E+00 0.  1.
         23    2    1    2    0    0  0.00000000000E+00  0.00000000000E+00  0.23168641120E+03  0.24951023601E+03  0.92610824084E+02 0.  0.
        -11    1    3    3    0    0  0.86261835553E+01 -0.45262728111E+02  0.12820875414E+03  0.13623733055E+03  0.00000000000E+00 0. -1.
         11    1    3    3    0    0 -0.86261835553E+01  0.45262728111E+02  0.10347765707E+03  0.11327290546E+03  0.00000000000E+00 0.  1.
<mgrwt>
<rscale>  0 0.92610824E+02</rscale>
<asrwt>0</asrwt>
<pdfrwt beam="2">  1        2 0.13710636E-02 0.92610824E+02</pdfrwt>
<pdfrwt beam="1">  1       -2 0.37015122E-01 0.92610824E+02</pdfrwt>
<totfact> 0.55000373E+04</totfact>
</mgrwt>
</event>
<event>
 5    1  0.1256986E+001  0.9951187E+02  0.7546771E-02  0.1281326E+00
         -1   -1    0    0    0  501 -0.00000000000E+00  0.00000000000E+00  0.54230898460E+01  0.54230898460E+01  0.00000000000E+00 0.  1.
          1   -1    0    0  501    0  0.00000000000E+00 -0.00000000000E+00 -0.45650231848E+03  0.45650231848E+03  0.00000000000E+00 0. -1.
         23    2    1    2    0    0  0.00000000000E+00  0.00000000000E+00 -0.45107922863E+03  0.46192540833E+03  0.99511870408E+02 0.  0.
        -13    1    3    3    0    0  0.14339502997E+01  0.49731379205E+02 -0.22265266945E+03  0.22814354583E+03  0.00000000000E+00 0.  1.
         13    1    3    3    0    0 -0.14339502997E+01 -0.49731379205E+02 -0.22842655918E+03  0.23378186249E+03  0.00000000000E+00 0. -1.
<mgrwt>
<rscale>  0 0.99511870E+02</rscale>
<asrwt>0</asrwt>
<pdfrwt beam="2">  1        1 0.70231118E-01 0.99511870E+02</pdfrwt>
<pdfrwt beam="1">  1       -1 0.83432161E-03 0.99511870E+02</pdfrwt>
<totfact> 0.10902226E+05</totfact>
</mgrwt>
</event>
<event>
 5    1  0.1256986E+001  0.9202557E+02  0.7546771E-02  0.1298019E+00
          1   -1    0    0  501    0  0.00000000000E+00  0.00000000000E+00  0.12945018738E+02  0.12945018738E+02  0.00000000000E+00 0. -1.
         -1   -1    0    0    0  501 -0.00000000000E+00 -0.00000000000E+00 -0.16355142946E+03  0.16355142946E+03  0.00000000000E+00 0.  1.
         23    2    1    2    0    0  0.00000000000E+00  0.00000000000E+00 -0.15060641072E+03  0.17649644820E+03  0.92025568599E+02 0.  0.
        -11    1    3    3    0    0  0.24687833848E+02  0.23508661080E+02 -0.16033062343E+02  0.37672342295E+02  0.00000000000E+00 0. -1.
         11    1    3    3    0    0 -0.24687833848E+02 -0.23508661080E+02 -0.13457334838E+03  0.13882410591E+03  0.00000000000E+00 0.  1.
<mgrwt>
<rscale>  0 0.92025569E+02</rscale>
<asrwt>0</asrwt>
<pdfrwt beam="1">  1        1 0.19915413E-02 0.92025569E+02</pdfrwt>
<pdfrwt beam="2">  1       -1 0.25161758E-01 0.92025569E+02</pdfrwt>
<totfact> 0.71501906E+04</totfact>
</mgrwt>
</event>
<event>
 5    1  0.1256986E+001  0.9169775E+02  0.7546771E-02  0.1298792E+00
         -2   -1    0    0    0  501 -0.00000000000E+00  0.00000000000E+00  0.19216720691E+02  0.19216720691E+02  0.00000000000E+00 0.  1.
          2   -1    0    0  501    0  0.00000000000E+00 -0.00000000000E+00 -0.10939010872E+03  0.10939010872E+03  0.00000000000E+00 0. -1.
         23    2    1    2    0    0  0.00000000000E+00  0.00000000000E+00 -0.90173388031E+02  0.12860682941E+03  0.91697746224E+02 0.  0.
        -11    1    3    3    0    0  0.86774190347E+01  0.45019588846E+02 -0.45425000125E+02  0.64540619901E+02  0.00000000000E+00 0.  1.
         11    1    3    3    0    0 -0.86774190347E+01 -0.45019588846E+02 -0.44748387907E+02  0.64066209512E+02  0.00000000000E+00 0. -1.
<mgrwt>
<rscale>  0 0.91697746E+02</rscale>
<asrwt>0</asrwt>
<pdfrwt beam="2">  1        2 0.16829247E-01 0.91697746E+02</pdfrwt>
<pdfrwt beam="1">  1       -2 0.29564186E-02 0.91697746E+02</pdfrwt>
<totfact> 0.12416036E+05</totfact>
</mgrwt>
</event>
<event>
 5    1  0.1256986E+001  0.9091637E+02  0.7546771E-02  0.1300648E+00
          1   -1    0    0  501    0  0.00000000000E+00  0.00000000000E+00  0.80533955216E+02  0.80533955216E+02  0.00000000000E+00 0. -1.
         -1   -1    0    0    0  501 -0.00000000000E+00 -0.00000000000E+00 -0.25659318842E+02  0.25659318842E+02  0.00000000000E+00 0.  1.
         23    2    1    2    0    0  0.00000000000E+00  0.00000000000E+00  0.54874636374E+02  0.10619327406E+03  0.90916366723E+02 0.  0.
        -11    1    3    3    0    0  0.16587577725E+02  0.94084772097E+01 -0.20761247495E+02  0.28190363172E+02  0.00000000000E+00 0.  1.
         11    1    3    3    0    0 -0.16587577725E+02 -0.94084772097E+01  0.75635883869E+02  0.78002910887E+02  0.00000000000E+00 0. -1.
<mgrwt>
<rscale>  0 0.90916367E+02</rscale>
<asrwt>0</asrwt>
<pdfrwt beam="1">  1        1 0.12389839E-01 0.90916367E+02</pdfrwt>
<pdfrwt beam="2">  1       -1 0.39475875E-02 0.90916367E+02</pdfrwt>
<totfact> 0.10164488E+05</totfact>
</mgrwt>
</event>
<event>
 5    1  0.1256986E+001  0.9144614E+02  0.7546771E-02  0.1299387E+00
          2   -1    0    0  501    0  0.00000000000E+00  0.00000000000E+00  0.12187776272E+03  0.12187776272E+03  0.00000000000E+00 0. -1.
         -2   -1    0    0    0  501 -0.00000000000E+00 -0.00000000000E+00 -0.17153244916E+02  0.17153244916E+02  0.00000000000E+00 0.  1.
         23    2    1    2    0    0  0.00000000000E+00  0.00000000000E+00  0.10472451781E+03  0.13903100764E+03  0.91446139640E+02 0.  0.
        -11    1    3    3    0    0 -0.19644320872E+02  0.33943035679E+02  0.88101060405E+02  0.96435604722E+02  0.00000000000E+00 0. -1.
         11    1    3    3    0    0  0.19644320872E+02 -0.33943035679E+02  0.16623457402E+02  0.42595402917E+02  0.00000000000E+00 0.  1.
<mgrwt>
<rscale>  0 0.91446140E+02</rscale>
<asrwt>0</asrwt>
<pdfrwt beam="1">  1        2 0.18750424E-01 0.91446140E+02</pdfrwt>
<pdfrwt beam="2">  1       -2 0.26389608E-02 0.91446140E+02</pdfrwt>
<totfact> 0.12946419E+05</totfact>
</mgrwt>
</event>
<event>
 5    1  0.1256986E+001  0.9982673E+02  0.7546771E-02  0.1280661E+00
          2   -1    0    0  501    0  0.00000000000E+00  0.00000000000E+00  0.24395849413E+03  0.24395849413E+03  0.00000000000E+00 0. -1.
         -2   -1    0    0    0  501 -0.00000000000E+00 -0.00000000000E+00 -0.10212162713E+02  0.10212162713E+02  0.00000000000E+00 0.  1.
         23    2    1    2    0    0  0.00000000000E+00  0.00000000000E+00  0.23374633142E+03  0.25417065685E+03  0.99826726629E+02 0.  0.
        -11    1    3    3    0    0 -0.42864918871E+02  0.15353580326E+02  0.64804570675E+02  0.79200795950E+02  0.00000000000E+00 0.  1.
         11    1    3    3    0    0  0.42864918871E+02 -0.15353580326E+02  0.16894176075E+03  0.17496986090E+03  0.00000000000E+00 0. -1.
<mgrwt>
<rscale>  0 0.99826727E+02</rscale>
<asrwt>0</asrwt>
<pdfrwt beam="1">  1        2 0.37532072E-01 0.99826727E+02</pdfrwt>
<pdfrwt beam="2">  1       -2 0.15711021E-02 0.99826727E+02</pdfrwt>
<totfact> 0.13029647E+05</totfact>
</mgrwt>
</event>
<event>
 5    1  0.1256986E+001  0.9435966E+02  0.7546771E-02  0.1292625E+00
          2   -1    0    0  501    0  0.00000000000E+00  0.00000000000E+00  0.16204608914E+02  0.16204608914E+02  0.00000000000E+00 0. -1.
         -2   -1    0    0    0  501 -0.00000000000E+00 -0.00000000000E+00 -0.13736439446E+03  0.13736439446E+03  0.00000000000E+00 0.  1.
         23    2    1    2    0    0  0.00000000000E+00  0.00000000000E+00 -0.12115978555E+03  0.15356900338E+03  0.94359658563E+02 0.  0.
        -13    1    3    3    0    0  0.18868571126E+02 -0.42842307135E+02 -0.70132282499E+02  0.84320954131E+02  0.00000000000E+00 0.  1.
         13    1    3    3    0    0 -0.18868571126E+02  0.42842307135E+02 -0.51027503050E+02  0.69248049247E+02  0.00000000000E+00 0. -1.
<mgrwt>
<rscale>  0 0.94359659E+02</rscale>
<asrwt>0</asrwt>
<pdfrwt beam="1">  1        2 0.24930169E-02 0.94359659E+02</pdfrwt>
<pdfrwt beam="2">  1       -2 0.21132983E-01 0.94359659E+02</pdfrwt>
<totfact> 0.66092455E+04</totfact>
</mgrwt>
</event>
<event>
 5    1  0.1256986E+001  0.9141810E+02  0.7546771E-02  0.1299453E+00
         -1   -1    0    0    0  501 -0.00000000000E+00  0.00000000000E+00  0.48130467076E+01  0.48130467076E+01  0.00000000000E+00 0.  1.
          1   -1    0    0  501    0  0.00000000000E+00 -0.00000000000E+00 -0.43409450439E+03  0.43409450439E+03  0.00000000000E+00 0. -1.
         23    2    1    2    0    0  0.00000000000E+00  0.00000000000E+00 -0.42928145769E+03  0.43890755110E+03  0.91418097227E+02 0.  0.
        -13    1    3    3    0    0 -0.16430353319E+02 -0.42167456336E+02 -0.18379902726E+03  0.18928849227E+03  0.00000000000E+00 0.  1.
         13    1    3    3    0    0  0.16430353319E+02  0.42167456336E+02 -0.24548243042E+03  0.24961905883E+03  0.00000000000E+00 0. -1.
<mgrwt>
<rscale>  0 0.91418097E+02</rscale>
<asrwt>0</asrwt>
<pdfrwt beam="2">  1        1 0.66783776E-01 0.91418097E+02</pdfrwt>
<pdfrwt beam="1">  1       -1 0.74046866E-03 0.91418097E+02</pdfrwt>
<totfact> 0.13568059E+05</totfact>
</mgrwt>
</event>
<event>
 5    1  0.1256986E+001  0.9559235E+02  0.7546771E-02  0.1289848E+00
         -1   -1    0    0    0  501 -0.00000000000E+00  0.00000000000E+00  0.19421392709E+02  0.19421392709E+02  0.00000000000E+00 0.  1.
          1   -1    0    0  501    0  0.00000000000E+00 -0.00000000000E+00 -0.11762669803E+03  0.11762669803E+03  0.00000000000E+00 0. -1.
         23    2    1    2    0    0  0.00000000000E+00  0.00000000000E+00 -0.98205305317E+02  0.13704809074E+03  0.95592348972E+02 0.  0.
        -13    1    3    3    0    0  0.15736708081E+02 -0.16436803877E+02  0.11156991724E+02  0.25343460049E+02  0.00000000000E+00 0.  1.
         13    1    3    3    0    0 -0.15736708081E+02  0.16436803877E+02 -0.10936229704E+03  0.11170463069E+03  0.00000000000E+00 0. -1.
<mgrwt>
<rscale>  0 0.95592349E+02</rscale>
<asrwt>0</asrwt>
<pdfrwt beam="2">  1        1 0.18096415E-01 0.95592349E+02</pdfrwt>
<pdfrwt beam="1">  1       -1 0.29879066E-02 0.95592349E+02</pdfrwt>
<totfact> 0.94389908E+04</totfact>
</mgrwt>
</event>
<event>
 5    1  0.1256986E+001  0.8698220E+02  0.7546771E-02  0.1310329E+00
         -1   -1    0    0    0  501 -0.00000000000E+00  0.00000000000E+00  0.19167765449E+02  0.19167765449E+02  0.00000000000E+00 0.  1.
          1   -1    0    0  501    0  0.00000000000E+00 -0.00000000000E+00 -0.98680025815E+02  0.98680025815E+02  0.00000000000E+00 0. -1.
         23    2    1    2    0    0  0.00000000000E+00  0.00000000000E+00 -0.79512260365E+02  0.11784779126E+03  0.86982195634E+02 0.  0.
        -11    1    3    3    0    0 -0.40793144797E+02  0.43051733517E+01 -0.20175839110E+02  0.45713014163E+02  0.00000000000E+00 0.  1.
         11    1    3    3    0    0  0.40793144797E+02 -0.43051733517E+01 -0.59336421256E+02  0.72134777101E+02  0.00000000000E+00 0. -1.
<mgrwt>
<rscale>  0 0.86982196E+02</rscale>
<asrwt>0</asrwt>
<pdfrwt beam="2">  1        1 0.15181543E-01 0.86982196E+02</pdfrwt>
<pdfrwt beam="1">  1       -1 0.29488869E-02 0.86982196E+02</pdfrwt>
<totfact> 0.11844716E+05</totfact>
</mgrwt>
</event>
<event>
 5    1  0.1256986E+001  0.9161742E+02  0.7546771E-02  0.1298981E+00
         -3   -1    0    0    0  501 -0.00000000000E+00  0.00000000000E+00  0.23104556390E+02  0.23104556390E+02  0.00000000000E+00 0.  1.
          3   -1    0    0  501    0  0.00000000000E+00 -0.00000000000E+00 -0.90823548425E+02  0.90823548425E+02  0.00000000000E+00 0. -1.
         23    2    1    2    0    0  0.00000000000E+00  0.00000000000E+00 -0.67718992035E+02  0.11392810482E+03  0.91617417474E+02 0.  0.
        -11    1    3    3    0    0 -0.42976174642E+02  0.13539752525E+02 -0.23593010607E+02  0.50861642077E+02  0.00000000000E+00 0.  1.
         11    1    3    3    0    0  0.42976174642E+02 -0.13539752525E+02 -0.44125981428E+02  0.63066462738E+02  0.00000000000E+00 0. -1.
<mgrwt>
<rscale>  0 0.91617417E+02</rscale>
<asrwt>0</asrwt>
<pdfrwt beam="2">  1        3 0.13972854E-01 0.91617417E+02</pdfrwt>
<pdfrwt beam="1">  1       -3 0.35545471E-02 0.91617417E+02</pdfrwt>
<totfact> 0.33227872E+04</totfact>
</mgrwt>
</event>
<event>
 5    1  0.1256986E+001  0.9119379E+02  0.7546771E-02  0.1299986E+00
          1   -1    0    0  501    0  0.00000000000E+00  0.00000000000E+00  0.14237069891E+03  0.14237069891E+03  0.00000000000E+00 0. -1.
         -1   -1    0    0    0  501 -0.00000000000E+00 -0.00000000000E+00 -0.14603265064E+02  0.14603265064E+02  0.00000000000E+00 0.  1.
         23    2    1    2    0    0  0.00000000000E+00  0.00000000000E+00  0.12776743384E+03  0.15697396397E+03  0.91193794821E+02 0.  0.
        -13    1    3    3    0    0 -0.20474455198E+01 -0.43851005337E+02  0.42663613988E+02  0.61215085238E+02  0.00000000000E+00 0.  1.
         13    1    3    3    0    0  0.20474455198E+01  0.43851005337E+02  0.85103819856E+02  0.95758878733E+02  0.00000000000E+00 0. -1.
<mgrwt>
<rscale>  0 0.91193795E+02</rscale>
<asrwt>0</asrwt>
<pdfrwt beam="1">  1        1 0.21903184E-01 0.91193795E+02</pdfrwt>
<pdfrwt beam="2">  1       -1 0.22466563E-02 0.91193795E+02</pdfrwt>
<totfact> 0.11101198E+05</totfact>
</mgrwt>
</event>
<event>
 5    1  0.1256986E+001  0.9276978E+02  0.7546771E-02  0.1296280E+00
          1   -1    0    0  501    0  0.00000000000E+00  0.00000000000E+00  0.10901457472E+03  0.10901457472E+03  0.00000000000E+00 0. -1.
         -1   -1    0    0    0  501 -0.00000000000E+00 -0.00000000000E+00 -0.19736423736E+02  0.19736423736E+02  0.00000000000E+00 0.  1.
         23    2    1    2    0    0  0.00000000000E+00  0.00000000000E+00  0.89278150985E+02  0.12875099846E+03  0.92769776115E+02 0.  0.
        -11    1    3    3    0    0  0.17369483984E+02  0.23867268430E+02  0.94296604588E+02  0.98808881752E+02  0.00000000000E+00 0. -1.
         11    1    3    3    0    0 -0.17369483984E+02 -0.23867268430E+02 -0.50184536034E+01  0.29942116705E+02  0.00000000000E+00 0.  1.
<mgrwt>
<rscale>  0 0.92769776E+02</rscale>
<asrwt>0</asrwt>
<pdfrwt beam="1">  1        1 0.16771473E-01 0.92769776E+02</pdfrwt>
<pdfrwt beam="2">  1       -1 0.30363729E-02 0.92769776E+02</pdfrwt>
<totfact> 0.10109214E+05</totfact>
</mgrwt>
</event>
<event>
 5    1  0.1256986E+001  0.9179188E+02  0.7546771E-02  0.1298570E+00
         -2   -1    0    0    0  501 -0.00000000000E+00  0.00000000000E+00  0.57601897463E+02  0.57601897463E+02  0.00000000000E+00 0. -1.
          2   -1    0    0  501    0  0.00000000000E+00 -0.00000000000E+00 -0.36568888093E+02  0.36568888093E+02  0.00000000000E+00 0.  1.
         23    2    1    2    0    0  0.00000000000E+00  0.00000000000E+00  0.21033009370E+02  0.94170785556E+02  0.91791880736E+02 0.  0.
        -13    1    3    3    0    0 -0.42873681142E+02 -0.15277094077E+02  0.44561952859E+01  0.45731824964E+02  0.00000000000E+00 0.  1.
         13    1    3    3    0    0  0.42873681142E+02  0.15277094077E+02  0.16576814084E+02  0.48438960592E+02  0.00000000000E+00 0. -1.
<mgrwt>
<rscale>  0 0.91791881E+02</rscale>
<asrwt>0</asrwt>
<pdfrwt beam="2">  1        2 0.56259828E-02 0.91791881E+02</pdfrwt>
<pdfrwt beam="1">  1       -2 0.88618303E-02 0.91791881E+02</pdfrwt>
<totfact> 0.91383531E+04</totfact>
</mgrwt>
</event>
<event>
 5    1  0.1256986E+001  0.9136400E+02  0.7546771E-02  0.1299582E+00
          1   -1    0    0  501    0  0.00000000000E+00  0.00000000000E+00  0.30369181305E+02  0.30369181305E+02  0.00000000000E+00 0. -1.
         -1   -1    0    0    0  501 -0.00000000000E+00 -0.00000000000E+00 -0.68715890949E+02  0.68715890949E+02  0.00000000000E+00 0.  1.
         23    2    1    2    0    0  0.00000000000E+00  0.00000000000E+00 -0.38346709645E+02  0.99085072254E+02  0.91364004964E+02 0.  0.
        -13    1    3    3    0    0  0.11223618400E+02  0.71365453293E+01 -0.66569561516E+02  0.67885244418E+02  0.00000000000E+00 0.  1.
         13    1    3    3    0    0 -0.11223618400E+02 -0.71365453293E+01  0.28222851872E+02  0.31199827836E+02  0.00000000000E+00 0. -1.
<mgrwt>
<rscale>  0 0.91364005E+02</rscale>
<asrwt>0</asrwt>
<pdfrwt beam="1">  1        1 0.46721818E-02 0.91364005E+02</pdfrwt>
<pdfrwt beam="2">  1       -1 0.10571675E-01 0.91364005E+02</pdfrwt>
<totfact> 0.86345361E+04</totfact>
</mgrwt>
</event>
<event>
 5    1  0.1256986E+001  0.9247260E+02  0.7546771E-02  0.1296972E+00
         -3   -1    0    0    0  501 -0.00000000000E+00  0.00000000000E+00  0.15675236013E+03  0.15675236013E+03  0.00000000000E+00 0.  1.
          3   -1    0    0  501    0  0.00000000000E+00 -0.00000000000E+00 -0.13638043729E+02  0.13638043729E+02  0.00000000000E+00 0. -1.
         23    2    1    2    0    0  0.00000000000E+00  0.00000000000E+00  0.14311431641E+03  0.17039040386E+03  0.92472602258E+02 0.  0.
        -11    1    3    3    0    0  0.43704591891E+02  0.11620359449E+01  0.43835065744E+02  0.61910860668E+02  0.00000000000E+00 0.  1.
         11    1    3    3    0    0 -0.43704591891E+02 -0.11620359449E+01  0.99279250661E+02  0.10847954319E+03  0.00000000000E+00 0. -1.
<mgrwt>
<rscale>  0 0.92472602E+02</rscale>
<asrwt>0</asrwt>
<pdfrwt beam="2">  1        3 0.20981607E-02 0.92472602E+02</pdfrwt>
<pdfrwt beam="1">  1       -3 0.24115746E-01 0.92472602E+02</pdfrwt>
<totfact> 0.28974957E+04</totfact>
</mgrwt>
</event>
<event>
 5    1  0.1256986E+001  0.8954309E+02  0.7546771E-02  0.1303962E+00
          2   -1    0    0  501    0  0.00000000000E+00  0.00000000000E+00  0.35953628963E+03  0.35953628963E+03  0.00000000000E+00 0. -1.
         -2   -1    0    0    0  501 -0.00000000000E+00 -0.00000000000E+00 -0.55752120882E+01  0.55752120882E+01  0.00000000000E+00 0.  1.
         23    2    1    2    0    0  0.00000000000E+00  0.00000000000E+00  0.35396107754E+03  0.36511150172E+03  0.89543086122E+02 0.  0.
        -13    1    3    3    0    0  0.43101424909E+02 -0.10769510286E+02  0.15436021870E+03  0.16062625034E+03  0.00000000000E+00 0. -1.
         13    1    3    3    0    0 -0.43101424909E+02  0.10769510286E+02  0.19960085884E+03  0.20448525138E+03  0.00000000000E+00 0.  1.
<mgrwt>
<rscale>  0 0.89543086E+02</rscale>
<asrwt>0</asrwt>
<pdfrwt beam="1">  1        2 0.55313257E-01 0.89543086E+02</pdfrwt>
<pdfrwt beam="2">  1       -2 0.85772522E-03 0.89543086E+02</pdfrwt>
<totfact> 0.20152009E+05</totfact>
</mgrwt>
</event>
<event>
 5    1  0.1256986E+001  0.9162040E+02  0.7546771E-02  0.1298974E+00
          1   -1    0    0  501    0  0.00000000000E+00  0.00000000000E+00  0.26983496527E+02  0.26983496527E+02  0.00000000000E+00 0. -1.
         -1   -1    0    0    0  501 -0.00000000000E+00 -0.00000000000E+00 -0.77772524575E+02  0.77772524575E+02  0.00000000000E+00 0.  1.
         23    2    1    2    0    0  0.00000000000E+00  0.00000000000E+00 -0.50789028048E+02  0.10475602110E+03  0.91620404862E+02 0.  0.
        -11    1    3    3    0    0  0.20014717721E+02 -0.30770052381E+02 -0.56731813689E+02  0.67571323307E+02  0.00000000000E+00 0.  1.
         11    1    3    3    0    0 -0.20014717721E+02  0.30770052381E+02  0.59427856404E+01  0.37184697796E+02  0.00000000000E+00 0. -1.
<mgrwt>
<rscale>  0 0.91620405E+02</rscale>
<asrwt>0</asrwt>
<pdfrwt beam="1">  1        1 0.41513072E-02 0.91620405E+02</pdfrwt>
<pdfrwt beam="2">  1       -1 0.11965004E-01 0.91620405E+02</pdfrwt>
<totfact> 0.84003345E+04</totfact>
</mgrwt>
</event>
<event>
 5    1  0.1256986E+001  0.9115103E+02  0.7546771E-02  0.1300088E+00
         -2   -1    0    0    0  501 -0.00000000000E+00  0.00000000000E+00  0.89738912971E+01  0.89738912971E+01  0.00000000000E+00 0.  1.
          2   -1    0    0  501    0  0.00000000000E+00 -0.00000000000E+00 -0.23146341369E+03  0.23146341369E+03  0.00000000000E+00 0. -1.
         23    2    1    2    0    0  0.00000000000E+00  0.00000000000E+00 -0.22248952240E+03  0.24043730499E+03  0.91151028821E+02 0.  0.
        -13    1    3    3    0    0 -0.36739612552E+02 -0.18774287874E+02 -0.16231544112E+03  0.16747708930E+03  0.00000000000E+00 0. -1.
         13    1    3    3    0    0  0.36739612552E+02  0.18774287874E+02 -0.60174081277E+02  0.72960215688E+02  0.00000000000E+00 0.  1.
<mgrwt>
<rscale>  0 0.91151029E+02</rscale>
<asrwt>0</asrwt>
<pdfrwt beam="2">  1        2 0.35609757E-01 0.91151029E+02</pdfrwt>
<pdfrwt beam="1">  1       -2 0.13805986E-02 0.91151029E+02</pdfrwt>
<totfact> 0.16327887E+05</totfact>
</mgrwt>
</event>
<event>
 5    1  0.1256986E+001  0.9559825E+02  0.7546771E-02  0.1289834E+00
         -1   -1    0    0    0  501 -0.00000000000E+00  0.00000000000E+00  0.28953707032E+02  0.28953707032E+02  0.00000000000E+00 0.  1.
          1   -1    0    0  501    0  0.00000000000E+00 -0.00000000000E+00 -0.78910672883E+02  0.78910672883E+02  0.00000000000E+00 0. -1.
         23    2    1    2    0    0  0.00000000000E+00  0.00000000000E+00 -0.49956965852E+02  0.10786437992E+03  0.95598253213E+02 0.  0.
        -11    1    3    3    0    0 -0.25068266355E+02 -0.28766461681E+02 -0.57461818457E+02  0.68976719812E+02  0.00000000000E+00 0. -1.
         11    1    3    3    0    0  0.25068266355E+02  0.28766461681E+02  0.75048526053E+01  0.38887660103E+02  0.00000000000E+00 0.  1.
<mgrwt>
<rscale>  0 0.95598253E+02</rscale>
<asrwt>0</asrwt>
<pdfrwt beam="2">  1        1 0.12140103E-01 0.95598253E+02</pdfrwt>
<pdfrwt beam="1">  1       -1 0.44544165E-02 0.95598253E+02</pdfrwt>
<totfact> 0.88220426E+04</totfact>
</mgrwt>
</event>
<event>
 5    1  0.1256986E+001  0.9001912E+02  0.7546771E-02  0.1302805E+00
          2   -1    0    0  501    0  0.00000000000E+00  0.00000000000E+00  0.64287467355E+02  0.64287467355E+02  0.00000000000E+00 0. -1.
         -2   -1    0    0    0  501 -0.00000000000E+00 -0.00000000000E+00 -0.31512527298E+02  0.31512527298E+02  0.00000000000E+00 0.  1.
         23    2    1    2    0    0  0.00000000000E+00  0.00000000000E+00  0.32774940057E+02  0.95799994653E+02  0.90019121746E+02 0.  0.
        -11    1    3    3    0    0  0.38624179050E+02 -0.11248071992E+02 -0.50958850932E+01  0.40550146433E+02  0.00000000000E+00 0.  1.
         11    1    3    3    0    0 -0.38624179050E+02  0.11248071992E+02  0.37870825150E+02  0.55249848220E+02  0.00000000000E+00 0. -1.
<mgrwt>
<rscale>  0 0.90019122E+02</rscale>
<asrwt>0</asrwt>
<pdfrwt beam="1">  1        2 0.98903795E-02 0.90019122E+02</pdfrwt>
<pdfrwt beam="2">  1       -2 0.48480811E-02 0.90019122E+02</pdfrwt>
<totfact> 0.11200870E+05</totfact>
</mgrwt>
</event>
<event>
 5    1  0.1256986E+001  0.9258207E+02  0.7546771E-02  0.1296717E+00
          1   -1    0    0  501    0  0.00000000000E+00  0.00000000000E+00  0.39565481966E+02  0.39565481966E+02  0.00000000000E+00 0. -1.
         -1   -1    0    0    0  501 -0.00000000000E+00 -0.00000000000E+00 -0.54159832279E+02  0.54159832279E+02  0.00000000000E+00 0.  1.
         23    2    1    2    0    0  0.00000000000E+00  0.00000000000E+00 -0.14594350313E+02  0.93725314245E+02  0.92582068832E+02 0.  0.
        -13    1    3    3    0    0  0.21832401429E+02 -0.40733148609E+02 -0.46155560979E+01  0.46445091300E+02  0.00000000000E+00 0.  1.
         13    1    3    3    0    0 -0.21832401429E+02  0.40733148609E+02 -0.99787942153E+01  0.47280222945E+02  0.00000000000E+00 0. -1.
<mgrwt>
<rscale>  0 0.92582069E+02</rscale>
<asrwt>0</asrwt>
<pdfrwt beam="1">  1        1 0.60869973E-02 0.92582069E+02</pdfrwt>
<pdfrwt beam="2">  1       -1 0.83322818E-02 0.92582069E+02</pdfrwt>
<totfact> 0.86675362E+04</totfact>
</mgrwt>
</event>
<event>
 5    1  0.1256986E+001  0.9257221E+02  0.7546771E-02  0.1296740E+00
          1   -1    0    0  501    0  0.00000000000E+00  0.00000000000E+00  0.15485540086E+03  0.15485540086E+03  0.00000000000E+00 0. -1.
         -1   -1    0    0    0  501 -0.00000000000E+00 -0.00000000000E+00 -0.13834864316E+02  0.13834864316E+02  0.00000000000E+00 0.  1.
         23    2    1    2    0    0  0.00000000000E+00  0.00000000000E+00  0.14102053655E+03  0.16869026518E+03  0.92572208778E+02 0.  0.
        -11    1    3    3    0    0  0.43150666546E+02  0.10189892256E+02  0.94725680831E+02  0.10458856790E+03  0.00000000000E+00 0. -1.
         11    1    3    3    0    0 -0.43150666546E+02 -0.10189892256E+02  0.46294855719E+02  0.64101697276E+02  0.00000000000E+00 0.  1.
<mgrwt>
<rscale>  0 0.92572209E+02</rscale>
<asrwt>0</asrwt>
<pdfrwt beam="1">  1        1 0.23823907E-01 0.92572209E+02</pdfrwt>
<pdfrwt beam="2">  1       -1 0.21284408E-02 0.92572209E+02</pdfrwt>
<totfact> 0.10826088E+05</totfact>
</mgrwt>
</event>
<event>
 5    1  0.1256986E+001  0.9181691E+02  0.7546771E-02  0.1298510E+00
          1   -1    0    0  501    0  0.00000000000E+00  0.00000000000E+00  0.23618085384E+03  0.23618085384E+03  0.00000000000E+00 0. -1.
         -1   -1    0    0    0  501 -0.00000000000E+00 -0.00000000000E+00 -0.89236118675E+01  0.89236118675E+01  0.00000000000E+00 0.  1.
         23    2    1    2    0    0  0.00000000000E+00  0.00000000000E+00  0.22725724197E+03  0.24510446571E+03  0.91816910647E+02 0.  0.
        -11    1    3    3    0    0  0.65739773871E+01  0.45411661092E+02  0.11754298074E+03  0.12618156943E+03  0.00000000000E+00 0.  1.
         11    1    3    3    0    0 -0.65739773871E+01 -0.45411661092E+02  0.10971426123E+03  0.11892289628E+03  0.00000000000E+00 0. -1.
<mgrwt>
<rscale>  0 0.91816911E+02</rscale>
<asrwt>0</asrwt>
<pdfrwt beam="1">  1        1 0.36335511E-01 0.91816911E+02</pdfrwt>
<pdfrwt beam="2">  1       -1 0.13728635E-02 0.91816911E+02</pdfrwt>
<totfact> 0.12003741E+05</totfact>
</mgrwt>
</event>
<event>
 5    1  0.1256986E+001  0.8757681E+02  0.7546771E-02  0.1308828E+00
         -1   -1    0    0    0  501 -0.00000000000E+00  0.00000000000E+00  0.43080193649E+02  0.43080193649E+02  0.00000000000E+00 0.  1.
          1   -1    0    0  501    0  0.00000000000E+00 -0.00000000000E+00 -0.44508258672E+02  0.44508258672E+02  0.00000000000E+00 0. -1.
         23    2    1    2    0    0  0.00000000000E+00  0.00000000000E+00 -0.14280650230E+01  0.87588452320E+02  0.87576809774E+02 0.  0.
        -13    1    3    3    0    0 -0.47216091608E+01 -0.27123573335E+02 -0.34769147756E+02  0.44349469661E+02  0.00000000000E+00 0. -1.
         13    1    3    3    0    0  0.47216091608E+01  0.27123573335E+02  0.33341082733E+02  0.43238982659E+02  0.00000000000E+00 0.  1.
<mgrwt>
<rscale>  0 0.87576810E+02</rscale>
<asrwt>0</asrwt>
<pdfrwt beam="2">  1        1 0.68474244E-02 0.87576810E+02</pdfrwt>
<pdfrwt beam="1">  1       -1 0.66277221E-02 0.87576810E+02</pdfrwt>
<totfact> 0.10313451E+05</totfact>
</mgrwt>
</event>
<event>
 5    1  0.1256986E+001  0.9430930E+02  0.7546771E-02  0.1292739E+00
          1   -1    0    0  501    0  0.00000000000E+00  0.00000000000E+00  0.24902941840E+03  0.24902941840E+03  0.00000000000E+00 0. -1.
         -1   -1    0    0    0  501 -0.00000000000E+00 -0.00000000000E+00 -0.89289084110E+01  0.89289084110E+01  0.00000000000E+00 0.  1.
         23    2    1    2    0    0  0.00000000000E+00  0.00000000000E+00  0.24010050999E+03  0.25795832682E+03  0.94309296861E+02 0.  0.
        -13    1    3    3    0    0  0.17227585009E+02  0.31231720561E+02  0.20441585344E+03  0.20750434018E+03  0.00000000000E+00 0. -1.
         13    1    3    3    0    0 -0.17227585009E+02 -0.31231720561E+02  0.35684656554E+02  0.50453986639E+02  0.00000000000E+00 0.  1.
<mgrwt>
<rscale>  0 0.94309297E+02</rscale>
<asrwt>0</asrwt>
<pdfrwt beam="1">  1        1 0.38312213E-01 0.94309297E+02</pdfrwt>
<pdfrwt beam="2">  1       -1 0.13736784E-02 0.94309297E+02</pdfrwt>
<totfact> 0.11288774E+05</totfact>
</mgrwt>
</event>
<event>
 5    1  0.1256986E+001  0.9178358E+02  0.7546771E-02  0.1298589E+00
         -2   -1    0    0    0  501 -0.00000000000E+00  0.00000000000E+00  0.11089634366E+02  0.11089634366E+02  0.00000000000E+00 0.  1.
          2   -1    0    0  501    0  0.00000000000E+00 -0.00000000000E+00 -0.18991216223E+03  0.18991216223E+03  0.00000000000E+00 0. -1.
         23    2    1    2    0    0  0.00000000000E+00  0.00000000000E+00 -0.17882252787E+03  0.20100179660E+03  0.91783581121E+02 0.  0.
        -13    1    3    3    0    0  0.33929566173E+02  0.35178311517E+01 -0.22180545736E+02  0.40688661883E+02  0.00000000000E+00 0.  1.
         13    1    3    3    0    0 -0.33929566173E+02 -0.35178311517E+01 -0.15664198213E+03  0.16031313472E+03  0.00000000000E+00 0. -1.
<mgrwt>
<rscale>  0 0.91783581E+02</rscale>
<asrwt>0</asrwt>
<pdfrwt beam="2">  1        2 0.29217255E-01 0.91783581E+02</pdfrwt>
<pdfrwt beam="1">  1       -2 0.17060976E-02 0.91783581E+02</pdfrwt>
<totfact> 0.14912949E+05</totfact>
</mgrwt>
</event>
<event>
 5    1  0.1256986E+001  0.9336025E+02  0.7546771E-02  0.1294912E+00
         -1   -1    0    0    0  501 -0.00000000000E+00  0.00000000000E+00  0.17245381887E+03  0.17245381887E+03  0.00000000000E+00 0.  1.
          1   -1    0    0  501    0  0.00000000000E+00 -0.00000000000E+00 -0.12635465410E+02  0.12635465410E+02  0.00000000000E+00 0. -1.
         23    2    1    2    0    0  0.00000000000E+00  0.00000000000E+00  0.15981835346E+03  0.18508928428E+03  0.93360254139E+02 0.  0.
        -13    1    3    3    0    0 -0.30103420940E+02 -0.35032156494E+02  0.93291799607E+02  0.10410008557E+03  0.00000000000E+00 0.  1.
         13    1    3    3    0    0  0.30103420940E+02  0.35032156494E+02  0.66526553856E+02  0.80989198717E+02  0.00000000000E+00 0. -1.
<mgrwt>
<rscale>  0 0.93360254E+02</rscale>
<asrwt>0</asrwt>
<pdfrwt beam="2">  1        1 0.19439179E-02 0.93360254E+02</pdfrwt>
<pdfrwt beam="1">  1       -1 0.26531355E-01 0.93360254E+02</pdfrwt>
<totfact> 0.67953197E+04</totfact>
</mgrwt>
</event>
<event>
 5    1  0.1256986E+001  0.9586694E+02  0.7546771E-02  0.1289235E+00
         -1   -1    0    0    0  501 -0.00000000000E+00  0.00000000000E+00  0.65452047781E+02  0.65452047781E+02  0.00000000000E+00 0.  1.
          1   -1    0    0  501    0  0.00000000000E+00 -0.00000000000E+00 -0.35103832636E+02  0.35103832636E+02  0.00000000000E+00 0. -1.
         23    2    1    2    0    0  0.00000000000E+00  0.00000000000E+00  0.30348215145E+02  0.10055588042E+03  0.95866943854E+02 0.  0.
        -13    1    3    3    0    0  0.43722369372E+02 -0.17081345221E+02  0.25354477608E+02  0.53350421487E+02  0.00000000000E+00 0. -1.
         13    1    3    3    0    0 -0.43722369372E+02  0.17081345221E+02  0.49937375366E+01  0.47205458929E+02  0.00000000000E+00 0.  1.
<mgrwt>
<rscale>  0 0.95866944E+02</rscale>
<asrwt>0</asrwt>
<pdfrwt beam="2">  1        1 0.54005896E-02 0.95866944E+02</pdfrwt>
<pdfrwt beam="1">  1       -1 0.10069546E-01 0.95866944E+02</pdfrwt>
<totfact> 0.76987740E+04</totfact>
</mgrwt>
</event>
<event>
 5    1  0.1256986E+001  0.9077077E+02  0.7546771E-02  0.1300996E+00
         -3   -1    0    0    0  501 -0.00000000000E+00  0.00000000000E+00  0.79380873896E+01  0.79380873896E+01  0.00000000000E+00 0.  1.
          3   -1    0    0  501    0  0.00000000000E+00 -0.00000000000E+00 -0.25948732417E+03  0.25948732417E+03  0.00000000000E+00 0. -1.
         23    2    1    2    0    0  0.00000000000E+00  0.00000000000E+00 -0.25154923678E+03  0.26742541156E+03  0.90770767448E+02 0.  0.
        -11    1    3    3    0    0  0.21120163023E+02 -0.36500340110E+02 -0.76344288850E+02  0.87216893743E+02  0.00000000000E+00 0.  1.
         11    1    3    3    0    0 -0.21120163023E+02  0.36500340110E+02 -0.17520494793E+03  0.18020851782E+03  0.00000000000E+00 0. -1.
<mgrwt>
<rscale>  0 0.90770767E+02</rscale>
<asrwt>0</asrwt>
<pdfrwt beam="2">  1        3 0.39921128E-01 0.90770767E+02</pdfrwt>
<pdfrwt beam="1">  1       -3 0.12212442E-02 0.90770767E+02</pdfrwt>
<totfact> 0.25654519E+04</totfact>
</mgrwt>
</event>
<event>
 5    1  0.1256986E+001  0.7950595E+02  0.7546771E-02  0.1330459E+00
         -2   -1    0    0    0  501 -0.00000000000E+00  0.00000000000E+00  0.28550998694E+02  0.28550998694E+02  0.00000000000E+00 0.  1.
          2   -1    0    0  501    0  0.00000000000E+00 -0.00000000000E+00 -0.55350038271E+02  0.55350038271E+02  0.00000000000E+00 0. -1.
         23    2    1    2    0    0  0.00000000000E+00  0.00000000000E+00 -0.26799039577E+02  0.83901036965E+02  0.79505946203E+02 0.  0.
        -13    1    3    3    0    0  0.25305076763E+02  0.26493179724E+02  0.28827153930E+01  0.36749769114E+02  0.00000000000E+00 0.  1.
         13    1    3    3    0    0 -0.25305076763E+02 -0.26493179724E+02 -0.29681754970E+02  0.47151267852E+02  0.00000000000E+00 0. -1.
<mgrwt>
<rscale>  0 0.79505946E+02</rscale>
<asrwt>0</asrwt>
<pdfrwt beam="2">  1        2 0.85153906E-02 0.79505946E+02</pdfrwt>
<pdfrwt beam="1">  1       -2 0.43924613E-02 0.79505946E+02</pdfrwt>
<totfact> 0.15228643E+05</totfact>
</mgrwt>
</event>
<event>
 5    1  0.1256986E+001  0.9113481E+02  0.7546771E-02  0.1300127E+00
          1   -1    0    0  501    0  0.00000000000E+00  0.00000000000E+00  0.50798551830E+02  0.50798551830E+02  0.00000000000E+00 0.  1.
         -1   -1    0    0    0  501 -0.00000000000E+00 -0.00000000000E+00 -0.40874950754E+02  0.40874950754E+02  0.00000000000E+00 0. -1.
         23    2    1    2    0    0  0.00000000000E+00  0.00000000000E+00  0.99236010764E+01  0.91673502584E+02  0.91134807937E+02 0.  0.
        -11    1    3    3    0    0 -0.26140682725E+02 -0.22887368176E+02 -0.24695030604E+02  0.42626417301E+02  0.00000000000E+00 0. -1.
         11    1    3    3    0    0  0.26140682725E+02  0.22887368176E+02  0.34618631681E+02  0.49047085283E+02  0.00000000000E+00 0.  1.
<mgrwt>
<rscale>  0 0.91134808E+02</rscale>
<asrwt>0</asrwt>
<pdfrwt beam="1">  1        1 0.78151618E-02 0.91134808E+02</pdfrwt>
<pdfrwt beam="2">  1       -1 0.62884539E-02 0.91134808E+02</pdfrwt>
<totfact> 0.94108407E+04</totfact>
</mgrwt>
</event>
<event>
 5    1  0.1256986E+001  0.8786098E+02  0.7546771E-02  0.1308116E+00
          1   -1    0    0  501    0  0.00000000000E+00  0.00000000000E+00  0.45313247461E+02  0.45313247461E+02  0.00000000000E+00 0. -1.
         -1   -1    0    0    0  501 -0.00000000000E+00 -0.00000000000E+00 -0.42589926582E+02  0.42589926582E+02  0.00000000000E+00 0.  1.
         23    2    1    2    0    0  0.00000000000E+00  0.00000000000E+00  0.27233208791E+01  0.87903174043E+02  0.87860978428E+02 0.  0.
        -11    1    3    3    0    0  0.18850438291E+02  0.20103851898E+02 -0.32865644912E+02  0.42891193739E+02  0.00000000000E+00 0.  1.
         11    1    3    3    0    0 -0.18850438291E+02 -0.20103851898E+02  0.35588965791E+02  0.45011980305E+02  0.00000000000E+00 0. -1.
<mgrwt>
<rscale>  0 0.87860978E+02</rscale>
<asrwt>0</asrwt>
<pdfrwt beam="1">  1        1 0.69712688E-02 0.87860978E+02</pdfrwt>
<pdfrwt beam="2">  1       -1 0.65522964E-02 0.87860978E+02</pdfrwt>
<totfact> 0.10247383E+05</totfact>
</mgrwt>
</event>
<event>
 5    1  0.1256986E+001  0.9370795E+02  0.7546771E-02  0.1294113E+00
          1   -1    0    0  501    0  0.00000000000E+00  0.00000000000E+00  0.17626554156E+03  0.17626554156E+03  0.00000000000E+00 0. -1.
         -1   -1    0    0    0  501 -0.00000000000E+00 -0.00000000000E+00 -0.12454476591E+02  0.12454476591E+02  0.00000000000E+00 0.  1.
         23    2    1    2    0    0  0.00000000000E+00  0.00000000000E+00  0.16381106496E+03  0.18872001815E+03  0.93707951875E+02 0.  0.
        -11    1    3    3    0    0 -0.15594396178E+02  0.34036548305E+02  0.25170838774E+02  0.45113666857E+02  0.00000000000E+00 0.  1.
         11    1    3    3    0    0  0.15594396178E+02 -0.34036548305E+02  0.13864022619E+03  0.14360635129E+03  0.00000000000E+00 0. -1.
<mgrwt>
<rscale>  0 0.93707952E+02</rscale>
<asrwt>0</asrwt>
<pdfrwt beam="1">  1        1 0.27117774E-01 0.93707952E+02</pdfrwt>
<pdfrwt beam="2">  1       -1 0.19160735E-02 0.93707952E+02</pdfrwt>
<totfact> 0.10734354E+05</totfact>
</mgrwt>
</event>
<event>
 5    1  0.1256986E+001  0.1044338E+03  0.7546771E-02  0.1271239E+00
         -4   -1    0    0    0  501 -0.00000000000E+00  0.00000000000E+00  0.14700868583E+03  0.14700868583E+03  0.00000000000E+00 0. -1.
          4   -1    0    0  501    0  0.00000000000E+00 -0.00000000000E+00 -0.18547230470E+02  0.18547230470E+02  0.00000000000E+00 0.  1.
         23    2    1    2    0    0  0.00000000000E+00  0.00000000000E+00  0.12846145536E+03  0.16555591630E+03  0.10443378720E+03 0.  0.
        -13    1    3    3    0    0  0.34527168262E+02  0.32673599027E+02  0.98485602441E+02  0.10935768519E+03  0.00000000000E+00 0. -1.
         13    1    3    3    0    0 -0.34527168262E+02 -0.32673599027E+02  0.29975852915E+02  0.56198231107E+02  0.00000000000E+00 0.  1.
<mgrwt>
<rscale>  0 0.10443379E+03</rscale>
<asrwt>0</asrwt>
<pdfrwt beam="2">  1        4 0.28534202E-02 0.10443379E+03</pdfrwt>
<pdfrwt beam="1">  1       -4 0.22616720E-01 0.10443379E+03</pdfrwt>
<totfact> 0.15853783E+04</totfact>
</mgrwt>
</event>
<event>
 5    1  0.1256986E+001  0.9179868E+02  0.7546771E-02  0.1298553E+00
         -1   -1    0    0    0  501 -0.00000000000E+00  0.00000000000E+00  0.24059678408E+03  0.24059678408E+03  0.00000000000E+00 0.  1.
          1   -1    0    0  501    0  0.00000000000E+00 -0.00000000000E+00 -0.87563481188E+01  0.87563481188E+01  0.00000000000E+00 0. -1.
         23    2    1    2    0    0  0.00000000000E+00  0.00000000000E+00  0.23184043597E+03  0.24935313220E+03  0.91798675322E+02 0.  0.
        -11    1    3    3    0    0  0.20928177363E+01 -0.44612276812E+02  0.87158920660E+02  0.97935246867E+02  0.00000000000E+00 0. -1.
         11    1    3    3    0    0 -0.20928177363E+01  0.44612276812E+02  0.14468151531E+03  0.15141788534E+03  0.00000000000E+00 0.  1.
<mgrwt>
<rscale>  0 0.91798675E+02</rscale>
<asrwt>0</asrwt>
<pdfrwt beam="2">  1        1 0.13471307E-02 0.91798675E+02</pdfrwt>
<pdfrwt beam="1">  1       -1 0.37014885E-01 0.91798675E+02</pdfrwt>
<totfact> 0.64444446E+04</totfact>
</mgrwt>
</event>
<event>
 5    1  0.1256986E+001  0.9134061E+02  0.7546771E-02  0.1299637E+00
          1   -1    0    0  501    0  0.00000000000E+00  0.00000000000E+00  0.20865544024E+02  0.20865544024E+02  0.00000000000E+00 0. -1.
         -1   -1    0    0    0  501 -0.00000000000E+00 -0.00000000000E+00 -0.99962720236E+02  0.99962720236E+02  0.00000000000E+00 0.  1.
         23    2    1    2    0    0  0.00000000000E+00  0.00000000000E+00 -0.79097176212E+02  0.12082826426E+03  0.91340605206E+02 0.  0.
        -13    1    3    3    0    0  0.37581108865E+02 -0.23645820137E+02 -0.25405295133E+02  0.51155582043E+02  0.00000000000E+00 0.  1.
         13    1    3    3    0    0 -0.37581108865E+02  0.23645820137E+02 -0.53691881079E+02  0.69672682216E+02  0.00000000000E+00 0. -1.
<mgrwt>
<rscale>  0 0.91340605E+02</rscale>
<asrwt>0</asrwt>
<pdfrwt beam="1">  1        1 0.32100837E-02 0.91340605E+02</pdfrwt>
<pdfrwt beam="2">  1       -1 0.15378880E-01 0.91340605E+02</pdfrwt>
<totfact> 0.81000641E+04</totfact>
</mgrwt>
</event>
<event>
 5    1  0.1256986E+001  0.9174307E+02  0.7546771E-02  0.1298685E+00
          1   -1    0    0  501    0  0.00000000000E+00  0.00000000000E+00  0.11434139377E+03  0.11434139377E+03  0.00000000000E+00 0. -1.
         -1   -1    0    0    0  501 -0.00000000000E+00 -0.00000000000E+00 -0.18402765135E+02  0.18402765135E+02  0.00000000000E+00 0.  1.
         23    2    1    2    0    0  0.00000000000E+00  0.00000000000E+00  0.95938628638E+02  0.13274415891E+03  0.91743071997E+02 0.  0.
        -13    1    3    3    0    0  0.27409001864E+02  0.24599811302E+02  0.87536307425E+02  0.94968464328E+02  0.00000000000E+00 0. -1.
         13    1    3    3    0    0 -0.27409001864E+02 -0.24599811302E+02  0.84023212123E+01  0.37775694580E+02  0.00000000000E+00 0.  1.
<mgrwt>
<rscale>  0 0.91743072E+02</rscale>
<asrwt>0</asrwt>
<pdfrwt beam="1">  1        1 0.17590983E-01 0.91743072E+02</pdfrwt>
<pdfrwt beam="2">  1       -1 0.28311947E-02 0.91743072E+02</pdfrwt>
<totfact> 0.10506027E+05</totfact>
</mgrwt>
</event>
<event>
 5    1  0.1256986E+001  0.9217932E+02  0.7546771E-02  0.1297658E+00
         -1   -1    0    0    0  501 -0.00000000000E+00  0.00000000000E+00  0.49615065316E+02  0.49615065316E+02  0.00000000000E+00 0. -1.
          1   -1    0    0  501    0  0.00000000000E+00 -0.00000000000E+00 -0.42814755612E+02  0.42814755612E+02  0.00000000000E+00 0.  1.
         23    2    1    2    0    0  0.00000000000E+00  0.00000000000E+00  0.68003097034E+01  0.92429820928E+02  0.92179322979E+02 0.  0.
        -13    1    3    3    0    0  0.28806423134E+02 -0.28984243328E+02  0.24773814628E+02  0.47787427911E+02  0.00000000000E+00 0. -1.
         13    1    3    3    0    0 -0.28806423134E+02  0.28984243328E+02 -0.17973504925E+02  0.44642393018E+02  0.00000000000E+00 0.  1.
<mgrwt>
<rscale>  0 0.92179323E+02</rscale>
<asrwt>0</asrwt>
<pdfrwt beam="2">  1        1 0.65868855E-02 0.92179323E+02</pdfrwt>
<pdfrwt beam="1">  1       -1 0.76330870E-02 0.92179323E+02</pdfrwt>
<totfact> 0.88819907E+04</totfact>
</mgrwt>
</event>
<event>
 5    1  0.1256986E+001  0.9065725E+02  0.7546771E-02  0.1301268E+00
          1   -1    0    0  501    0  0.00000000000E+00  0.00000000000E+00  0.14403660481E+03  0.14403660481E+03  0.00000000000E+00 0. -1.
         -1   -1    0    0    0  501 -0.00000000000E+00 -0.00000000000E+00 -0.14265012868E+02  0.14265012868E+02  0.00000000000E+00 0.  1.
         23    2    1    2    0    0  0.00000000000E+00  0.00000000000E+00  0.12977159194E+03  0.15830161768E+03  0.90657245072E+02 0.  0.
        -13    1    3    3    0    0  0.18362317051E+02 -0.26029272322E+02  0.85743540681E+01  0.32988138062E+02  0.00000000000E+00 0.  1.
         13    1    3    3    0    0 -0.18362317051E+02  0.26029272322E+02  0.12119723787E+03  0.12531347962E+03  0.00000000000E+00 0. -1.
<mgrwt>
<rscale>  0 0.90657245E+02</rscale>
<asrwt>0</asrwt>
<pdfrwt beam="1">  1        1 0.22159477E-01 0.90657245E+02</pdfrwt>
<pdfrwt beam="2">  1       -1 0.21946175E-02 0.90657245E+02</pdfrwt>
<totfact> 0.11303284E+05</totfact>
</mgrwt>
</event>
<event>
 5    1  0.1256986E+001  0.9962199E+02  0.7546771E-02  0.1281093E+00
          1   -1    0    0  501    0  0.00000000000E+00  0.00000000000E+00  0.45657612589E+02  0.45657612589E+02  0.00000000000E+00 0. -1.
         -1   -1    0    0    0  501 -0.00000000000E+00 -0.00000000000E+00 -0.54342203030E+02  0.54342203030E+02  0.00000000000E+00 0.  1.
         23    2    1    2    0    0  0.00000000000E+00  0.00000000000E+00 -0.86845904408E+01  0.99999815619E+02  0.99621990608E+02 0.  0.
        -11    1    3    3    0    0  0.26022578102E+02  0.20492824458E+02 -0.41685603200E+02  0.53243027144E+02  0.00000000000E+00 0.  1.
         11    1    3    3    0    0 -0.26022578102E+02 -0.20492824458E+02  0.33001012759E+02  0.46756788475E+02  0.00000000000E+00 0. -1.
<mgrwt>
<rscale>  0 0.99621991E+02</rscale>
<asrwt>0</asrwt>
<pdfrwt beam="1">  1        1 0.70242480E-02 0.99621991E+02</pdfrwt>
<pdfrwt beam="2">  1       -1 0.83603390E-02 0.99621991E+02</pdfrwt>
<totfact> 0.71987462E+04</totfact>
</mgrwt>
</event>
<event>
 5    1  0.1256986E+001  0.8926627E+02  0.7546771E-02  0.1304638E+00
         -2   -1    0    0    0  501 -0.00000000000E+00  0.00000000000E+00  0.51761489052E+03  0.51761489052E+03  0.00000000000E+00 0.  1.
          2   -1    0    0  501    0  0.00000000000E+00 -0.00000000000E+00 -0.38486465645E+01  0.38486465645E+01  0.00000000000E+00 0. -1.
         23    2    1    2    0    0  0.00000000000E+00  0.00000000000E+00  0.51376624395E+03  0.52146353708E+03  0.89266270677E+02 0.  0.
        -11    1    3    3    0    0  0.25721880300E+02 -0.36459318464E+02  0.26333476580E+03  0.26708818002E+03  0.00000000000E+00 0. -1.
         11    1    3    3    0    0 -0.25721880300E+02  0.36459318464E+02  0.25043147815E+03  0.25437535706E+03  0.00000000000E+00 0.  1.
<mgrwt>
<rscale>  0 0.89266271E+02</rscale>
<asrwt>0</asrwt>
<pdfrwt beam="2">  1        2 0.59209988E-03 0.89266271E+02</pdfrwt>
<pdfrwt beam="1">  1       -2 0.79633005E-01 0.89266271E+02</pdfrwt>
<totfact> 0.37320212E+04</totfact>
</mgrwt>
</event>
<event>
 5    1  0.1256986E+001  0.9085760E+02  0.7546771E-02  0.1300788E+00
         -2   -1    0    0    0  501 -0.00000000000E+00  0.00000000000E+00  0.14938021530E+03  0.14938021530E+03  0.00000000000E+00 0.  1.
          2   -1    0    0  501    0  0.00000000000E+00 -0.00000000000E+00 -0.13815591218E+02  0.13815591218E+02  0.00000000000E+00 0. -1.
         23    2    1    2    0    0  0.00000000000E+00  0.00000000000E+00  0.13556462408E+03  0.16319580651E+03  0.90857602668E+02 0.  0.
        -13    1    3    3    0    0  0.36357071375E+02 -0.20779604647E+02  0.99414685651E+02  0.10787450269E+03  0.00000000000E+00 0.  1.
         13    1    3    3    0    0 -0.36357071375E+02  0.20779604647E+02  0.36149938427E+02  0.55321303822E+02  0.00000000000E+00 0. -1.
<mgrwt>
<rscale>  0 0.90857603E+02</rscale>
<asrwt>0</asrwt>
<pdfrwt beam="2">  1        2 0.21254757E-02 0.90857603E+02</pdfrwt>
<pdfrwt beam="1">  1       -2 0.22981570E-01 0.90857603E+02</pdfrwt>
<totfact> 0.70585673E+04</totfact>
</mgrwt>
</event>
<event>
 5    1  0.1256986E+001  0.9175826E+02  0.7546771E-02  0.1298649E+00
          2   -1    0    0  501    0  0.00000000000E+00  0.00000000000E+00  0.14123410445E+03  0.14123410445E+03  0.00000000000E+00 0. -1.
         -2   -1    0    0    0  501 -0.00000000000E+00 -0.00000000000E+00 -0.14903584846E+02  0.14903584846E+02  0.00000000000E+00 0.  1.
         23    2    1    2    0    0  0.00000000000E+00  0.00000000000E+00  0.12633051960E+03  0.15613768930E+03  0.91758257587E+02 0.  0.
        -11    1    3    3    0    0 -0.10123934243E+02 -0.28223098249E+02  0.12225478759E+03  0.12587799811E+03  0.00000000000E+00 0. -1.
         11    1    3    3    0    0  0.10123934243E+02  0.28223098249E+02  0.40757320144E+01  0.30259691188E+02  0.00000000000E+00 0.  1.
<mgrwt>
<rscale>  0 0.91758258E+02</rscale>
<asrwt>0</asrwt>
<pdfrwt beam="1">  1        2 0.21728323E-01 0.91758258E+02</pdfrwt>
<pdfrwt beam="2">  1       -2 0.22928593E-02 0.91758258E+02</pdfrwt>
<totfact> 0.13464478E+05</totfact>
</mgrwt>
</event>
<event>
 5    1  0.1256986E+001  0.9291105E+02  0.7546771E-02  0.1295951E+00
         -1   -1    0    0    0  501 -0.00000000000E+00  0.00000000000E+00  0.23043062317E+02  0.23043062317E+02  0.00000000000E+00 0.  1.
          1   -1    0    0  501    0  0.00000000000E+00 -0.00000000000E+00 -0.93655768928E+02  0.93655768928E+02  0.00000000000E+00 0. -1.
         23    2    1    2    0    0  0.00000000000E+00  0.00000000000E+00 -0.70612706611E+02  0.11669883124E+03  0.92911048207E+02 0.  0.
        -11    1    3    3    0    0  0.43183433503E+02 -0.98599866404E+01 -0.52894660840E+02  0.68991835829E+02  0.00000000000E+00 0. -1.
         11    1    3    3    0    0 -0.43183433503E+02  0.98599866404E+01 -0.17718045771E+02  0.47706995416E+02  0.00000000000E+00 0.  1.
<mgrwt>
<rscale>  0 0.92911048E+02</rscale>
<asrwt>0</asrwt>
<pdfrwt beam="2">  1        1 0.14408580E-01 0.92911048E+02</pdfrwt>
<pdfrwt beam="1">  1       -1 0.35450865E-02 0.92911048E+02</pdfrwt>
<totfact> 0.98134594E+04</totfact>
</mgrwt>
</event>
<event>
 5    1  0.1256986E+001  0.9208100E+02  0.7546771E-02  0.1297889E+00
          2   -1    0    0  501    0  0.00000000000E+00  0.00000000000E+00  0.66274760707E+01  0.66274760707E+01  0.00000000000E+00 0. -1.
         -2   -1    0    0    0  501 -0.00000000000E+00 -0.00000000000E+00 -0.31983938220E+03  0.31983938220E+03  0.00000000000E+00 0.  1.
         23    2    1    2    0    0  0.00000000000E+00  0.00000000000E+00 -0.31321190613E+03  0.32646685827E+03  0.92081004600E+02 0.  0.
        -13    1    3    3    0    0  0.94997194865E+01 -0.44338770299E+02 -0.18487098510E+03  0.19035086644E+03  0.00000000000E+00 0.  1.
         13    1    3    3    0    0 -0.94997194865E+01  0.44338770299E+02 -0.12834092103E+03  0.13611599184E+03  0.00000000000E+00 0. -1.
<mgrwt>
<rscale>  0 0.92081005E+02</rscale>
<asrwt>0</asrwt>
<pdfrwt beam="1">  1        2 0.10196119E-02 0.92081005E+02</pdfrwt>
<pdfrwt beam="2">  1       -2 0.49206047E-01 0.92081005E+02</pdfrwt>
<totfact> 0.47924079E+04</totfact>
</mgrwt>
</event>
<event>
 5    1  0.1256986E+001  0.9115404E+02  0.7546771E-02  0.1300081E+00
         -1   -1    0    0    0  501 -0.00000000000E+00  0.00000000000E+00  0.28583432290E+02  0.28583432290E+02  0.00000000000E+00 0.  1.
          1   -1    0    0  501    0  0.00000000000E+00 -0.00000000000E+00 -0.72673728083E+02  0.72673728083E+02  0.00000000000E+00 0. -1.
         23    2    1    2    0    0  0.00000000000E+00  0.00000000000E+00 -0.44090295793E+02  0.10125716037E+03  0.91154036354E+02 0.  0.
        -11    1    3    3    0    0 -0.31435029848E+02 -0.13970519815E+02  0.11167318252E+02  0.36166911983E+02  0.00000000000E+00 0.  1.
         11    1    3    3    0    0  0.31435029848E+02  0.13970519815E+02 -0.55257614046E+02  0.65090248390E+02  0.00000000000E+00 0. -1.
<mgrwt>
<rscale>  0 0.91154036E+02</rscale>
<asrwt>0</asrwt>
<pdfrwt beam="2">  1        1 0.11180573E-01 0.91154036E+02</pdfrwt>
<pdfrwt beam="1">  1       -1 0.43974512E-02 0.91154036E+02</pdfrwt>
<totfact> 0.99309657E+04</totfact>
</mgrwt>
</event>
<event>
 5    1  0.1256986E+001  0.9021691E+02  0.7546771E-02  0.1302327E+00
          2   -1    0    0  501    0  0.00000000000E+00  0.00000000000E+00  0.17698980671E+03  0.17698980671E+03  0.00000000000E+00 0. -1.
         -2   -1    0    0    0  501 -0.00000000000E+00 -0.00000000000E+00 -0.11496554238E+02  0.11496554238E+02  0.00000000000E+00 0.  1.
         23    2    1    2    0    0  0.00000000000E+00  0.00000000000E+00  0.16549325247E+03  0.18848636095E+03  0.90216914432E+02 0.  0.
        -13    1    3    3    0    0 -0.21798110346E+02 -0.39477747722E+02  0.84960384129E+02  0.96186886066E+02  0.00000000000E+00 0.  1.
         13    1    3    3    0    0  0.21798110346E+02  0.39477747722E+02  0.80532868345E+02  0.92299474883E+02  0.00000000000E+00 0. -1.
<mgrwt>
<rscale>  0 0.90216914E+02</rscale>
<asrwt>0</asrwt>
<pdfrwt beam="1">  1        2 0.27229199E-01 0.90216914E+02</pdfrwt>
<pdfrwt beam="2">  1       -2 0.17687008E-02 0.90216914E+02</pdfrwt>
<totfact> 0.15234695E+05</totfact>
</mgrwt>
</event>
<event>
 5    1  0.1256986E+001  0.8874047E+02  0.7546771E-02  0.1305931E+00
          3   -1    0    0  501    0  0.00000000000E+00  0.00000000000E+00  0.12563329847E+02  0.12563329847E+02  0.00000000000E+00 0. -1.
         -3   -1    0    0    0  501 -0.00000000000E+00 -0.00000000000E+00 -0.15670349818E+03  0.15670349818E+03  0.00000000000E+00 0.  1.
         23    2    1    2    0    0  0.00000000000E+00  0.00000000000E+00 -0.14414016833E+03  0.16926682803E+03  0.88740469592E+02 0.  0.
        -13    1    3    3    0    0  0.35632238441E+02 -0.21387498460E+01 -0.21803171170E+02  0.41828327008E+02  0.00000000000E+00 0. -1.
         13    1    3    3    0    0 -0.35632238441E+02  0.21387498460E+01 -0.12233699716E+03  0.12743850102E+03  0.00000000000E+00 0.  1.
<mgrwt>
<rscale>  0 0.88740470E+02</rscale>
<asrwt>0</asrwt>
<pdfrwt beam="1">  1        3 0.19328199E-02 0.88740470E+02</pdfrwt>
<pdfrwt beam="2">  1       -3 0.24108231E-01 0.88740470E+02</pdfrwt>
<totfact> 0.32453771E+04</totfact>
</mgrwt>
</event>
<event>
 5    1  0.1256986E+001  0.8936558E+02  0.7546771E-02  0.1304395E+00
         -1   -1    0    0    0  501 -0.00000000000E+00  0.00000000000E+00  0.58091298034E+01  0.58091298034E+01  0.00000000000E+00 0.  1.
          1   -1    0    0  501    0  0.00000000000E+00 -0.00000000000E+00 -0.34369201735E+03  0.34369201735E+03  0.00000000000E+00 0. -1.
         23    2    1    2    0    0  0.00000000000E+00  0.00000000000E+00 -0.33788288754E+03  0.34950114715E+03  0.89365575949E+02 0.  0.
        -11    1    3    3    0    0 -0.43143633234E+02 -0.43308731583E+01 -0.21113983133E+03  0.21554618514E+03  0.00000000000E+00 0.  1.
         11    1    3    3    0    0  0.43143633234E+02  0.43308731583E+01 -0.12674305621E+03  0.13395496201E+03  0.00000000000E+00 0. -1.
<mgrwt>
<rscale>  0 0.89365576E+02</rscale>
<asrwt>0</asrwt>
<pdfrwt beam="2">  1        1 0.52875677E-01 0.89365576E+02</pdfrwt>
<pdfrwt beam="1">  1       -1 0.89371258E-03 0.89365576E+02</pdfrwt>
<totfact> 0.13859514E+05</totfact>
</mgrwt>
</event>
<event>
 5    1  0.1256986E+001  0.9156586E+02  0.7546771E-02  0.1299103E+00
         -1   -1    0    0    0  501 -0.00000000000E+00  0.00000000000E+00  0.55472582601E+02  0.55472582601E+02  0.00000000000E+00 0.  1.
          1   -1    0    0  501    0  0.00000000000E+00 -0.00000000000E+00 -0.37785814327E+02  0.37785814327E+02  0.00000000000E+00 0. -1.
         23    2    1    2    0    0  0.00000000000E+00  0.00000000000E+00  0.17686768274E+02  0.93258396929E+02  0.91565860591E+02 0.  0.
        -11    1    3    3    0    0 -0.39996150364E+02  0.18082823869E+02 -0.44124213797E+01  0.44115190416E+02  0.00000000000E+00 0.  1.
         11    1    3    3    0    0  0.39996150364E+02 -0.18082823869E+02  0.22099189654E+02  0.49143206513E+02  0.00000000000E+00 0. -1.
<mgrwt>
<rscale>  0 0.91565861E+02</rscale>
<asrwt>0</asrwt>
<pdfrwt beam="2">  1        1 0.58132022E-02 0.91565861E+02</pdfrwt>
<pdfrwt beam="1">  1       -1 0.85342434E-02 0.91565861E+02</pdfrwt>
<totfact> 0.88800298E+04</totfact>
</mgrwt>
</event>
<event>
 5    1  0.1256986E+001  0.8988209E+02  0.7546771E-02  0.1303137E+00
          3   -1    0    0  501    0  0.00000000000E+00  0.00000000000E+00  0.13323746887E+02  0.13323746887E+02  0.00000000000E+00 0. -1.
         -3   -1    0    0    0  501 -0.00000000000E+00 -0.00000000000E+00 -0.15158630965E+03  0.15158630965E+03  0.00000000000E+00 0.  1.
         23    2    1    2    0    0  0.00000000000E+00  0.00000000000E+00 -0.13826256276E+03  0.16491005653E+03  0.89882092126E+02 0.  0.
        -11    1    3    3    0    0  0.29318688512E+02 -0.33170314353E+02 -0.54938145402E+02  0.70555333396E+02  0.00000000000E+00 0. -1.
         11    1    3    3    0    0 -0.29318688512E+02  0.33170314353E+02 -0.83324417359E+02  0.94354723139E+02  0.00000000000E+00 0.  1.
<mgrwt>
<rscale>  0 0.89882092E+02</rscale>
<asrwt>0</asrwt>
<pdfrwt beam="1">  1        3 0.20498072E-02 0.89882092E+02</pdfrwt>
<pdfrwt beam="2">  1       -3 0.23320971E-01 0.89882092E+02</pdfrwt>
<totfact> 0.31616902E+04</totfact>
</mgrwt>
</event>
<event>
 5    1  0.1256986E+001  0.8914459E+02  0.7546771E-02  0.1304937E+00
          4   -1    0    0  501    0  0.00000000000E+00  0.00000000000E+00  0.41649428242E+02  0.41649428242E+02  0.00000000000E+00 0. -1.
         -4   -1    0    0    0  501 -0.00000000000E+00 -0.00000000000E+00 -0.47700282836E+02  0.47700282836E+02  0.00000000000E+00 0.  1.
         23    2    1    2    0    0  0.00000000000E+00  0.00000000000E+00 -0.60508545938E+01  0.89349711079E+02  0.89144590574E+02 0.  0.
        -13    1    3    3    0    0  0.27425544636E+02  0.26977324268E+02 -0.25588399853E+02  0.46202843313E+02  0.00000000000E+00 0.  1.
         13    1    3    3    0    0 -0.27425544636E+02 -0.26977324268E+02  0.19537545259E+02  0.43146867765E+02  0.00000000000E+00 0. -1.
<mgrwt>
<rscale>  0 0.89144591E+02</rscale>
<asrwt>0</asrwt>
<pdfrwt beam="1">  1        4 0.64076044E-02 0.89144591E+02</pdfrwt>
<pdfrwt beam="2">  1       -4 0.73385050E-02 0.89144591E+02</pdfrwt>
<totfact> 0.28841716E+04</totfact>
</mgrwt>
</event>
<event>
 5    1  0.1256986E+001  0.8826718E+02  0.7546771E-02  0.1307103E+00
          1   -1    0    0  501    0  0.00000000000E+00  0.00000000000E+00  0.10740637352E+03  0.10740637352E+03  0.00000000000E+00 0. -1.
         -1   -1    0    0    0  501 -0.00000000000E+00 -0.00000000000E+00 -0.18134621568E+02  0.18134621568E+02  0.00000000000E+00 0.  1.
         23    2    1    2    0    0  0.00000000000E+00  0.00000000000E+00  0.89271751950E+02  0.12554099509E+03  0.88267183885E+02 0.  0.
        -13    1    3    3    0    0  0.24388053064E+02  0.24303460176E+02  0.83905817918E+02  0.90695212604E+02  0.00000000000E+00 0. -1.
         13    1    3    3    0    0 -0.24388053064E+02 -0.24303460176E+02  0.53659340317E+01  0.34845782482E+02  0.00000000000E+00 0.  1.
<mgrwt>
<rscale>  0 0.88267184E+02</rscale>
<asrwt>0</asrwt>
<pdfrwt beam="1">  1        1 0.16524057E-01 0.88267184E+02</pdfrwt>
<pdfrwt beam="2">  1       -1 0.27899418E-02 0.88267184E+02</pdfrwt>
<totfact> 0.11543206E+05</totfact>
</mgrwt>
</event>
<event>
 5    1  0.1256986E+001  0.8829466E+02  0.7546771E-02  0.1307035E+00
          1   -1    0    0  501    0  0.00000000000E+00  0.00000000000E+00  0.11518502879E+02  0.11518502879E+02  0.00000000000E+00 0. -1.
         -1   -1    0    0    0  501 -0.00000000000E+00 -0.00000000000E+00 -0.16920486920E+03  0.16920486920E+03  0.00000000000E+00 0.  1.
         23    2    1    2    0    0  0.00000000000E+00  0.00000000000E+00 -0.15768636632E+03  0.18072337208E+03  0.88294660610E+02 0.  0.
        -11    1    3    3    0    0 -0.29788976585E+02 -0.14259988779E+01 -0.14546933685E+03  0.14849493110E+03  0.00000000000E+00 0.  1.
         11    1    3    3    0    0  0.29788976585E+02  0.14259988779E+01 -0.12217029470E+02  0.32228440978E+02  0.00000000000E+00 0. -1.
<mgrwt>
<rscale>  0 0.88294661E+02</rscale>
<asrwt>0</asrwt>
<pdfrwt beam="1">  1        1 0.17720774E-02 0.88294661E+02</pdfrwt>
<pdfrwt beam="2">  1       -1 0.26031518E-01 0.88294661E+02</pdfrwt>
<totfact> 0.78939478E+04</totfact>
</mgrwt>
</event>
<event>
 5    1  0.1256986E+001  0.9095989E+02  0.7546771E-02  0.1300544E+00
          1   -1    0    0  501    0  0.00000000000E+00  0.00000000000E+00  0.24074018067E+03  0.24074018067E+03  0.00000000000E+00 0. -1.
         -1   -1    0    0    0  501 -0.00000000000E+00 -0.00000000000E+00 -0.85919412167E+01  0.85919412167E+01  0.00000000000E+00 0.  1.
         23    2    1    2    0    0  0.00000000000E+00  0.00000000000E+00  0.23214823945E+03  0.24933212189E+03  0.90959891838E+02 0.  0.
        -13    1    3    3    0    0  0.40161833003E+01  0.33282070691E+02  0.31827563187E+02  0.46225747546E+02  0.00000000000E+00 0.  1.
         13    1    3    3    0    0 -0.40161833003E+01 -0.33282070691E+02  0.20032067627E+03  0.20310637434E+03  0.00000000000E+00 0. -1.
<mgrwt>
<rscale>  0 0.90959892E+02</rscale>
<asrwt>0</asrwt>
<pdfrwt beam="1">  1        1 0.37036946E-01 0.90959892E+02</pdfrwt>
<pdfrwt beam="2">  1       -1 0.13218373E-02 0.90959892E+02</pdfrwt>
<totfact> 0.12354790E+05</totfact>
</mgrwt>
</event>
<event>
 5    1  0.1256986E+001  0.8450013E+02  0.7546771E-02  0.1316745E+00
         -2   -1    0    0    0  501 -0.00000000000E+00  0.00000000000E+00  0.40779162936E+02  0.40779162936E+02  0.00000000000E+00 0.  1.
          2   -1    0    0  501    0  0.00000000000E+00 -0.00000000000E+00 -0.43774020571E+02  0.43774020571E+02  0.00000000000E+00 0. -1.
         23    2    1    2    0    0  0.00000000000E+00  0.00000000000E+00 -0.29948576350E+01  0.84553183507E+02  0.84500128218E+02 0.  0.
        -11    1    3    3    0    0  0.87748893940E+01 -0.17052205498E+02 -0.39167998708E+02  0.43610876155E+02  0.00000000000E+00 0. -1.
         11    1    3    3    0    0 -0.87748893940E+01  0.17052205498E+02  0.36173141073E+02  0.40942307352E+02  0.00000000000E+00 0.  1.
<mgrwt>
<rscale>  0 0.84500128E+02</rscale>
<asrwt>0</asrwt>
<pdfrwt beam="2">  1        2 0.67344647E-02 0.84500128E+02</pdfrwt>
<pdfrwt beam="1">  1       -2 0.62737174E-02 0.84500128E+02</pdfrwt>
<totfact> 0.12130352E+05</totfact>
</mgrwt>
</event>
<event>
 5    1  0.1256986E+001  0.8954748E+02  0.7546771E-02  0.1303951E+00
          2   -1    0    0  501    0  0.00000000000E+00  0.00000000000E+00  0.67140116087E+02  0.67140116087E+02  0.00000000000E+00 0. -1.
         -2   -1    0    0    0  501 -0.00000000000E+00 -0.00000000000E+00 -0.29858270016E+02  0.29858270016E+02  0.00000000000E+00 0.  1.
         23    2    1    2    0    0  0.00000000000E+00  0.00000000000E+00  0.37281846072E+02  0.96998386103E+02  0.89547478245E+02 0.  0.
        -13    1    3    3    0    0 -0.44598686497E+02 -0.16441020338E+01  0.14744118745E+02  0.47001435578E+02  0.00000000000E+00 0. -1.
         13    1    3    3    0    0  0.44598686497E+02  0.16441020338E+01  0.22537727326E+02  0.49996950525E+02  0.00000000000E+00 0.  1.
<mgrwt>
<rscale>  0 0.89547478E+02</rscale>
<asrwt>0</asrwt>
<pdfrwt beam="1">  1        2 0.10329249E-01 0.89547478E+02</pdfrwt>
<pdfrwt beam="2">  1       -2 0.45935800E-02 0.89547478E+02</pdfrwt>
<totfact> 0.11501145E+05</totfact>
</mgrwt>
</event>
<event>
 5    1  0.1256986E+001  0.9126830E+02  0.7546771E-02  0.1299809E+00
          2   -1    0    0  501    0  0.00000000000E+00  0.00000000000E+00  0.23912074828E+03  0.23912074828E+03  0.00000000000E+00 0. -1.
         -2   -1    0    0    0  501 -0.00000000000E+00 -0.00000000000E+00 -0.87088871632E+01  0.87088871632E+01  0.00000000000E+00 0.  1.
         23    2    1    2    0    0  0.00000000000E+00  0.00000000000E+00  0.23041186112E+03  0.24782963544E+03  0.91268299319E+02 0.  0.
        -13    1    3    3    0    0  0.19447752295E+02  0.32347188776E+02  0.45556142491E+02  0.59160103192E+02  0.00000000000E+00 0.  1.
         13    1    3    3    0    0 -0.19447752295E+02 -0.32347188776E+02  0.18485571862E+03  0.18866953225E+03  0.00000000000E+00 0. -1.
<mgrwt>
<rscale>  0 0.91268299E+02</rscale>
<asrwt>0</asrwt>
<pdfrwt beam="1">  1        2 0.36787802E-01 0.91268299E+02</pdfrwt>
<pdfrwt beam="2">  1       -2 0.13398290E-02 0.91268299E+02</pdfrwt>
<totfact> 0.16467957E+05</totfact>
</mgrwt>
</event>
<event>
 5    1  0.1256986E+001  0.8981991E+02  0.7546771E-02  0.1303288E+00
          1   -1    0    0  501    0  0.00000000000E+00  0.00000000000E+00  0.16530722469E+03  0.16530722469E+03  0.00000000000E+00 0. -1.
         -1   -1    0    0    0  501 -0.00000000000E+00 -0.00000000000E+00 -0.12200944259E+02  0.12200944259E+02  0.00000000000E+00 0.  1.
         23    2    1    2    0    0  0.00000000000E+00  0.00000000000E+00  0.15310628043E+03  0.17750816895E+03  0.89819913918E+02 0.  0.
        -11    1    3    3    0    0  0.28415245736E+02  0.78563032392E+01  0.96000543709E+01  0.31004979192E+02  0.00000000000E+00 0.  1.
         11    1    3    3    0    0 -0.28415245736E+02 -0.78563032392E+01  0.14350622606E+03  0.14650318976E+03  0.00000000000E+00 0. -1.
<mgrwt>
<rscale>  0 0.89819914E+02</rscale>
<asrwt>0</asrwt>
<pdfrwt beam="1">  1        1 0.25431879E-01 0.89819914E+02</pdfrwt>
<pdfrwt beam="2">  1       -1 0.18770685E-02 0.89819914E+02</pdfrwt>
<totfact> 0.11886884E+05</totfact>
</mgrwt>
</event>
<event>
 5    1  0.1256986E+001  0.7302845E+02  0.7546771E-02  0.1350087E+00
         -3   -1    0    0    0  501 -0.00000000000E+00  0.00000000000E+00  0.12177261450E+03  0.12177261450E+03  0.00000000000E+00 0.  1.
          3   -1    0    0  501    0  0.00000000000E+00 -0.00000000000E+00 -0.10949001352E+02  0.10949001352E+02  0.00000000000E+00 0. -1.
         23    2    1    2    0    0  0.00000000000E+00  0.00000000000E+00  0.11082361314E+03  0.13272161585E+03  0.73028447080E+02 0.  0.
        -13    1    3    3    0    0  0.34074084052E+02  0.13121334341E+02  0.55912504465E+02  0.66778894678E+02  0.00000000000E+00 0. -1.
         13    1    3    3    0    0 -0.34074084052E+02 -0.13121334341E+02  0.54911108679E+02  0.65942721169E+02  0.00000000000E+00 0.  1.
<mgrwt>
<rscale>  0 0.73028447E+02</rscale>
<asrwt>0</asrwt>
<pdfrwt beam="2">  1        3 0.16844618E-02 0.73028447E+02</pdfrwt>
<pdfrwt beam="1">  1       -3 0.18734247E-01 0.73028447E+02</pdfrwt>
<totfact> 0.58648196E+04</totfact>
</mgrwt>
</event>
<event>
 5    1  0.1256986E+001  0.9184220E+02  0.7546771E-02  0.1298451E+00
          2   -1    0    0  501    0  0.00000000000E+00  0.00000000000E+00  0.13100275725E+03  0.13100275725E+03  0.00000000000E+00 0. -1.
         -2   -1    0    0    0  501 -0.00000000000E+00 -0.00000000000E+00 -0.16096969603E+02  0.16096969603E+02  0.00000000000E+00 0.  1.
         23    2    1    2    0    0  0.00000000000E+00  0.00000000000E+00  0.11490578765E+03  0.14709972686E+03  0.91842199482E+02 0.  0.
        -13    1    3    3    0    0 -0.15498508644E+01  0.26267986635E+02 -0.28243076924E+01  0.26464804430E+02  0.00000000000E+00 0.  1.
         13    1    3    3    0    0  0.15498508644E+01 -0.26267986635E+02  0.11773009534E+03  0.12063492243E+03  0.00000000000E+00 0. -1.
<mgrwt>
<rscale>  0 0.91842199E+02</rscale>
<asrwt>0</asrwt>
<pdfrwt beam="1">  1        2 0.20154270E-01 0.91842199E+02</pdfrwt>
<pdfrwt beam="2">  1       -2 0.24764569E-02 0.91842199E+02</pdfrwt>
<totfact> 0.13099169E+05</totfact>
</mgrwt>
</event>
<event>
 5    1  0.1256986E+001  0.8875958E+02  0.7546771E-02  0.1305884E+00
          3   -1    0    0  501    0  0.00000000000E+00  0.00000000000E+00  0.18768452049E+03  0.18768452049E+03  0.00000000000E+00 0. -1.
         -3   -1    0    0    0  501 -0.00000000000E+00 -0.00000000000E+00 -0.10494023645E+02  0.10494023645E+02  0.00000000000E+00 0.  1.
         23    2    1    2    0    0  0.00000000000E+00  0.00000000000E+00  0.17719049684E+03  0.19817854413E+03  0.88759580795E+02 0.  0.
        -13    1    3    3    0    0  0.18714732626E+02  0.22007573035E+02  0.13374498482E+02  0.31834756129E+02  0.00000000000E+00 0.  1.
         13    1    3    3    0    0 -0.18714732626E+02 -0.22007573035E+02  0.16381599836E+03  0.16634378801E+03  0.00000000000E+00 0. -1.
<mgrwt>
<rscale>  0 0.88759581E+02</rscale>
<asrwt>0</asrwt>
<pdfrwt beam="1">  1        3 0.28874539E-01 0.88759581E+02</pdfrwt>
<pdfrwt beam="2">  1       -3 0.16144653E-02 0.88759581E+02</pdfrwt>
<totfact> 0.30736413E+04</totfact>
</mgrwt>
</event>
<event>
 5    1  0.1256986E+001  0.9149480E+02  0.7546771E-02  0.1299272E+00
          1   -1    0    0  501    0  0.00000000000E+00  0.00000000000E+00  0.48157652768E+02  0.48157652768E+02  0.00000000000E+00 0. -1.
         -1   -1    0    0    0  501 -0.00000000000E+00 -0.00000000000E+00 -0.43457776053E+02  0.43457776053E+02  0.00000000000E+00 0.  1.
         23    2    1    2    0    0  0.00000000000E+00  0.00000000000E+00  0.46998767144E+01  0.91615428821E+02  0.91494797431E+02 0.  0.
        -13    1    3    3    0    0 -0.82586462613E+01 -0.30657472946E+02 -0.30628855410E+02  0.44115900413E+02  0.00000000000E+00 0.  1.
         13    1    3    3    0    0  0.82586462613E+01  0.30657472946E+02  0.35328732124E+02  0.47499528408E+02  0.00000000000E+00 0. -1.
<mgrwt>
<rscale>  0 0.91494797E+02</rscale>
<asrwt>0</asrwt>
<pdfrwt beam="1">  1        1 0.74088696E-02 0.91494797E+02</pdfrwt>
<pdfrwt beam="2">  1       -1 0.66858117E-02 0.91494797E+02</pdfrwt>
<totfact> 0.92331502E+04</totfact>
</mgrwt>
</event>
<event>
 5    1  0.1256986E+001  0.9142344E+02  0.7546771E-02  0.1299441E+00
          2   -1    0    0  501    0  0.00000000000E+00  0.00000000000E+00  0.80049940659E+01  0.80049940659E+01  0.00000000000E+00 0. -1.
         -2   -1    0    0    0  501 -0.00000000000E+00 -0.00000000000E+00 -0.26103222077E+03  0.26103222077E+03  0.00000000000E+00 0.  1.
         23    2    1    2    0    0  0.00000000000E+00  0.00000000000E+00 -0.25302722671E+03  0.26903721484E+03  0.91423440721E+02 0.  0.
        -13    1    3    3    0    0 -0.32155500185E+02  0.31809235817E+02 -0.14597985247E+03  0.15282644079E+03  0.00000000000E+00 0.  1.
         13    1    3    3    0    0  0.32155500185E+02 -0.31809235817E+02 -0.10704737423E+03  0.11621077405E+03  0.00000000000E+00 0. -1.
<mgrwt>
<rscale>  0 0.91423441E+02</rscale>
<asrwt>0</asrwt>
<pdfrwt beam="1">  1        2 0.12315375E-02 0.91423441E+02</pdfrwt>
<pdfrwt beam="2">  1       -2 0.40158804E-01 0.91423441E+02</pdfrwt>
<totfact> 0.54581911E+04</totfact>
</mgrwt>
</event>
<event>
 5    1  0.1256986E+001  0.9306160E+02  0.7546771E-02  0.1295602E+00
         -1   -1    0    0    0  501 -0.00000000000E+00  0.00000000000E+00  0.11199449245E+02  0.11199449245E+02  0.00000000000E+00 0. -1.
          1   -1    0    0  501    0  0.00000000000E+00 -0.00000000000E+00 -0.19332336705E+03  0.19332336705E+03  0.00000000000E+00 0.  1.
         23    2    1    2    0    0  0.00000000000E+00  0.00000000000E+00 -0.18212391780E+03  0.20452281629E+03  0.93061597605E+02 0.  0.
        -11    1    3    3    0    0 -0.32103953183E+02  0.19051436554E+01 -0.17157888751E+02  0.36451152639E+02  0.00000000000E+00 0. -1.
         11    1    3    3    0    0  0.32103953183E+02 -0.19051436554E+01 -0.16496602905E+03  0.16807166366E+03  0.00000000000E+00 0.  1.
<mgrwt>
<rscale>  0 0.93061598E+02</rscale>
<asrwt>0</asrwt>
<pdfrwt beam="2">  1        1 0.29742054E-01 0.93061598E+02</pdfrwt>
<pdfrwt beam="1">  1       -1 0.17229923E-02 0.93061598E+02</pdfrwt>
<totfact> 0.11133414E+05</totfact>
</mgrwt>
</event>
<event>
 5    1  0.1256986E+001  0.9123910E+02  0.7546771E-02  0.1299878E+00
          2   -1    0    0  501    0  0.00000000000E+00  0.00000000000E+00  0.15295054152E+03  0.15295054152E+03  0.00000000000E+00 0.  1.
         -2   -1    0    0    0  501 -0.00000000000E+00 -0.00000000000E+00 -0.13606643690E+02  0.13606643690E+02  0.00000000000E+00 0. -1.
         23    2    1    2    0    0  0.00000000000E+00  0.00000000000E+00  0.13934389783E+03  0.16655718521E+03  0.91239103911E+02 0.  0.
        -13    1    3    3    0    0 -0.25060279576E+02 -0.41617706031E+01  0.49997343057E+00  0.25408422234E+02  0.00000000000E+00 0. -1.
         13    1    3    3    0    0  0.25060279576E+02  0.41617706031E+01  0.13884392440E+03  0.14114876297E+03  0.00000000000E+00 0.  1.
<mgrwt>
<rscale>  0 0.91239104E+02</rscale>
<asrwt>0</asrwt>
<pdfrwt beam="1">  1        2 0.23530851E-01 0.91239104E+02</pdfrwt>
<pdfrwt beam="2">  1       -2 0.20933299E-02 0.91239104E+02</pdfrwt>
<totfact> 0.14048063E+05</totfact>
</mgrwt>
</event>
<event>
 5    1  0.1256986E+001  0.9229296E+02  0.7546771E-02  0.1297392E+00
          1   -1    0    0  501    0  0.00000000000E+00  0.00000000000E+00  0.23513132006E+02  0.23513132006E+02  0.00000000000E+00 0. -1.
         -1   -1    0    0    0  501 -0.00000000000E+00 -0.00000000000E+00 -0.90566302962E+02  0.90566302962E+02  0.00000000000E+00 0.  1.
         23    2    1    2    0    0  0.00000000000E+00  0.00000000000E+00 -0.67053170956E+02  0.11407943497E+03  0.92292956109E+02 0.  0.
        -13    1    3    3    0    0 -0.87202862958E+01 -0.37921659674E+02 -0.28633360370E+01  0.39016590814E+02  0.00000000000E+00 0. -1.
         13    1    3    3    0    0  0.87202862958E+01  0.37921659674E+02 -0.64189834919E+02  0.75062844154E+02  0.00000000000E+00 0.  1.
<mgrwt>
<rscale>  0 0.92292956E+02</rscale>
<asrwt>0</asrwt>
<pdfrwt beam="1">  1        1 0.36174049E-02 0.92292956E+02</pdfrwt>
<pdfrwt beam="2">  1       -1 0.13933278E-01 0.92292956E+02</pdfrwt>
<totfact> 0.80297454E+04</totfact>
</mgrwt>
</event>
<event>
 5    1  0.1256986E+001  0.9034512E+02  0.7546771E-02  0.1302018E+00
         -1   -1    0    0    0  501 -0.00000000000E+00  0.00000000000E+00  0.35248022121E+02  0.35248022121E+02  0.00000000000E+00 0.  1.
          1   -1    0    0  501    0  0.00000000000E+00 -0.00000000000E+00 -0.57891474138E+02  0.57891474138E+02  0.00000000000E+00 0. -1.
         23    2    1    2    0    0  0.00000000000E+00  0.00000000000E+00 -0.22643452016E+02  0.93139496259E+02  0.90345115220E+02 0.  0.
        -11    1    3    3    0    0  0.13388008557E+02  0.27381018281E+02  0.23050184952E+02  0.38213478794E+02  0.00000000000E+00 0.  1.
         11    1    3    3    0    0 -0.13388008557E+02 -0.27381018281E+02 -0.45693636968E+02  0.54926017465E+02  0.00000000000E+00 0. -1.
<mgrwt>
<rscale>  0 0.90345115E+02</rscale>
<asrwt>0</asrwt>
<pdfrwt beam="2">  1        1 0.89063806E-02 0.90345115E+02</pdfrwt>
<pdfrwt beam="1">  1       -1 0.54227727E-02 0.90345115E+02</pdfrwt>
<totfact> 0.98319536E+04</totfact>
</mgrwt>
</event>
<event>
 5    1  0.1256986E+001  0.9169707E+02  0.7546771E-02  0.1298793E+00
         -1   -1    0    0    0  501 -0.00000000000E+00  0.00000000000E+00  0.45293831045E+02  0.45293831045E+02  0.00000000000E+00 0.  1.
          1   -1    0    0  501    0  0.00000000000E+00 -0.00000000000E+00 -0.46410035724E+02  0.46410035724E+02  0.00000000000E+00 0. -1.
         23    2    1    2    0    0  0.00000000000E+00  0.00000000000E+00 -0.11162046796E+01  0.91703866769E+02  0.91697073386E+02 0.  0.
        -13    1    3    3    0    0  0.77875243666E+01  0.19175798479E+02 -0.41472397397E+02  0.46349935587E+02  0.00000000000E+00 0. -1.
         13    1    3    3    0    0 -0.77875243666E+01 -0.19175798479E+02  0.40356192717E+02  0.45353931182E+02  0.00000000000E+00 0.  1.
<mgrwt>
<rscale>  0 0.91697073E+02</rscale>
<asrwt>0</asrwt>
<pdfrwt beam="2">  1        1 0.71400055E-02 0.91697073E+02</pdfrwt>
<pdfrwt beam="1">  1       -1 0.69682817E-02 0.91697073E+02</pdfrwt>
<totfact> 0.91250953E+04</totfact>
</mgrwt>
</event>
<event>
 5    1  0.1256986E+001  0.9487167E+02  0.7546771E-02  0.1291465E+00
         -2   -1    0    0    0  501 -0.00000000000E+00  0.00000000000E+00  0.23496803915E+03  0.23496803915E+03  0.00000000000E+00 0.  1.
          2   -1    0    0  501    0  0.00000000000E+00 -0.00000000000E+00 -0.95764440335E+01  0.95764440335E+01  0.00000000000E+00 0. -1.
         23    2    1    2    0    0  0.00000000000E+00  0.00000000000E+00  0.22539159512E+03  0.24454448318E+03  0.94871666509E+02 0.  0.
        -11    1    3    3    0    0  0.38517494728E+02 -0.74589721312E+01  0.18142370401E+03  0.18561733228E+03  0.00000000000E+00 0.  1.
         11    1    3    3    0    0 -0.38517494728E+02  0.74589721312E+01  0.43967891105E+02  0.58927150904E+02  0.00000000000E+00 0. -1.
<mgrwt>
<rscale>  0 0.94871667E+02</rscale>
<asrwt>0</asrwt>
<pdfrwt beam="2">  1        2 0.14732993E-02 0.94871667E+02</pdfrwt>
<pdfrwt beam="1">  1       -2 0.36148925E-01 0.94871667E+02</pdfrwt>
<totfact> 0.52293392E+04</totfact>
</mgrwt>
</event>
<event>
 5    1  0.1256986E+001  0.9993148E+02  0.7546771E-02  0.1280440E+00
         -1   -1    0    0    0  501 -0.00000000000E+00  0.00000000000E+00  0.20999571006E+02  0.20999571006E+02  0.00000000000E+00 0.  1.
          1   -1    0    0  501    0  0.00000000000E+00 -0.00000000000E+00 -0.11888696888E+03  0.11888696888E+03  0.00000000000E+00 0. -1.
         23    2    1    2    0    0  0.00000000000E+00  0.00000000000E+00 -0.97887397877E+02  0.13988653989E+03  0.99931483423E+02 0.  0.
        -13    1    3    3    0    0  0.10114553432E+02  0.30244858072E+02  0.48998865030E+01  0.32265531433E+02  0.00000000000E+00 0.  1.
         13    1    3    3    0    0 -0.10114553432E+02 -0.30244858072E+02 -0.10278728438E+03  0.10762100846E+03  0.00000000000E+00 0. -1.
<mgrwt>
<rscale>  0 0.99931483E+02</rscale>
<asrwt>0</asrwt>
<pdfrwt beam="2">  1        1 0.18290303E-01 0.99931483E+02</pdfrwt>
<pdfrwt beam="1">  1       -1 0.32307033E-02 0.99931483E+02</pdfrwt>
<totfact> 0.83743569E+04</totfact>
</mgrwt>
</event>
<event>
 5    1  0.1256986E+001  0.9003367E+02  0.7546771E-02  0.1302770E+00
          4   -1    0    0  501    0  0.00000000000E+00  0.00000000000E+00  0.19612526681E+03  0.19612526681E+03  0.00000000000E+00 0. -1.
         -4   -1    0    0    0  501 -0.00000000000E+00 -0.00000000000E+00 -0.10332761141E+02  0.10332761141E+02  0.00000000000E+00 0.  1.
         23    2    1    2    0    0  0.00000000000E+00  0.00000000000E+00  0.18579250567E+03  0.20645802795E+03  0.90033672270E+02 0.  0.
        -13    1    3    3    0    0  0.18405299009E+02  0.40561030546E+02  0.77935808860E+02  0.89766043319E+02  0.00000000000E+00 0. -1.
         13    1    3    3    0    0 -0.18405299009E+02 -0.40561030546E+02  0.10785669681E+03  0.11669198463E+03  0.00000000000E+00 0.  1.
<mgrwt>
<rscale>  0 0.90033672E+02</rscale>
<asrwt>0</asrwt>
<pdfrwt beam="1">  1        4 0.30173115E-01 0.90033672E+02</pdfrwt>
<pdfrwt beam="2">  1       -4 0.15896557E-02 0.90033672E+02</pdfrwt>
<totfact> 0.21842799E+04</totfact>
</mgrwt>
</event>
<event>
 5    1  0.1256986E+001  0.9216401E+02  0.7546771E-02  0.1297694E+00
         -2   -1    0    0    0  501 -0.00000000000E+00  0.00000000000E+00  0.17014824582E+02  0.17014824582E+02  0.00000000000E+00 0.  1.
          2   -1    0    0  501    0  0.00000000000E+00 -0.00000000000E+00 -0.12480594430E+03  0.12480594430E+03  0.00000000000E+00 0. -1.
         23    2    1    2    0    0  0.00000000000E+00  0.00000000000E+00 -0.10779111972E+03  0.14182076888E+03  0.92164011393E+02 0.  0.
        -11    1    3    3    0    0  0.22395998225E+02 -0.24229806029E+02 -0.10339780938E+03  0.10853465447E+03  0.00000000000E+00 0. -1.
         11    1    3    3    0    0 -0.22395998225E+02  0.24229806029E+02 -0.43933103365E+01  0.33286114408E+02  0.00000000000E+00 0.  1.
<mgrwt>
<rscale>  0 0.92164011E+02</rscale>
<asrwt>0</asrwt>
<pdfrwt beam="2">  1        2 0.19200915E-01 0.92164011E+02</pdfrwt>
<pdfrwt beam="1">  1       -2 0.26176653E-02 0.92164011E+02</pdfrwt>
<totfact> 0.12770238E+05</totfact>
</mgrwt>
</event>
<event>
 5    1  0.1256986E+001  0.9253830E+02  0.7546771E-02  0.1296819E+00
         -1   -1    0    0    0  501 -0.00000000000E+00  0.00000000000E+00  0.22722810290E+03  0.22722810290E+03  0.00000000000E+00 0.  1.
          1   -1    0    0  501    0  0.00000000000E+00 -0.00000000000E+00 -0.94215204158E+01  0.94215204158E+01  0.00000000000E+00 0. -1.
         23    2    1    2    0    0  0.00000000000E+00  0.00000000000E+00  0.21780658248E+03  0.23664962331E+03  0.92538299325E+02 0.  0.
        -11    1    3    3    0    0 -0.35440951917E+02  0.41615700177E+01  0.33583752957E+02  0.49002532593E+02  0.00000000000E+00 0. -1.
         11    1    3    3    0    0  0.35440951917E+02 -0.41615700177E+01  0.18422282953E+03  0.18764709072E+03  0.00000000000E+00 0.  1.
<mgrwt>
<rscale>  0 0.92538299E+02</rscale>
<asrwt>0</asrwt>
<pdfrwt beam="2">  1        1 0.14494648E-02 0.92538299E+02</pdfrwt>
<pdfrwt beam="1">  1       -1 0.34958166E-01 0.92538299E+02</pdfrwt>
<totfact> 0.64279022E+04</totfact>
</mgrwt>
</event>
<event>
 5    1  0.1256986E+001  0.9118863E+02  0.7546771E-02  0.1299999E+00
         -2   -1    0    0    0  501 -0.00000000000E+00  0.00000000000E+00  0.10325421229E+02  0.10325421229E+02  0.00000000000E+00 0.  1.
          2   -1    0    0  501    0  0.00000000000E+00 -0.00000000000E+00 -0.20133235504E+03  0.20133235504E+03  0.00000000000E+00 0. -1.
         23    2    1    2    0    0  0.00000000000E+00  0.00000000000E+00 -0.19100693381E+03  0.21165777627E+03  0.91188625887E+02 0.  0.
        -13    1    3    3    0    0  0.28128100782E+02  0.24918721301E+02 -0.35571076237E+02  0.51743929011E+02  0.00000000000E+00 0.  1.
         13    1    3    3    0    0 -0.28128100782E+02 -0.24918721301E+02 -0.15543585758E+03  0.15991384726E+03  0.00000000000E+00 0. -1.
<mgrwt>
<rscale>  0 0.91188626E+02</rscale>
<asrwt>0</asrwt>
<pdfrwt beam="2">  1        2 0.30974203E-01 0.91188626E+02</pdfrwt>
<pdfrwt beam="1">  1       -2 0.15885266E-02 0.91188626E+02</pdfrwt>
<totfact> 0.15499766E+05</totfact>
</mgrwt>
</event>
<event>
 5    1  0.1256986E+001  0.9138049E+02  0.7546771E-02  0.1299543E+00
         -1   -1    0    0    0  501 -0.00000000000E+00  0.00000000000E+00  0.10421459226E+03  0.10421459226E+03  0.00000000000E+00 0.  1.
          1   -1    0    0  501    0  0.00000000000E+00 -0.00000000000E+00 -0.20031731259E+02  0.20031731259E+02  0.00000000000E+00 0. -1.
         23    2    1    2    0    0  0.00000000000E+00  0.00000000000E+00  0.84182861006E+02  0.12424632352E+03  0.91380494758E+02 0.  0.
        -13    1    3    3    0    0 -0.24383042379E+02 -0.34229860663E+02  0.66466239100E+02  0.78638267127E+02  0.00000000000E+00 0.  1.
         13    1    3    3    0    0  0.24383042379E+02  0.34229860663E+02  0.17716621906E+02  0.45608056398E+02  0.00000000000E+00 0. -1.
<mgrwt>
<rscale>  0 0.91380495E+02</rscale>
<asrwt>0</asrwt>
<pdfrwt beam="2">  1        1 0.30818049E-02 0.91380495E+02</pdfrwt>
<pdfrwt beam="1">  1       -1 0.16033014E-01 0.91380495E+02</pdfrwt>
<totfact> 0.80278554E+04</totfact>
</mgrwt>
</event>
<event>
 5    1  0.1256986E+001  0.9519524E+02  0.7546771E-02  0.1290737E+00
         -1   -1    0    0    0  501 -0.00000000000E+00  0.00000000000E+00  0.33302851955E+02  0.33302851955E+02  0.00000000000E+00 0. -1.
          1   -1    0    0  501    0  0.00000000000E+00 -0.00000000000E+00 -0.68028207768E+02  0.68028207768E+02  0.00000000000E+00 0.  1.
         23    2    1    2    0    0  0.00000000000E+00  0.00000000000E+00 -0.34725355813E+02  0.10133105972E+03  0.95195237950E+02 0.  0.
        -11    1    3    3    0    0  0.23335954317E+02  0.87764599399E+01 -0.60521579607E+02  0.65455745439E+02  0.00000000000E+00 0.  1.
         11    1    3    3    0    0 -0.23335954317E+02 -0.87764599399E+01  0.25796223794E+02  0.35875314284E+02  0.00000000000E+00 0. -1.
<mgrwt>
<rscale>  0 0.95195238E+02</rscale>
<asrwt>0</asrwt>
<pdfrwt beam="2">  1        1 0.10465878E-01 0.95195238E+02</pdfrwt>
<pdfrwt beam="1">  1       -1 0.51235158E-02 0.95195238E+02</pdfrwt>
<totfact> 0.87165350E+04</totfact>
</mgrwt>
</event>
<event>
 5    1  0.1256986E+001  0.9150350E+02  0.7546771E-02  0.1299251E+00
          1   -1    0    0  501    0  0.00000000000E+00  0.00000000000E+00  0.29395276941E+02  0.29395276941E+02  0.00000000000E+00 0. -1.
         -1   -1    0    0    0  501 -0.00000000000E+00 -0.00000000000E+00 -0.71209486918E+02  0.71209486918E+02  0.00000000000E+00 0.  1.
         23    2    1    2    0    0  0.00000000000E+00  0.00000000000E+00 -0.41814209978E+02  0.10060476386E+03  0.91503499141E+02 0.  0.
        -11    1    3    3    0    0  0.22726046013E+02  0.53653220070E+01 -0.64164573028E+02  0.68281419724E+02  0.00000000000E+00 0.  1.
         11    1    3    3    0    0 -0.22726046013E+02 -0.53653220070E+01  0.22350363050E+02  0.32323344136E+02  0.00000000000E+00 0. -1.
<mgrwt>
<rscale>  0 0.91503499E+02</rscale>
<asrwt>0</asrwt>
<pdfrwt beam="1">  1        1 0.45223503E-02 0.91503499E+02</pdfrwt>
<pdfrwt beam="2">  1       -1 0.10955306E-01 0.91503499E+02</pdfrwt>
<totfact> 0.85514670E+04</totfact>
</mgrwt>
</event>
<event>
 5    1  0.1256986E+001  0.6719732E+02  0.7546771E-02  0.1369892E+00
          1   -1    0    0  501    0  0.00000000000E+00  0.00000000000E+00  0.12565388924E+03  0.12565388924E+03  0.00000000000E+00 0.  1.
         -1   -1    0    0    0  501 -0.00000000000E+00 -0.00000000000E+00 -0.89839625511E+01  0.89839625511E+01  0.00000000000E+00 0. -1.
         23    2    1    2    0    0  0.00000000000E+00  0.00000000000E+00  0.11666992669E+03  0.13463785179E+03  0.67197316475E+02 0.  0.
        -13    1    3    3    0    0 -0.19821083831E+02 -0.94019077231E+01  0.10932298895E+03  0.11150240870E+03  0.00000000000E+00 0.  1.
         13    1    3    3    0    0  0.19821083831E+02  0.94019077231E+01  0.73469377459E+01  0.23135443097E+02  0.00000000000E+00 0. -1.
<mgrwt>
<rscale>  0 0.67197316E+02</rscale>
<asrwt>0</asrwt>
<pdfrwt beam="1">  1        1 0.19331366E-01 0.67197316E+02</pdfrwt>
<pdfrwt beam="2">  1       -1 0.13821482E-02 0.67197316E+02</pdfrwt>
<totfact> 0.24442875E+05</totfact>
</mgrwt>
</event>
<event>
 5    1  0.1256986E+001  0.8953608E+02  0.7546771E-02  0.1303979E+00
         -2   -1    0    0    0  501 -0.00000000000E+00  0.00000000000E+00  0.31656115204E+02  0.31656115204E+02  0.00000000000E+00 0.  1.
          2   -1    0    0  501    0  0.00000000000E+00 -0.00000000000E+00 -0.63310914935E+02  0.63310914935E+02  0.00000000000E+00 0. -1.
         23    2    1    2    0    0  0.00000000000E+00  0.00000000000E+00 -0.31654799731E+02  0.94967030139E+02  0.89536084723E+02 0.  0.
        -11    1    3    3    0    0  0.53136733183E+01 -0.34258410288E+02 -0.45870461348E+02  0.57497591462E+02  0.00000000000E+00 0. -1.
         11    1    3    3    0    0 -0.53136733183E+01  0.34258410288E+02  0.14215661617E+02  0.37469438678E+02  0.00000000000E+00 0.  1.
<mgrwt>
<rscale>  0 0.89536085E+02</rscale>
<asrwt>0</asrwt>
<pdfrwt beam="2">  1        2 0.97401407E-02 0.89536085E+02</pdfrwt>
<pdfrwt beam="1">  1       -2 0.48701716E-02 0.89536085E+02</pdfrwt>
<totfact> 0.11324189E+05</totfact>
</mgrwt>
</event>
<event>
 5    1  0.1256986E+001  0.9225888E+02  0.7546771E-02  0.1297472E+00
          2   -1    0    0  501    0  0.00000000000E+00  0.00000000000E+00  0.30562638867E+02  0.30562638867E+02  0.00000000000E+00 0. -1.
         -2   -1    0    0    0  501 -0.00000000000E+00 -0.00000000000E+00 -0.69625042430E+02  0.69625042430E+02  0.00000000000E+00 0.  1.
         23    2    1    2    0    0  0.00000000000E+00  0.00000000000E+00 -0.39062403564E+02  0.10018768130E+03  0.92258875516E+02 0.  0.
        -13    1    3    3    0    0  0.26587073853E+02 -0.37646148086E+02 -0.21653672013E+02  0.50921375408E+02  0.00000000000E+00 0.  1.
         13    1    3    3    0    0 -0.26587073853E+02  0.37646148086E+02 -0.17408731551E+02  0.49266305889E+02  0.00000000000E+00 0. -1.
<mgrwt>
<rscale>  0 0.92258876E+02</rscale>
<asrwt>0</asrwt>
<pdfrwt beam="1">  1        2 0.47019445E-02 0.92258876E+02</pdfrwt>
<pdfrwt beam="2">  1       -2 0.10711545E-01 0.92258876E+02</pdfrwt>
<totfact> 0.85844288E+04</totfact>
</mgrwt>
</event>
<event>
 5    1  0.1256986E+001  0.9077076E+02  0.7546771E-02  0.1300996E+00
         -2   -1    0    0    0  501 -0.00000000000E+00  0.00000000000E+00  0.52972592421E+01  0.52972592421E+01  0.00000000000E+00 0.  1.
          2   -1    0    0  501    0  0.00000000000E+00 -0.00000000000E+00 -0.38884874681E+03  0.38884874681E+03  0.00000000000E+00 0. -1.
         23    2    1    2    0    0  0.00000000000E+00  0.00000000000E+00 -0.38355148757E+03  0.39414600605E+03  0.90770757798E+02 0.  0.
        -13    1    3    3    0    0  0.97449724646E+01  0.44269207527E+02 -0.20158702715E+03  0.20662056224E+03  0.00000000000E+00 0.  1.
         13    1    3    3    0    0 -0.97449724646E+01 -0.44269207527E+02 -0.18196446041E+03  0.18752544381E+03  0.00000000000E+00 0. -1.
<mgrwt>
<rscale>  0 0.90770758E+02</rscale>
<asrwt>0</asrwt>
<pdfrwt beam="2">  1        2 0.59822883E-01 0.90770758E+02</pdfrwt>
<pdfrwt beam="1">  1       -2 0.81496298E-03 0.90770758E+02</pdfrwt>
<totfact> 0.19996522E+05</totfact>
</mgrwt>
</event>
<event>
 5    1  0.1256986E+001  0.8959844E+02  0.7546771E-02  0.1303827E+00
         -1   -1    0    0    0  501 -0.00000000000E+00  0.00000000000E+00  0.51680688568E+02  0.51680688568E+02  0.00000000000E+00 0.  1.
          1   -1    0    0  501    0  0.00000000000E+00 -0.00000000000E+00 -0.38834047872E+02  0.38834047872E+02  0.00000000000E+00 0. -1.
         23    2    1    2    0    0  0.00000000000E+00  0.00000000000E+00  0.12846640696E+02  0.90514736440E+02  0.89598444940E+02 0.  0.
        -13    1    3    3    0    0 -0.15901876168E+02 -0.36463563425E+02 -0.14391006873E+02  0.42303217397E+02  0.00000000000E+00 0. -1.
         13    1    3    3    0    0  0.15901876168E+02  0.36463563425E+02  0.27237647568E+02  0.48211519043E+02  0.00000000000E+00 0.  1.
<mgrwt>
<rscale>  0 0.89598445E+02</rscale>
<asrwt>0</asrwt>
<pdfrwt beam="2">  1        1 0.59744689E-02 0.89598445E+02</pdfrwt>
<pdfrwt beam="1">  1       -1 0.79508751E-02 0.89598445E+02</pdfrwt>
<totfact> 0.94816238E+04</totfact>
</mgrwt>
</event>
<event>
 5    1  0.1256986E+001  0.9794771E+02  0.7546771E-02  0.1284672E+00
         -2   -1    0    0    0  501 -0.00000000000E+00  0.00000000000E+00  0.37353655458E+02  0.37353655458E+02  0.00000000000E+00 0.  1.
          2   -1    0    0  501    0  0.00000000000E+00 -0.00000000000E+00 -0.64208931259E+02  0.64208931259E+02  0.00000000000E+00 0. -1.
         23    2    1    2    0    0  0.00000000000E+00  0.00000000000E+00 -0.26855275801E+02  0.10156258672E+03  0.97947706365E+02 0.  0.
        -13    1    3    3    0    0 -0.27462101494E+01  0.37611864683E+02  0.18970401531E+02  0.42214572950E+02  0.00000000000E+00 0.  1.
         13    1    3    3    0    0  0.27462101494E+01 -0.37611864683E+02 -0.45825677332E+02  0.59348013767E+02  0.00000000000E+00 0. -1.
<mgrwt>
<rscale>  0 0.97947706E+02</rscale>
<asrwt>0</asrwt>
<pdfrwt beam="2">  1        2 0.98782970E-02 0.97947706E+02</pdfrwt>
<pdfrwt beam="1">  1       -2 0.57467163E-02 0.97947706E+02</pdfrwt>
<totfact> 0.88204543E+04</totfact>
</mgrwt>
</event>
<event>
 5    1  0.1256986E+001  0.8687923E+02  0.7546771E-02  0.1310590E+00
         -1   -1    0    0    0  501 -0.00000000000E+00  0.00000000000E+00  0.55597049766E+02  0.55597049766E+02  0.00000000000E+00 0.  1.
          1   -1    0    0  501    0  0.00000000000E+00 -0.00000000000E+00 -0.33940652172E+02  0.33940652172E+02  0.00000000000E+00 0. -1.
         23    2    1    2    0    0  0.00000000000E+00  0.00000000000E+00  0.21656397595E+02  0.89537701938E+02  0.86879229460E+02 0.  0.
        -13    1    3    3    0    0 -0.37652134507E+02 -0.39834644827E+01 -0.11117739926E+02  0.39460807940E+02  0.00000000000E+00 0. -1.
         13    1    3    3    0    0  0.37652134507E+02  0.39834644827E+01  0.32774137521E+02  0.50076893998E+02  0.00000000000E+00 0.  1.
<mgrwt>
<rscale>  0 0.86879229E+02</rscale>
<asrwt>0</asrwt>
<pdfrwt beam="2">  1        1 0.52216388E-02 0.86879229E+02</pdfrwt>
<pdfrwt beam="1">  1       -1 0.85533922E-02 0.86879229E+02</pdfrwt>
<totfact> 0.10136721E+05</totfact>
</mgrwt>
</event>
<event>
 5    1  0.1256986E+001  0.9720830E+02  0.7546771E-02  0.1286278E+00
         -2   -1    0    0    0  501 -0.00000000000E+00  0.00000000000E+00  0.65896743849E+02  0.65896743849E+02  0.00000000000E+00 0. -1.
          2   -1    0    0  501    0  0.00000000000E+00 -0.00000000000E+00 -0.35849470086E+02  0.35849470086E+02  0.00000000000E+00 0.  1.
         23    2    1    2    0    0  0.00000000000E+00  0.00000000000E+00  0.30047273763E+02  0.10174621394E+03  0.97208298975E+02 0.  0.
        -11    1    3    3    0    0  0.14804422432E+02  0.45899718881E+02  0.21339238105E+02  0.52738204366E+02  0.00000000000E+00 0.  1.
         11    1    3    3    0    0 -0.14804422432E+02 -0.45899718881E+02  0.87080356576E+01  0.49008009569E+02  0.00000000000E+00 0. -1.
<mgrwt>
<rscale>  0 0.97208299E+02</rscale>
<asrwt>0</asrwt>
<pdfrwt beam="2">  1        2 0.55153031E-02 0.97208299E+02</pdfrwt>
<pdfrwt beam="1">  1       -2 0.10137961E-01 0.97208299E+02</pdfrwt>
<totfact> 0.76768468E+04</totfact>
</mgrwt>
</event>
<event>
 5    1  0.1256986E+001  0.8901381E+02  0.7546771E-02  0.1305258E+00
          2   -1    0    0  501    0  0.00000000000E+00  0.00000000000E+00  0.89997093811E+02  0.89997093811E+02  0.00000000000E+00 0. -1.
         -2   -1    0    0    0  501 -0.00000000000E+00 -0.00000000000E+00 -0.22010317631E+02  0.22010317631E+02  0.00000000000E+00 0.  1.
         23    2    1    2    0    0  0.00000000000E+00  0.00000000000E+00  0.67986776181E+02  0.11200741144E+03  0.89013810628E+02 0.  0.
        -11    1    3    3    0    0 -0.35599875780E+02  0.23872040613E+02  0.18912539889E+02  0.46849862792E+02  0.00000000000E+00 0.  1.
         11    1    3    3    0    0  0.35599875780E+02 -0.23872040613E+02  0.49074236292E+02  0.65157548651E+02  0.00000000000E+00 0. -1.
<mgrwt>
<rscale>  0 0.89013811E+02</rscale>
<asrwt>0</asrwt>
<pdfrwt beam="1">  1        2 0.13845707E-01 0.89013811E+02</pdfrwt>
<pdfrwt beam="2">  1       -2 0.33862028E-02 0.89013811E+02</pdfrwt>
<totfact> 0.12699299E+05</totfact>
</mgrwt>
</event>
<event>
 5    1  0.1256986E+001  0.8961167E+02  0.7546771E-02  0.1303795E+00
          3   -1    0    0  501    0  0.00000000000E+00  0.00000000000E+00  0.21029281189E+02  0.21029281189E+02  0.00000000000E+00 0. -1.
         -3   -1    0    0    0  501 -0.00000000000E+00 -0.00000000000E+00 -0.95465130282E+02  0.95465130282E+02  0.00000000000E+00 0.  1.
         23    2    1    2    0    0  0.00000000000E+00  0.00000000000E+00 -0.74435849092E+02  0.11649441147E+03  0.89611674875E+02 0.  0.
        -13    1    3    3    0    0  0.15438218852E+01 -0.22552593201E+02 -0.87508614748E+02  0.90381195507E+02  0.00000000000E+00 0.  1.
         13    1    3    3    0    0 -0.15438218852E+01  0.22552593201E+02  0.13072765656E+02  0.26113215964E+02  0.00000000000E+00 0. -1.
<mgrwt>
<rscale>  0 0.89611675E+02</rscale>
<asrwt>0</asrwt>
<pdfrwt beam="1">  1        3 0.32352741E-02 0.89611675E+02</pdfrwt>
<pdfrwt beam="2">  1       -3 0.14686943E-01 0.89611675E+02</pdfrwt>
<totfact> 0.35098591E+04</totfact>
</mgrwt>
</event>
<event>
 5    1  0.1256986E+001  0.9079283E+02  0.7546771E-02  0.1300943E+00
         -2   -1    0    0    0  501 -0.00000000000E+00  0.00000000000E+00  0.18719660537E+02  0.18719660537E+02  0.00000000000E+00 0.  1.
          2   -1    0    0  501    0  0.00000000000E+00 -0.00000000000E+00 -0.11008930592E+03  0.11008930592E+03  0.00000000000E+00 0. -1.
         23    2    1    2    0    0  0.00000000000E+00  0.00000000000E+00 -0.91369645378E+02  0.12880896645E+03  0.90792828692E+02 0.  0.
        -11    1    3    3    0    0  0.42949708193E+02 -0.12997530646E+02 -0.35935755745E+02  0.57489057896E+02  0.00000000000E+00 0. -1.
         11    1    3    3    0    0 -0.42949708193E+02  0.12997530646E+02 -0.55433889633E+02  0.71319908557E+02  0.00000000000E+00 0.  1.
<mgrwt>
<rscale>  0 0.90792829E+02</rscale>
<asrwt>0</asrwt>
<pdfrwt beam="2">  1        2 0.16936817E-01 0.90792829E+02</pdfrwt>
<pdfrwt beam="1">  1       -2 0.28799477E-02 0.90792829E+02</pdfrwt>
<totfact> 0.12784049E+05</totfact>
</mgrwt>
</event>
<event>
 5    1  0.1256986E+001  0.8788673E+02  0.7546771E-02  0.1308051E+00
         -1   -1    0    0    0  501 -0.00000000000E+00  0.00000000000E+00  0.18810259942E+02  0.18810259942E+02  0.00000000000E+00 0.  1.
          1   -1    0    0  501    0  0.00000000000E+00 -0.00000000000E+00 -0.10265777902E+03  0.10265777902E+03  0.00000000000E+00 0. -1.
         23    2    1    2    0    0  0.00000000000E+00  0.00000000000E+00 -0.83847519077E+02  0.12146803896E+03  0.87886734116E+02 0.  0.
        -13    1    3    3    0    0  0.28549457314E+02  0.27035054539E+02 -0.14803152085E+02  0.42013081278E+02  0.00000000000E+00 0.  1.
         13    1    3    3    0    0 -0.28549457314E+02 -0.27035054539E+02 -0.69044366992E+02  0.79454957682E+02  0.00000000000E+00 0. -1.
<mgrwt>
<rscale>  0 0.87886734E+02</rscale>
<asrwt>0</asrwt>
<pdfrwt beam="2">  1        1 0.15793505E-01 0.87886734E+02</pdfrwt>
<pdfrwt beam="1">  1       -1 0.28938861E-02 0.87886734E+02</pdfrwt>
<totfact> 0.11591950E+05</totfact>
</mgrwt>
</event>
<event>
 5    1  0.1256986E+001  0.9146536E+02  0.7546771E-02  0.1299341E+00
         -2   -1    0    0    0  501 -0.00000000000E+00  0.00000000000E+00  0.45630082125E+02  0.45630082125E+02  0.00000000000E+00 0.  1.
          2   -1    0    0  501    0  0.00000000000E+00 -0.00000000000E+00 -0.45835509741E+02  0.45835509741E+02  0.00000000000E+00 0. -1.
         23    2    1    2    0    0  0.00000000000E+00  0.00000000000E+00 -0.20542761553E+00  0.91465591866E+02  0.91465361175E+02 0.  0.
        -13    1    3    3    0    0  0.22113797152E+02 -0.39585323800E+02 -0.60575746594E+01  0.45746170283E+02  0.00000000000E+00 0.  1.
         13    1    3    3    0    0 -0.22113797152E+02  0.39585323800E+02  0.58521470439E+01  0.45719421583E+02  0.00000000000E+00 0. -1.
<mgrwt>
<rscale>  0 0.91465361E+02</rscale>
<asrwt>0</asrwt>
<pdfrwt beam="2">  1        2 0.70516169E-02 0.91465361E+02</pdfrwt>
<pdfrwt beam="1">  1       -2 0.70200127E-02 0.91465361E+02</pdfrwt>
<totfact> 0.97920476E+04</totfact>
</mgrwt>
</event>
<event>
 5    1  0.1256986E+001  0.9148892E+02  0.7546771E-02  0.1299286E+00
          3   -1    0    0  501    0  0.00000000000E+00  0.00000000000E+00  0.63409884725E+02  0.63409884725E+02  0.00000000000E+00 0. -1.
         -3   -1    0    0    0  501 -0.00000000000E+00 -0.00000000000E+00 -0.33000466651E+02  0.33000466651E+02  0.00000000000E+00 0.  1.
         23    2    1    2    0    0  0.00000000000E+00  0.00000000000E+00  0.30409418074E+02  0.96410351376E+02  0.91488923619E+02 0.  0.
        -11    1    3    3    0    0  0.94626327608E+01  0.66908981057E+01 -0.31427801752E+02  0.33496511150E+02  0.00000000000E+00 0.  1.
         11    1    3    3    0    0 -0.94626327608E+01 -0.66908981057E+01  0.61837219826E+02  0.62913840227E+02  0.00000000000E+00 0. -1.
<mgrwt>
<rscale>  0 0.91488924E+02</rscale>
<asrwt>0</asrwt>
<pdfrwt beam="1">  1        3 0.97553669E-02 0.91488924E+02</pdfrwt>
<pdfrwt beam="2">  1       -3 0.50769949E-02 0.91488924E+02</pdfrwt>
<totfact> 0.34615319E+04</totfact>
</mgrwt>
</event>
<event>
 5    1  0.1256986E+001  0.9314660E+02  0.7546771E-02  0.1295406E+00
         -2   -1    0    0    0  501 -0.00000000000E+00  0.00000000000E+00  0.32127766630E+02  0.32127766630E+02  0.00000000000E+00 0.  1.
          2   -1    0    0  501    0  0.00000000000E+00 -0.00000000000E+00 -0.67513947794E+02  0.67513947794E+02  0.00000000000E+00 0. -1.
         23    2    1    2    0    0  0.00000000000E+00  0.00000000000E+00 -0.35386181164E+02  0.99641714424E+02  0.93146601849E+02 0.  0.
        -11    1    3    3    0    0  0.27141901181E+02  0.11188969518E+02 -0.56369363596E+02  0.63556124731E+02  0.00000000000E+00 0. -1.
         11    1    3    3    0    0 -0.27141901181E+02 -0.11188969518E+02  0.20983182431E+02  0.36085589694E+02  0.00000000000E+00 0.  1.
<mgrwt>
<rscale>  0 0.93146602E+02</rscale>
<asrwt>0</asrwt>
<pdfrwt beam="2">  1        2 0.10386761E-01 0.93146602E+02</pdfrwt>
<pdfrwt beam="1">  1       -2 0.49427333E-02 0.93146602E+02</pdfrwt>
<totfact> 0.10313587E+05</totfact>
</mgrwt>
</event>
<event>
 5    1  0.1256986E+001  0.9351380E+02  0.7546771E-02  0.1294559E+00
         -1   -1    0    0    0  501 -0.00000000000E+00  0.00000000000E+00  0.14056441065E+02  0.14056441065E+02  0.00000000000E+00 0.  1.
          1   -1    0    0  501    0  0.00000000000E+00 -0.00000000000E+00 -0.15553067286E+03  0.15553067286E+03  0.00000000000E+00 0. -1.
         23    2    1    2    0    0  0.00000000000E+00  0.00000000000E+00 -0.14147423179E+03  0.16958711392E+03  0.93513800839E+02 0.  0.
        -13    1    3    3    0    0 -0.15103268732E+02  0.20915366189E+02 -0.14145532744E+03  0.14378863283E+03  0.00000000000E+00 0. -1.
         13    1    3    3    0    0  0.15103268732E+02 -0.20915366189E+02 -0.18904347354E-01  0.25798481090E+02  0.00000000000E+00 0.  1.
<mgrwt>
<rscale>  0 0.93513801E+02</rscale>
<asrwt>0</asrwt>
<pdfrwt beam="2">  1        1 0.23927794E-01 0.93513801E+02</pdfrwt>
<pdfrwt beam="1">  1       -1 0.21625296E-02 0.93513801E+02</pdfrwt>
<totfact> 0.10542380E+05</totfact>
</mgrwt>
</event>
<event>
 5    1  0.1256986E+001  0.9177894E+02  0.7546771E-02  0.1298600E+00
         -3   -1    0    0    0  501 -0.00000000000E+00  0.00000000000E+00  0.84873830388E+02  0.84873830388E+02  0.00000000000E+00 0.  1.
          3   -1    0    0  501    0  0.00000000000E+00 -0.00000000000E+00 -0.24811455502E+02  0.24811455502E+02  0.00000000000E+00 0. -1.
         23    2    1    2    0    0  0.00000000000E+00  0.00000000000E+00  0.60062374886E+02  0.10968528589E+03  0.91778935839E+02 0.  0.
        -11    1    3    3    0    0 -0.35308402268E+02  0.42010223019E+01  0.64699711863E+02  0.73826719921E+02  0.00000000000E+00 0.  1.
         11    1    3    3    0    0  0.35308402268E+02 -0.42010223019E+01 -0.46373369776E+01  0.35858565969E+02  0.00000000000E+00 0. -1.
<mgrwt>
<rscale>  0 0.91778936E+02</rscale>
<asrwt>0</asrwt>
<pdfrwt beam="2">  1        3 0.38171470E-02 0.91778936E+02</pdfrwt>
<pdfrwt beam="1">  1       -3 0.13057512E-01 0.91778936E+02</pdfrwt>
<totfact> 0.33365277E+04</totfact>
</mgrwt>
</event>
<event>
 5    1  0.1256986E+001  0.8874704E+02  0.7546771E-02  0.1305915E+00
          4   -1    0    0  501    0  0.00000000000E+00  0.00000000000E+00  0.13377452065E+03  0.13377452065E+03  0.00000000000E+00 0. -1.
         -4   -1    0    0    0  501 -0.00000000000E+00 -0.00000000000E+00 -0.14718866865E+02  0.14718866865E+02  0.00000000000E+00 0.  1.
         23    2    1    2    0    0  0.00000000000E+00  0.00000000000E+00  0.11905565378E+03  0.14849338751E+03  0.88747041852E+02 0.  0.
        -11    1    3    3    0    0 -0.44272707452E+02 -0.23289776797E+01  0.56391889333E+02  0.71732433004E+02  0.00000000000E+00 0.  1.
         11    1    3    3    0    0  0.44272707452E+02  0.23289776797E+01  0.62663764449E+02  0.76760954508E+02  0.00000000000E+00 0. -1.
<mgrwt>
<rscale>  0 0.88747042E+02</rscale>
<asrwt>0</asrwt>
<pdfrwt beam="1">  1        4 0.20580695E-01 0.88747042E+02</pdfrwt>
<pdfrwt beam="2">  1       -4 0.22644411E-02 0.88747042E+02</pdfrwt>
<totfact> 0.25533045E+04</totfact>
</mgrwt>
</event>
<event>
 5    1  0.1256986E+001  0.8868188E+02  0.7546771E-02  0.1306075E+00
         -2   -1    0    0    0  501 -0.00000000000E+00  0.00000000000E+00  0.41832987332E+02  0.41832987332E+02  0.00000000000E+00 0.  1.
          2   -1    0    0  501    0  0.00000000000E+00 -0.00000000000E+00 -0.46999244989E+02  0.46999244989E+02  0.00000000000E+00 0. -1.
         23    2    1    2    0    0  0.00000000000E+00  0.00000000000E+00 -0.51662576573E+01  0.88832232321E+02  0.88681876846E+02 0.  0.
        -13    1    3    3    0    0 -0.32920695692E+02  0.27513205100E+02 -0.13798994286E+02  0.45068402491E+02  0.00000000000E+00 0. -1.
         13    1    3    3    0    0  0.32920695692E+02 -0.27513205100E+02  0.86327366283E+01  0.43763829831E+02  0.00000000000E+00 0.  1.
<mgrwt>
<rscale>  0 0.88681877E+02</rscale>
<asrwt>0</asrwt>
<pdfrwt beam="2">  1        2 0.72306531E-02 0.88681877E+02</pdfrwt>
<pdfrwt beam="1">  1       -2 0.64358442E-02 0.88681877E+02</pdfrwt>
<totfact> 0.10765365E+05</totfact>
</mgrwt>
</event>
<event>
 5    1  0.1256986E+001  0.8583540E+02  0.7546771E-02  0.1313262E+00
          4   -1    0    0  501    0  0.00000000000E+00  0.00000000000E+00  0.23853257341E+02  0.23853257341E+02  0.00000000000E+00 0. -1.
         -4   -1    0    0    0  501 -0.00000000000E+00 -0.00000000000E+00 -0.77219174866E+02  0.77219174866E+02  0.00000000000E+00 0.  1.
         23    2    1    2    0    0  0.00000000000E+00  0.00000000000E+00 -0.53365917525E+02  0.10107243221E+03  0.85835397121E+02 0.  0.
        -13    1    3    3    0    0  0.22137402232E+01  0.42775188802E+02 -0.23499000493E+02  0.48855096428E+02  0.00000000000E+00 0. -1.
         13    1    3    3    0    0 -0.22137402232E+01 -0.42775188802E+02 -0.29866917032E+02  0.52217335779E+02  0.00000000000E+00 0.  1.
<mgrwt>
<rscale>  0 0.85835397E+02</rscale>
<asrwt>0</asrwt>
<pdfrwt beam="1">  1        4 0.36697319E-02 0.85835397E+02</pdfrwt>
<pdfrwt beam="2">  1       -4 0.11879873E-01 0.85835397E+02</pdfrwt>
<totfact> 0.31052333E+04</totfact>
</mgrwt>
</event>
<event>
 5    1  0.1256986E+001  0.9169501E+02  0.7546771E-02  0.1298798E+00
          3   -1    0    0  501    0  0.00000000000E+00  0.00000000000E+00  0.11483626656E+03  0.11483626656E+03  0.00000000000E+00 0. -1.
         -3   -1    0    0    0  501 -0.00000000000E+00 -0.00000000000E+00 -0.18304267713E+02  0.18304267713E+02  0.00000000000E+00 0.  1.
         23    2    1    2    0    0  0.00000000000E+00  0.00000000000E+00  0.96531998847E+02  0.13314053427E+03  0.91695011125E+02 0.  0.
        -13    1    3    3    0    0  0.14645080758E+02 -0.35524076614E+02  0.11950045076E+02  0.40239806002E+02  0.00000000000E+00 0.  1.
         13    1    3    3    0    0 -0.14645080758E+02  0.35524076614E+02  0.84581953771E+02  0.92900728272E+02  0.00000000000E+00 0. -1.
<mgrwt>
<rscale>  0 0.91695011E+02</rscale>
<asrwt>0</asrwt>
<pdfrwt beam="1">  1        3 0.17667118E-01 0.91695011E+02</pdfrwt>
<pdfrwt beam="2">  1       -3 0.28160413E-02 0.91695011E+02</pdfrwt>
<totfact> 0.31875797E+04</totfact>
</mgrwt>
</event>
<event>
 5    1  0.1256986E+001  0.1067855E+03  0.7546771E-02  0.1266641E+00
         -2   -1    0    0    0  501 -0.00000000000E+00  0.00000000000E+00  0.76583687587E+01  0.76583687587E+01  0.00000000000E+00 0.  1.
          2   -1    0    0  501    0  0.00000000000E+00 -0.00000000000E+00 -0.37224467098E+03  0.37224467098E+03  0.00000000000E+00 0. -1.
         23    2    1    2    0    0  0.00000000000E+00  0.00000000000E+00 -0.36458630222E+03  0.37990303974E+03  0.10678552259E+03 0.  0.
        -13    1    3    3    0    0 -0.51419494418E+02  0.44216566365E+01 -0.23097827078E+03  0.23667377764E+03  0.00000000000E+00 0.  1.
         13    1    3    3    0    0  0.51419494418E+02 -0.44216566365E+01 -0.13360803145E+03  0.14322926210E+03  0.00000000000E+00 0. -1.
<mgrwt>
<rscale>  0 0.10678552E+03</rscale>
<asrwt>0</asrwt>
<pdfrwt beam="2">  1        2 0.57268418E-01 0.10678552E+03</pdfrwt>
<pdfrwt beam="1">  1       -2 0.11782104E-02 0.10678552E+03</pdfrwt>
<totfact> 0.12733097E+05</totfact>
</mgrwt>
</event>
<event>
 5    1  0.1256986E+001  0.8886238E+02  0.7546771E-02  0.1305630E+00
          1   -1    0    0  501    0  0.00000000000E+00  0.00000000000E+00  0.37721587133E+03  0.37721587133E+03  0.00000000000E+00 0. -1.
         -1   -1    0    0    0  501 -0.00000000000E+00 -0.00000000000E+00 -0.52334238298E+01  0.52334238298E+01  0.00000000000E+00 0.  1.
         23    2    1    2    0    0  0.00000000000E+00  0.00000000000E+00  0.37198244750E+03  0.38244929516E+03  0.88862377415E+02 0.  0.
        -13    1    3    3    0    0 -0.29918459354E+02 -0.31832489463E+02  0.15110386036E+03  0.15729207930E+03  0.00000000000E+00 0.  1.
         13    1    3    3    0    0  0.29918459354E+02  0.31832489463E+02  0.22087858714E+03  0.22515721586E+03  0.00000000000E+00 0. -1.
<mgrwt>
<rscale>  0 0.88862377E+02</rscale>
<asrwt>0</asrwt>
<pdfrwt beam="1">  1        1 0.58033190E-01 0.88862377E+02</pdfrwt>
<pdfrwt beam="2">  1       -1 0.80514242E-03 0.88862377E+02</pdfrwt>
<totfact> 0.14299645E+05</totfact>
</mgrwt>
</event>
<event>
 5    1  0.1256986E+001  0.1164646E+03  0.7546771E-02  0.1249046E+00
         -1   -1    0    0    0  501 -0.00000000000E+00  0.00000000000E+00  0.22292377063E+02  0.22292377063E+02  0.00000000000E+00 0.  1.
          1   -1    0    0  501    0  0.00000000000E+00 -0.00000000000E+00 -0.15211486362E+03  0.15211486362E+03  0.00000000000E+00 0. -1.
         23    2    1    2    0    0  0.00000000000E+00  0.00000000000E+00 -0.12982248656E+03  0.17440724068E+03  0.11646461946E+03 0.  0.
        -11    1    3    3    0    0 -0.35652333387E+02  0.35208715526E+02 -0.20481292934E+02  0.54131560897E+02  0.00000000000E+00 0.  1.
         11    1    3    3    0    0  0.35652333387E+02 -0.35208715526E+02 -0.10934119362E+03  0.12027567979E+03  0.00000000000E+00 0. -1.
<mgrwt>
<rscale>  0 0.11646462E+03</rscale>
<asrwt>0</asrwt>
<pdfrwt beam="2">  1        1 0.23402286E-01 0.11646462E+03</pdfrwt>
<pdfrwt beam="1">  1       -1 0.34295966E-02 0.11646462E+03</pdfrwt>
<totfact> 0.57509526E+04</totfact>
</mgrwt>
</event>
<event>
 5    1  0.1256986E+001  0.8990144E+02  0.7546771E-02  0.1303091E+00
         -4   -1    0    0    0  501 -0.00000000000E+00  0.00000000000E+00  0.32595519548E+02  0.32595519548E+02  0.00000000000E+00 0.  1.
          4   -1    0    0  501    0  0.00000000000E+00 -0.00000000000E+00 -0.61989116088E+02  0.61989116088E+02  0.00000000000E+00 0. -1.
         23    2    1    2    0    0  0.00000000000E+00  0.00000000000E+00 -0.29393596540E+02  0.94584635635E+02  0.89901444820E+02 0.  0.
        -13    1    3    3    0    0 -0.14834022245E+02  0.36541366944E+02 -0.37390014730E+02  0.54344575770E+02  0.00000000000E+00 0. -1.
         13    1    3    3    0    0  0.14834022245E+02 -0.36541366944E+02  0.79964181898E+01  0.40240059866E+02  0.00000000000E+00 0.  1.
<mgrwt>
<rscale>  0 0.89901445E+02</rscale>
<asrwt>0</asrwt>
<pdfrwt beam="2">  1        4 0.95367869E-02 0.89901445E+02</pdfrwt>
<pdfrwt beam="1">  1       -4 0.50146954E-02 0.89901445E+02</pdfrwt>
<totfact> 0.27839159E+04</totfact>
</mgrwt>
</event>
<event>
 5    1  0.1256986E+001  0.9142777E+02  0.7546771E-02  0.1299431E+00
         -1   -1    0    0    0  501 -0.00000000000E+00  0.00000000000E+00  0.69006439854E+02  0.69006439854E+02  0.00000000000E+00 0.  1.
          1   -1    0    0  501    0  0.00000000000E+00 -0.00000000000E+00 -0.30283536928E+02  0.30283536928E+02  0.00000000000E+00 0. -1.
         23    2    1    2    0    0  0.00000000000E+00  0.00000000000E+00  0.38722902926E+02  0.99289976782E+02  0.91427765357E+02 0.  0.
        -13    1    3    3    0    0  0.38420735197E+02 -0.15919403681E+02  0.39971848361E+02  0.57683004152E+02  0.00000000000E+00 0. -1.
         13    1    3    3    0    0 -0.38420735197E+02  0.15919403681E+02 -0.12489454348E+01  0.41606972629E+02  0.00000000000E+00 0.  1.
<mgrwt>
<rscale>  0 0.91427765E+02</rscale>
<asrwt>0</asrwt>
<pdfrwt beam="2">  1        1 0.46590057E-02 0.91427765E+02</pdfrwt>
<pdfrwt beam="1">  1       -1 0.10616375E-01 0.91427765E+02</pdfrwt>
<totfact> 0.86133237E+04</totfact>
</mgrwt>
</event>
<event>
 5    1  0.1256986E+001  0.9092054E+02  0.7546771E-02  0.1300638E+00
          1   -1    0    0  501    0  0.00000000000E+00  0.00000000000E+00  0.11543510747E+03  0.11543510747E+03  0.00000000000E+00 0. -1.
         -1   -1    0    0    0  501 -0.00000000000E+00 -0.00000000000E+00 -0.17903012658E+02  0.17903012658E+02  0.00000000000E+00 0.  1.
         23    2    1    2    0    0  0.00000000000E+00  0.00000000000E+00  0.97532094815E+02  0.13333812013E+03  0.90920540921E+02 0.  0.
        -11    1    3    3    0    0  0.41984085162E+02  0.18696320059E+00  0.74333337260E+02  0.85370623696E+02  0.00000000000E+00 0.  1.
         11    1    3    3    0    0 -0.41984085162E+02 -0.18696320059E+00  0.23198757555E+02  0.47967496435E+02  0.00000000000E+00 0. -1.
<mgrwt>
<rscale>  0 0.90920541E+02</rscale>
<asrwt>0</asrwt>
<pdfrwt beam="1">  1        1 0.17759247E-01 0.90920541E+02</pdfrwt>
<pdfrwt beam="2">  1       -1 0.27543097E-02 0.90920541E+02</pdfrwt>
<totfact> 0.10783970E+05</totfact>
</mgrwt>
</event>
<event>
 5    1  0.1256986E+001  0.9042647E+02  0.7546771E-02  0.1301822E+00
         -1   -1    0    0    0  501 -0.00000000000E+00  0.00000000000E+00  0.17365640993E+03  0.17365640993E+03  0.00000000000E+00 0.  1.
          1   -1    0    0  501    0  0.00000000000E+00 -0.00000000000E+00 -0.11771732500E+02  0.11771732500E+02  0.00000000000E+00 0. -1.
         23    2    1    2    0    0  0.00000000000E+00  0.00000000000E+00  0.16188467743E+03  0.18542814243E+03  0.90426474101E+02 0.  0.
        -11    1    3    3    0    0  0.37748489560E+02  0.11522924092E+02  0.12617229693E+03  0.13220126609E+03  0.00000000000E+00 0.  1.
         11    1    3    3    0    0 -0.37748489560E+02 -0.11522924092E+02  0.35712380499E+02  0.53226876337E+02  0.00000000000E+00 0. -1.
<mgrwt>
<rscale>  0 0.90426474E+02</rscale>
<asrwt>0</asrwt>
<pdfrwt beam="2">  1        1 0.18110359E-02 0.90426474E+02</pdfrwt>
<pdfrwt beam="1">  1       -1 0.26716369E-01 0.90426474E+02</pdfrwt>
<totfact> 0.73709796E+04</totfact>
</mgrwt>
</event>
<event>
 5    1  0.1256986E+001  0.9486054E+02  0.7546771E-02  0.1291490E+00
         -1   -1    0    0    0  501 -0.00000000000E+00  0.00000000000E+00  0.45347108746E+01  0.45347108746E+01  0.00000000000E+00 0.  1.
          1   -1    0    0  501    0  0.00000000000E+00 -0.00000000000E+00 -0.49609127113E+03  0.49609127113E+03  0.00000000000E+00 0. -1.
         23    2    1    2    0    0  0.00000000000E+00  0.00000000000E+00 -0.49155656025E+03  0.50062598200E+03  0.94860539361E+02 0.  0.
        -11    1    3    3    0    0  0.35981984534E+02  0.30875760473E+02 -0.23907215183E+03  0.24372835201E+03  0.00000000000E+00 0.  1.
         11    1    3    3    0    0 -0.35981984534E+02 -0.30875760473E+02 -0.25248440843E+03  0.25689762999E+03  0.00000000000E+00 0. -1.
<mgrwt>
<rscale>  0 0.94860539E+02</rscale>
<asrwt>0</asrwt>
<pdfrwt beam="2">  1        1 0.76321691E-01 0.94860539E+02</pdfrwt>
<pdfrwt beam="1">  1       -1 0.69764822E-03 0.94860539E+02</pdfrwt>
<totfact> 0.12524097E+05</totfact>
</mgrwt>
</event>
<event>
 5    1  0.1256986E+001  0.9261135E+02  0.7546771E-02  0.1296648E+00
         -1   -1    0    0    0  501 -0.00000000000E+00  0.00000000000E+00  0.84613096442E+02  0.84613096442E+02  0.00000000000E+00 0.  1.
          1   -1    0    0  501    0  0.00000000000E+00 -0.00000000000E+00 -0.25341416078E+02  0.25341416078E+02  0.00000000000E+00 0. -1.
         23    2    1    2    0    0  0.00000000000E+00  0.00000000000E+00  0.59271680364E+02  0.10995451252E+03  0.92611353140E+02 0.  0.
        -13    1    3    3    0    0  0.19237820947E+02  0.41523383440E+02  0.21246418449E+02  0.50454885036E+02  0.00000000000E+00 0.  1.
         13    1    3    3    0    0 -0.19237820947E+02 -0.41523383440E+02  0.38025261915E+02  0.59499627484E+02  0.00000000000E+00 0. -1.
<mgrwt>
<rscale>  0 0.92611353E+02</rscale>
<asrwt>0</asrwt>
<pdfrwt beam="2">  1        1 0.38986794E-02 0.92611353E+02</pdfrwt>
<pdfrwt beam="1">  1       -1 0.13017399E-01 0.92611353E+02</pdfrwt>
<totfact> 0.80549963E+04</totfact>
</mgrwt>
</event>
<event>
 5    1  0.1256986E+001  0.8916204E+02  0.7546771E-02  0.1304894E+00
          3   -1    0    0  501    0  0.00000000000E+00  0.00000000000E+00  0.57054295008E+02  0.57054295008E+02  0.00000000000E+00 0. -1.
         -3   -1    0    0    0  501 -0.00000000000E+00 -0.00000000000E+00 -0.34834665794E+02  0.34834665794E+02  0.00000000000E+00 0.  1.
         23    2    1    2    0    0  0.00000000000E+00  0.00000000000E+00  0.22219629213E+02  0.91888960802E+02  0.89162038979E+02 0.  0.
        -13    1    3    3    0    0 -0.27108106492E+01 -0.12230138311E+02 -0.32983552001E+02  0.35282282807E+02  0.00000000000E+00 0.  1.
         13    1    3    3    0    0  0.27108106492E+01  0.12230138311E+02  0.55203181214E+02  0.56606677995E+02  0.00000000000E+00 0. -1.
<mgrwt>
<rscale>  0 0.89162039E+02</rscale>
<asrwt>0</asrwt>
<pdfrwt beam="1">  1        3 0.87775839E-02 0.89162039E+02</pdfrwt>
<pdfrwt beam="2">  1       -3 0.53591793E-02 0.89162039E+02</pdfrwt>
<totfact> 0.37492286E+04</totfact>
</mgrwt>
</event>
<event>
 5    1  0.1256986E+001  0.9187652E+02  0.7546771E-02  0.1298370E+00
          1   -1    0    0  501    0  0.00000000000E+00  0.00000000000E+00  0.21224751637E+03  0.21224751637E+03  0.00000000000E+00 0. -1.
         -1   -1    0    0    0  501 -0.00000000000E+00 -0.00000000000E+00 -0.99427494017E+01  0.99427494017E+01  0.00000000000E+00 0.  1.
         23    2    1    2    0    0  0.00000000000E+00  0.00000000000E+00  0.20230476697E+03  0.22219026578E+03  0.91876522931E+02 0.  0.
        -11    1    3    3    0    0 -0.45102003734E+02  0.26977261559E+01  0.12121970819E+03  0.12936647989E+03  0.00000000000E+00 0. -1.
         11    1    3    3    0    0  0.45102003734E+02 -0.26977261559E+01  0.81085058785E+02  0.92823785882E+02  0.00000000000E+00 0.  1.
<mgrwt>
<rscale>  0 0.91876523E+02</rscale>
<asrwt>0</asrwt>
<pdfrwt beam="1">  1        1 0.32653461E-01 0.91876523E+02</pdfrwt>
<pdfrwt beam="2">  1       -1 0.15296539E-02 0.91876523E+02</pdfrwt>
<totfact> 0.11735124E+05</totfact>
</mgrwt>
</event>
<event>
 5    1  0.1256986E+001  0.8328867E+02  0.7546771E-02  0.1319969E+00
         -3   -1    0    0    0  501 -0.00000000000E+00  0.00000000000E+00  0.61169747820E+02  0.61169747820E+02  0.00000000000E+00 0.  1.
          3   -1    0    0  501    0  0.00000000000E+00 -0.00000000000E+00 -0.28351443260E+02  0.28351443260E+02  0.00000000000E+00 0. -1.
         23    2    1    2    0    0  0.00000000000E+00  0.00000000000E+00  0.32818304560E+02  0.89521191080E+02  0.83288669927E+02 0.  0.
        -13    1    3    3    0    0 -0.41079619587E+02 -0.12435150031E+01  0.91854318464E+01  0.42112392870E+02  0.00000000000E+00 0. -1.
         13    1    3    3    0    0  0.41079619587E+02  0.12435150031E+01  0.23632872713E+02  0.47408798210E+02  0.00000000000E+00 0.  1.
<mgrwt>
<rscale>  0 0.83288670E+02</rscale>
<asrwt>0</asrwt>
<pdfrwt beam="2">  1        3 0.43617605E-02 0.83288670E+02</pdfrwt>
<pdfrwt beam="1">  1       -3 0.94107304E-02 0.83288670E+02</pdfrwt>
<totfact> 0.45312111E+04</totfact>
</mgrwt>
</event>
<event>
 5    1  0.1256986E+001  0.9520920E+02  0.7546771E-02  0.1290706E+00
          2   -1    0    0  501    0  0.00000000000E+00  0.00000000000E+00  0.29219306931E+03  0.29219306931E+03  0.00000000000E+00 0. -1.
         -2   -1    0    0    0  501 -0.00000000000E+00 -0.00000000000E+00 -0.77558231457E+01  0.77558231457E+01  0.00000000000E+00 0.  1.
         23    2    1    2    0    0  0.00000000000E+00  0.00000000000E+00  0.28443724617E+03  0.29994889246E+03  0.95209196404E+02 0.  0.
        -11    1    3    3    0    0  0.43235801633E+02 -0.16173039281E+02  0.17886329906E+03  0.18472406852E+03  0.00000000000E+00 0.  1.
         11    1    3    3    0    0 -0.43235801633E+02  0.16173039281E+02  0.10557394711E+03  0.11522482394E+03  0.00000000000E+00 0. -1.
<mgrwt>
<rscale>  0 0.95209196E+02</rscale>
<asrwt>0</asrwt>
<pdfrwt beam="1">  1        2 0.44952771E-01 0.95209196E+02</pdfrwt>
<pdfrwt beam="2">  1       -2 0.11932038E-02 0.95209196E+02</pdfrwt>
<totfact> 0.15843927E+05</totfact>
</mgrwt>
</event>
<event>
 5    1  0.1256986E+001  0.7918493E+02  0.7546771E-02  0.1331381E+00
          1   -1    0    0  501    0  0.00000000000E+00  0.00000000000E+00  0.31636094909E+03  0.31636094909E+03  0.00000000000E+00 0. -1.
         -1   -1    0    0    0  501 -0.00000000000E+00 -0.00000000000E+00 -0.49549833634E+01  0.49549833634E+01  0.00000000000E+00 0.  1.
         23    2    1    2    0    0  0.00000000000E+00  0.00000000000E+00  0.31140596572E+03  0.32131593245E+03  0.79184928858E+02 0.  0.
        -11    1    3    3    0    0  0.31477009857E+02 -0.24002779639E+02  0.15891776695E+03  0.16377360053E+03  0.00000000000E+00 0.  1.
         11    1    3    3    0    0 -0.31477009857E+02  0.24002779639E+02  0.15248819878E+03  0.15754233192E+03  0.00000000000E+00 0. -1.
<mgrwt>
<rscale>  0 0.79184929E+02</rscale>
<asrwt>0</asrwt>
<pdfrwt beam="1">  1        1 0.48670899E-01 0.79184929E+02</pdfrwt>
<pdfrwt beam="2">  1       -1 0.76230538E-03 0.79184929E+02</pdfrwt>
<totfact> 0.18785246E+05</totfact>
</mgrwt>
</event>
<event>
 5    1  0.1256986E+001  0.9242239E+02  0.7546771E-02  0.1297089E+00
         -1   -1    0    0    0  501 -0.00000000000E+00  0.00000000000E+00  0.33942753930E+02  0.33942753930E+02  0.00000000000E+00 0.  1.
          1   -1    0    0  501    0  0.00000000000E+00 -0.00000000000E+00 -0.62914008532E+02  0.62914008532E+02  0.00000000000E+00 0. -1.
         23    2    1    2    0    0  0.00000000000E+00  0.00000000000E+00 -0.28971254602E+02  0.96856762462E+02  0.92422393614E+02 0.  0.
        -13    1    3    3    0    0  0.16028148814E+02 -0.40783642431E+02  0.89032904380E+00  0.43829210923E+02  0.00000000000E+00 0.  1.
         13    1    3    3    0    0 -0.16028148814E+02  0.40783642431E+02 -0.29861583646E+02  0.53027551539E+02  0.00000000000E+00 0. -1.
<mgrwt>
<rscale>  0 0.92422394E+02</rscale>
<asrwt>0</asrwt>
<pdfrwt beam="2">  1        1 0.96790782E-02 0.92422394E+02</pdfrwt>
<pdfrwt beam="1">  1       -1 0.52219621E-02 0.92422394E+02</pdfrwt>
<totfact> 0.93481318E+04</totfact>
</mgrwt>
</event>
<event>
 5    1  0.1256986E+001  0.9009368E+02  0.7546771E-02  0.1302625E+00
         -2   -1    0    0    0  501 -0.00000000000E+00  0.00000000000E+00  0.10547467332E+03  0.10547467332E+03  0.00000000000E+00 0. -1.
          2   -1    0    0  501    0  0.00000000000E+00 -0.00000000000E+00 -0.19238911316E+02  0.19238911316E+02  0.00000000000E+00 0.  1.
         23    2    1    2    0    0  0.00000000000E+00  0.00000000000E+00  0.86235762003E+02  0.12471358463E+03  0.90093682043E+02 0.  0.
        -11    1    3    3    0    0  0.12222675656E+02 -0.26528478248E+02 -0.43538305976E+01  0.29531505197E+02  0.00000000000E+00 0.  1.
         11    1    3    3    0    0 -0.12222675656E+02  0.26528478248E+02  0.90589592600E+02  0.95182079436E+02  0.00000000000E+00 0. -1.
<mgrwt>
<rscale>  0 0.90093682E+02</rscale>
<asrwt>0</asrwt>
<pdfrwt beam="2">  1        2 0.29598326E-02 0.90093682E+02</pdfrwt>
<pdfrwt beam="1">  1       -2 0.16226872E-01 0.90093682E+02</pdfrwt>
<totfact> 0.80908824E+04</totfact>
</mgrwt>
</event>
<event>
 5    1  0.1256986E+001  0.9120595E+02  0.7546771E-02  0.1299957E+00
          2   -1    0    0  501    0  0.00000000000E+00  0.00000000000E+00  0.16883059705E+03  0.16883059705E+03  0.00000000000E+00 0.  1.
         -2   -1    0    0    0  501 -0.00000000000E+00 -0.00000000000E+00 -0.12317859063E+02  0.12317859063E+02  0.00000000000E+00 0. -1.
         23    2    1    2    0    0  0.00000000000E+00  0.00000000000E+00  0.15651273799E+03  0.18114845611E+03  0.91205953754E+02 0.  0.
        -13    1    3    3    0    0  0.43149844728E+02  0.55380325812E+01  0.10542034366E+03  0.11404397293E+03  0.00000000000E+00 0.  1.
         13    1    3    3    0    0 -0.43149844728E+02 -0.55380325812E+01  0.51092394326E+02  0.67104483180E+02  0.00000000000E+00 0. -1.
<mgrwt>
<rscale>  0 0.91205954E+02</rscale>
<asrwt>0</asrwt>
<pdfrwt beam="1">  1        2 0.25973936E-01 0.91205954E+02</pdfrwt>
<pdfrwt beam="2">  1       -2 0.18950554E-02 0.91205954E+02</pdfrwt>
<totfact> 0.14550105E+05</totfact>
</mgrwt>
</event>
<event>
 5    1  0.1256986E+001  0.9092762E+02  0.7546771E-02  0.1300621E+00
         -1   -1    0    0    0  501 -0.00000000000E+00  0.00000000000E+00  0.14683662639E+02  0.14683662639E+02  0.00000000000E+00 0.  1.
          1   -1    0    0  501    0  0.00000000000E+00 -0.00000000000E+00 -0.14076582296E+03  0.14076582296E+03  0.00000000000E+00 0. -1.
         23    2    1    2    0    0  0.00000000000E+00  0.00000000000E+00 -0.12608216032E+03  0.15544948560E+03  0.90927616385E+02 0.  0.
        -13    1    3    3    0    0  0.42820236467E+02  0.12078052023E+02 -0.79033421857E+02  0.90695831007E+02  0.00000000000E+00 0. -1.
         13    1    3    3    0    0 -0.42820236467E+02 -0.12078052023E+02 -0.47048738463E+02  0.64753654590E+02  0.00000000000E+00 0.  1.
<mgrwt>
<rscale>  0 0.90927616E+02</rscale>
<asrwt>0</asrwt>
<pdfrwt beam="2">  1        1 0.21656281E-01 0.90927616E+02</pdfrwt>
<pdfrwt beam="1">  1       -1 0.22590249E-02 0.90927616E+02</pdfrwt>
<totfact> 0.11166218E+05</totfact>
</mgrwt>
</event>
<event>
 5    1  0.1256986E+001  0.8965818E+02  0.7546771E-02  0.1303682E+00
         -2   -1    0    0    0  501 -0.00000000000E+00  0.00000000000E+00  0.11116541402E+03  0.11116541402E+03  0.00000000000E+00 0. -1.
          2   -1    0    0  501    0  0.00000000000E+00 -0.00000000000E+00 -0.18077989901E+02  0.18077989901E+02  0.00000000000E+00 0.  1.
         23    2    1    2    0    0  0.00000000000E+00  0.00000000000E+00  0.93087424116E+02  0.12924340392E+03  0.89658178254E+02 0.  0.
        -13    1    3    3    0    0 -0.38163895985E+02 -0.20095760112E+02  0.64158779240E+02  0.77308935349E+02  0.00000000000E+00 0. -1.
         13    1    3    3    0    0  0.38163895985E+02  0.20095760112E+02  0.28928644876E+02  0.51934468570E+02  0.00000000000E+00 0.  1.
<mgrwt>
<rscale>  0 0.89658178E+02</rscale>
<asrwt>0</asrwt>
<pdfrwt beam="2">  1        2 0.27812293E-02 0.89658178E+02</pdfrwt>
<pdfrwt beam="1">  1       -2 0.17102371E-01 0.89658178E+02</pdfrwt>
<totfact> 0.80583448E+04</totfact>
</mgrwt>
</event>
<event>
 5    1  0.1256986E+001  0.9094878E+02  0.7546771E-02  0.1300570E+00
         -3   -1    0    0    0  501 -0.00000000000E+00  0.00000000000E+00  0.90244693993E+02  0.90244693993E+02  0.00000000000E+00 0.  1.
          3   -1    0    0  501    0  0.00000000000E+00 -0.00000000000E+00 -0.22914592290E+02  0.22914592290E+02  0.00000000000E+00 0. -1.
         23    2    1    2    0    0  0.00000000000E+00  0.00000000000E+00  0.67330101704E+02  0.11315928628E+03  0.90948784910E+02 0.  0.
        -11    1    3    3    0    0 -0.40495115597E+02  0.20751559828E+01  0.59277619155E+02  0.71819195152E+02  0.00000000000E+00 0.  1.
         11    1    3    3    0    0  0.40495115597E+02 -0.20751559828E+01  0.80524825483E+01  0.41340091131E+02  0.00000000000E+00 0. -1.
<mgrwt>
<rscale>  0 0.90948785E+02</rscale>
<asrwt>0</asrwt>
<pdfrwt beam="2">  1        3 0.35253219E-02 0.90948785E+02</pdfrwt>
<pdfrwt beam="1">  1       -3 0.13883799E-01 0.90948785E+02</pdfrwt>
<totfact> 0.33952935E+04</totfact>
</mgrwt>
</event>
<event>
 5    1  0.1256986E+001  0.9119966E+02  0.7546771E-02  0.1299972E+00
         -1   -1    0    0    0  501 -0.00000000000E+00  0.00000000000E+00  0.39661268046E+02  0.39661268046E+02  0.00000000000E+00 0.  1.
          1   -1    0    0  501    0  0.00000000000E+00 -0.00000000000E+00 -0.52427584002E+02  0.52427584002E+02  0.00000000000E+00 0. -1.
         23    2    1    2    0    0  0.00000000000E+00  0.00000000000E+00 -0.12766315956E+02  0.92088852048E+02  0.91199659256E+02 0.  0.
        -11    1    3    3    0    0  0.26027549077E+02  0.21251836081E+02 -0.37510174293E+02  0.50359577274E+02  0.00000000000E+00 0. -1.
         11    1    3    3    0    0 -0.26027549077E+02 -0.21251836081E+02  0.24743858337E+02  0.41729274774E+02  0.00000000000E+00 0.  1.
<mgrwt>
<rscale>  0 0.91199659E+02</rscale>
<asrwt>0</asrwt>
<pdfrwt beam="2">  1        1 0.80657821E-02 0.91199659E+02</pdfrwt>
<pdfrwt beam="1">  1       -1 0.61017336E-02 0.91199659E+02</pdfrwt>
<totfact> 0.94367591E+04</totfact>
</mgrwt>
</event>
<event>
 5    1  0.1256986E+001  0.9173829E+02  0.7546771E-02  0.1298696E+00
          1   -1    0    0  501    0  0.00000000000E+00  0.00000000000E+00  0.11616788285E+02  0.11616788285E+02  0.00000000000E+00 0. -1.
         -1   -1    0    0    0  501 -0.00000000000E+00 -0.00000000000E+00 -0.18111531704E+03  0.18111531704E+03  0.00000000000E+00 0.  1.
         23    2    1    2    0    0  0.00000000000E+00  0.00000000000E+00 -0.16949852876E+03  0.19273210533E+03  0.91738286299E+02 0.  0.
        -13    1    3    3    0    0 -0.12501931723E+01  0.38118376241E+02 -0.31211385959E+02  0.49282088061E+02  0.00000000000E+00 0. -1.
         13    1    3    3    0    0  0.12501931723E+01 -0.38118376241E+02 -0.13828714280E+03  0.14345001727E+03  0.00000000000E+00 0.  1.
<mgrwt>
<rscale>  0 0.91738286E+02</rscale>
<asrwt>0</asrwt>
<pdfrwt beam="1">  1        1 0.17871983E-02 0.91738286E+02</pdfrwt>
<pdfrwt beam="2">  1       -1 0.27863893E-01 0.91738286E+02</pdfrwt>
<totfact> 0.70220080E+04</totfact>
</mgrwt>
</event>
<event>
 5    1  0.1256986E+001  0.8714565E+02  0.7546771E-02  0.1309915E+00
          1   -1    0    0  501    0  0.00000000000E+00  0.00000000000E+00  0.12333753811E+02  0.12333753811E+02  0.00000000000E+00 0. -1.
         -1   -1    0    0    0  501 -0.00000000000E+00 -0.00000000000E+00 -0.15393457402E+03  0.15393457402E+03  0.00000000000E+00 0.  1.
         23    2    1    2    0    0  0.00000000000E+00  0.00000000000E+00 -0.14160082021E+03  0.16626832783E+03  0.87145651390E+02 0.  0.
        -13    1    3    3    0    0 -0.26040111721E+02  0.34616831195E+02 -0.79785698770E+02  0.90786398478E+02  0.00000000000E+00 0.  1.
         13    1    3    3    0    0  0.26040111721E+02 -0.34616831195E+02 -0.61815121443E+02  0.75481929357E+02  0.00000000000E+00 0. -1.
<mgrwt>
<rscale>  0 0.87145651E+02</rscale>
<asrwt>0</asrwt>
<pdfrwt beam="1">  1        1 0.18975006E-02 0.87145651E+02</pdfrwt>
<pdfrwt beam="2">  1       -1 0.23682242E-01 0.87145651E+02</pdfrwt>
<totfact> 0.83574031E+04</totfact>
</mgrwt>
</event>
<event>
 5    1  0.1256986E+001  0.9077393E+02  0.7546771E-02  0.1300988E+00
          4   -1    0    0  501    0  0.00000000000E+00  0.00000000000E+00  0.58333604224E+02  0.58333604224E+02  0.00000000000E+00 0. -1.
         -4   -1    0    0    0  501 -0.00000000000E+00 -0.00000000000E+00 -0.35313717393E+02  0.35313717393E+02  0.00000000000E+00 0.  1.
         23    2    1    2    0    0  0.00000000000E+00  0.00000000000E+00  0.23019886832E+02  0.93647321617E+02  0.90773926082E+02 0.  0.
        -13    1    3    3    0    0 -0.18706678374E+02  0.30078514784E+02 -0.17766503037E+02  0.39627080356E+02  0.00000000000E+00 0.  1.
         13    1    3    3    0    0  0.18706678374E+02 -0.30078514784E+02  0.40786389869E+02  0.54020241261E+02  0.00000000000E+00 0. -1.
<mgrwt>
<rscale>  0 0.90773926E+02</rscale>
<asrwt>0</asrwt>
<pdfrwt beam="1">  1        4 0.89744007E-02 0.90773926E+02</pdfrwt>
<pdfrwt beam="2">  1       -4 0.54328796E-02 0.90773926E+02</pdfrwt>
<totfact> 0.27182465E+04</totfact>
</mgrwt>
</event>
<event>
 5    1  0.1256986E+001  0.1234000E+03  0.7546771E-02  0.1237591E+00
         -4   -1    0    0    0  501 -0.00000000000E+00  0.00000000000E+00  0.16289965748E+03  0.16289965748E+03  0.00000000000E+00 0.  1.
          4   -1    0    0  501    0  0.00000000000E+00 -0.00000000000E+00 -0.23369537116E+02  0.23369537116E+02  0.00000000000E+00 0. -1.
         23    2    1    2    0    0  0.00000000000E+00  0.00000000000E+00  0.13953012036E+03  0.18626919460E+03  0.12339999338E+03 0.  0.
        -13    1    3    3    0    0  0.49704142351E+02 -0.22231705795E+02  0.11356946781E+03  0.12594750703E+03  0.00000000000E+00 0.  1.
         13    1    3    3    0    0 -0.49704142351E+02  0.22231705795E+02  0.25960652555E+02  0.60321687563E+02  0.00000000000E+00 0. -1.
<mgrwt>
<rscale>  0 0.12339999E+03</rscale>
<asrwt>0</asrwt>
<pdfrwt beam="2">  1        4 0.35953135E-02 0.12339999E+03</pdfrwt>
<pdfrwt beam="1">  1       -4 0.25061485E-01 0.12339999E+03</pdfrwt>
<totfact> 0.95896694E+03</totfact>
</mgrwt>
</event>
<event>
 5    1  0.1256986E+001  0.9054562E+02  0.7546771E-02  0.1301536E+00
          1   -1    0    0  501    0  0.00000000000E+00  0.00000000000E+00  0.16272180692E+02  0.16272180692E+02  0.00000000000E+00 0. -1.
         -1   -1    0    0    0  501 -0.00000000000E+00 -0.00000000000E+00 -0.12595899016E+03  0.12595899016E+03  0.00000000000E+00 0.  1.
         23    2    1    2    0    0  0.00000000000E+00  0.00000000000E+00 -0.10968680947E+03  0.14223117085E+03  0.90545622703E+02 0.  0.
        -11    1    3    3    0    0  0.27848476227E+02 -0.30481794324E+02 -0.25668770390E+02  0.48616490892E+02  0.00000000000E+00 0.  1.
         11    1    3    3    0    0 -0.27848476227E+02  0.30481794324E+02 -0.84018039080E+02  0.93614679961E+02  0.00000000000E+00 0. -1.
<mgrwt>
<rscale>  0 0.90545623E+02</rscale>
<asrwt>0</asrwt>
<pdfrwt beam="1">  1        1 0.25034124E-02 0.90545623E+02</pdfrwt>
<pdfrwt beam="2">  1       -1 0.19378306E-01 0.90545623E+02</pdfrwt>
<totfact> 0.79153924E+04</totfact>
</mgrwt>
</event>
<event>
 5    1  0.1256986E+001  0.9099533E+02  0.7546771E-02  0.1300459E+00
          1   -1    0    0  501    0  0.00000000000E+00  0.00000000000E+00  0.14082011982E+02  0.14082011982E+02  0.00000000000E+00 0. -1.
         -1   -1    0    0    0  501 -0.00000000000E+00 -0.00000000000E+00 -0.14699870770E+03  0.14699870770E+03  0.00000000000E+00 0.  1.
         23    2    1    2    0    0  0.00000000000E+00  0.00000000000E+00 -0.13291669572E+03  0.16108071969E+03  0.90995330941E+02 0.  0.
        -11    1    3    3    0    0  0.24900023018E+02  0.13832152041E+02 -0.36546491787E+01  0.28717521429E+02  0.00000000000E+00 0. -1.
         11    1    3    3    0    0 -0.24900023018E+02 -0.13832152041E+02 -0.12926204654E+03  0.13236319826E+03  0.00000000000E+00 0.  1.
<mgrwt>
<rscale>  0 0.90995331E+02</rscale>
<asrwt>0</asrwt>
<pdfrwt beam="1">  1        1 0.21664635E-02 0.90995331E+02</pdfrwt>
<pdfrwt beam="2">  1       -1 0.22615184E-01 0.90995331E+02</pdfrwt>
<totfact> 0.75530718E+04</totfact>
</mgrwt>
</event>
<event>
 5    1  0.1256986E+001  0.9072924E+02  0.7546771E-02  0.1301095E+00
          2   -1    0    0  501    0  0.00000000000E+00  0.00000000000E+00  0.26609000658E+03  0.26609000658E+03  0.00000000000E+00 0. -1.
         -2   -1    0    0    0  501 -0.00000000000E+00 -0.00000000000E+00 -0.77340324857E+01  0.77340324857E+01  0.00000000000E+00 0.  1.
         23    2    1    2    0    0  0.00000000000E+00  0.00000000000E+00  0.25835597409E+03  0.27382403906E+03  0.90729240160E+02 0.  0.
        -13    1    3    3    0    0  0.43666050331E+02  0.29392735419E+01  0.16521609162E+03  0.17091436513E+03  0.00000000000E+00 0.  1.
         13    1    3    3    0    0 -0.43666050331E+02 -0.29392735419E+01  0.93139882476E+02  0.10290967393E+03  0.00000000000E+00 0. -1.
<mgrwt>
<rscale>  0 0.90729240E+02</rscale>
<asrwt>0</asrwt>
<pdfrwt beam="1">  1        2 0.40936917E-01 0.90729240E+02</pdfrwt>
<pdfrwt beam="2">  1       -2 0.11898514E-02 0.90729240E+02</pdfrwt>
<totfact> 0.17407384E+05</totfact>
</mgrwt>
</event>
<event>
 5    1  0.1256986E+001  0.9078710E+02  0.7546771E-02  0.1300957E+00
         -2   -1    0    0    0  501 -0.00000000000E+00  0.00000000000E+00  0.35334376005E+02  0.35334376005E+02  0.00000000000E+00 0.  1.
          2   -1    0    0  501    0  0.00000000000E+00 -0.00000000000E+00 -0.58316427025E+02  0.58316427025E+02  0.00000000000E+00 0. -1.
         23    2    1    2    0    0  0.00000000000E+00  0.00000000000E+00 -0.22982051020E+02  0.93650803030E+02  0.90787103925E+02 0.  0.
        -13    1    3    3    0    0 -0.18902516488E+02  0.40758536583E+02 -0.18177073710E+02  0.48466168021E+02  0.00000000000E+00 0.  1.
         13    1    3    3    0    0  0.18902516488E+02 -0.40758536583E+02 -0.48049773107E+01  0.45184635009E+02  0.00000000000E+00 0. -1.
<mgrwt>
<rscale>  0 0.90787104E+02</rscale>
<asrwt>0</asrwt>
<pdfrwt beam="2">  1        2 0.89717579E-02 0.90787104E+02</pdfrwt>
<pdfrwt beam="1">  1       -2 0.54360579E-02 0.90787104E+02</pdfrwt>
<totfact> 0.10654532E+05</totfact>
</mgrwt>
</event>
<event>
 5    1  0.1256986E+001  0.9104439E+02  0.7546771E-02  0.1300342E+00
          1   -1    0    0  501    0  0.00000000000E+00  0.00000000000E+00  0.10147374493E+03  0.10147374493E+03  0.00000000000E+00 0. -1.
         -1   -1    0    0    0  501 -0.00000000000E+00 -0.00000000000E+00 -0.20421739358E+02  0.20421739358E+02  0.00000000000E+00 0.  1.
         23    2    1    2    0    0  0.00000000000E+00  0.00000000000E+00  0.81052005575E+02  0.12189548429E+03  0.91044392923E+02 0.  0.
        -13    1    3    3    0    0  0.24645254624E+02  0.20283265982E+02 -0.29295909294E+01  0.32052799525E+02  0.00000000000E+00 0.  1.
         13    1    3    3    0    0 -0.24645254624E+02 -0.20283265982E+02  0.83981596504E+02  0.89842684765E+02  0.00000000000E+00 0. -1.
<mgrwt>
<rscale>  0 0.91044393E+02</rscale>
<asrwt>0</asrwt>
<pdfrwt beam="1">  1        1 0.15611345E-01 0.91044393E+02</pdfrwt>
<pdfrwt beam="2">  1       -1 0.31418061E-02 0.91044393E+02</pdfrwt>
<totfact> 0.10512251E+05</totfact>
</mgrwt>
</event>
<event>
 5    1  0.1256986E+001  0.9365952E+02  0.7546771E-02  0.1294224E+00
          2   -1    0    0  501    0  0.00000000000E+00  0.00000000000E+00  0.35516703837E+02  0.35516703837E+02  0.00000000000E+00 0. -1.
         -2   -1    0    0    0  501 -0.00000000000E+00 -0.00000000000E+00 -0.61746342774E+02  0.61746342774E+02  0.00000000000E+00 0.  1.
         23    2    1    2    0    0  0.00000000000E+00  0.00000000000E+00 -0.26229638937E+02  0.97263046612E+02  0.93659523154E+02 0.  0.
        -11    1    3    3    0    0 -0.24729227836E+02  0.22170789533E+02  0.21169758390E+02  0.39385749811E+02  0.00000000000E+00 0. -1.
         11    1    3    3    0    0  0.24729227836E+02 -0.22170789533E+02 -0.47399397328E+02  0.57877296800E+02  0.00000000000E+00 0.  1.
<mgrwt>
<rscale>  0 0.93659523E+02</rscale>
<asrwt>0</asrwt>
<pdfrwt beam="1">  1        2 0.54641084E-02 0.93659523E+02</pdfrwt>
<pdfrwt beam="2">  1       -2 0.94994372E-02 0.93659523E+02</pdfrwt>
<totfact> 0.85474937E+04</totfact>
</mgrwt>
</event>
<event>
 5    1  0.1256986E+001  0.9350408E+02  0.7546771E-02  0.1294581E+00
          1   -1    0    0  501    0  0.00000000000E+00  0.00000000000E+00  0.46775367296E+02  0.46775367296E+02  0.00000000000E+00 0. -1.
         -1   -1    0    0    0  501 -0.00000000000E+00 -0.00000000000E+00 -0.46728723204E+02  0.46728723204E+02  0.00000000000E+00 0.  1.
         23    2    1    2    0    0  0.00000000000E+00  0.00000000000E+00  0.46644092154E-01  0.93504090499E+02  0.93504078865E+02 0.  0.
        -13    1    3    3    0    0  0.23595599336E+02 -0.32756865282E+02 -0.23556092669E+02  0.46740282765E+02  0.00000000000E+00 0.  1.
         13    1    3    3    0    0 -0.23595599336E+02  0.32756865282E+02  0.23602736761E+02  0.46763807734E+02  0.00000000000E+00 0. -1.
<mgrwt>
<rscale>  0 0.93504079E+02</rscale>
<asrwt>0</asrwt>
<pdfrwt beam="1">  1        1 0.71962104E-02 0.93504079E+02</pdfrwt>
<pdfrwt beam="2">  1       -1 0.71890343E-02 0.93504079E+02</pdfrwt>
<totfact> 0.86478687E+04</totfact>
</mgrwt>
</event>
<event>
 5    1  0.1256986E+001  0.9289184E+02  0.7546771E-02  0.1295996E+00
          4   -1    0    0  501    0  0.00000000000E+00  0.00000000000E+00  0.53054491991E+02  0.53054491991E+02  0.00000000000E+00 0. -1.
         -4   -1    0    0    0  501 -0.00000000000E+00 -0.00000000000E+00 -0.40660527412E+02  0.40660527412E+02  0.00000000000E+00 0.  1.
         23    2    1    2    0    0  0.00000000000E+00  0.00000000000E+00  0.12393964579E+02  0.93715019403E+02  0.92891843042E+02 0.  0.
        -11    1    3    3    0    0  0.98062116744E+01  0.43533216786E+02  0.19192157345E+02  0.48576142855E+02  0.00000000000E+00 0. -1.
         11    1    3    3    0    0 -0.98062116744E+01 -0.43533216786E+02 -0.67981927666E+01  0.45138876548E+02  0.00000000000E+00 0.  1.
<mgrwt>
<rscale>  0 0.92891843E+02</rscale>
<asrwt>0</asrwt>
<pdfrwt beam="1">  1        4 0.81622296E-02 0.92891843E+02</pdfrwt>
<pdfrwt beam="2">  1       -4 0.62554657E-02 0.92891843E+02</pdfrwt>
<totfact> 0.25525669E+04</totfact>
</mgrwt>
</event>
<event>
 5    1  0.1256986E+001  0.9339948E+02  0.7546771E-02  0.1294822E+00
          4   -1    0    0  501    0  0.00000000000E+00  0.00000000000E+00  0.12223066275E+02  0.12223066275E+02  0.00000000000E+00 0. -1.
         -4   -1    0    0    0  501 -0.00000000000E+00 -0.00000000000E+00 -0.17842215661E+03  0.17842215661E+03  0.00000000000E+00 0.  1.
         23    2    1    2    0    0  0.00000000000E+00  0.00000000000E+00 -0.16619909034E+03  0.19064522289E+03  0.93399482764E+02 0.  0.
        -13    1    3    3    0    0  0.36054721318E+02  0.37427556365E+01 -0.23000214007E+02  0.42929721563E+02  0.00000000000E+00 0. -1.
         13    1    3    3    0    0 -0.36054721318E+02 -0.37427556365E+01 -0.14319887633E+03  0.14771550132E+03  0.00000000000E+00 0.  1.
<mgrwt>
<rscale>  0 0.93399483E+02</rscale>
<asrwt>0</asrwt>
<pdfrwt beam="1">  1        4 0.18804718E-02 0.93399483E+02</pdfrwt>
<pdfrwt beam="2">  1       -4 0.27449562E-01 0.93399483E+02</pdfrwt>
<totfact> 0.20417750E+04</totfact>
</mgrwt>
</event>
<event>
 5    1  0.1256986E+001  0.1003510E+03  0.7546771E-02  0.1279560E+00
         -2   -1    0    0    0  501 -0.00000000000E+00  0.00000000000E+00  0.18845988164E+02  0.18845988164E+02  0.00000000000E+00 0.  1.
          2   -1    0    0  501    0  0.00000000000E+00 -0.00000000000E+00 -0.13358710396E+03  0.13358710396E+03  0.00000000000E+00 0. -1.
         23    2    1    2    0    0  0.00000000000E+00  0.00000000000E+00 -0.11474111579E+03  0.15243309212E+03  0.10035100358E+03 0.  0.
        -13    1    3    3    0    0 -0.40680877880E+01 -0.43427298794E+02 -0.19697499101E+02  0.47858866363E+02  0.00000000000E+00 0.  1.
         13    1    3    3    0    0  0.40680877880E+01  0.43427298794E+02 -0.95043616692E+02  0.10457422576E+03  0.00000000000E+00 0. -1.
<mgrwt>
<rscale>  0 0.10035100E+03</rscale>
<asrwt>0</asrwt>
<pdfrwt beam="2">  1        2 0.20551862E-01 0.10035100E+03</pdfrwt>
<pdfrwt beam="1">  1       -2 0.28993829E-02 0.10035100E+03</pdfrwt>
<totfact> 0.10337774E+05</totfact>
</mgrwt>
</event>
<event>
 5    1  0.1256986E+001  0.9117207E+02  0.7546771E-02  0.1300038E+00
         -2   -1    0    0    0  501 -0.00000000000E+00  0.00000000000E+00  0.21273505094E+02  0.21273505094E+02  0.00000000000E+00 0.  1.
          2   -1    0    0  501    0  0.00000000000E+00 -0.00000000000E+00 -0.97684268241E+02  0.97684268241E+02  0.00000000000E+00 0. -1.
         23    2    1    2    0    0  0.00000000000E+00  0.00000000000E+00 -0.76410763146E+02  0.11895777333E+03  0.91172074190E+02 0.  0.
        -11    1    3    3    0    0  0.18073841789E+02 -0.33525730535E+02 -0.55225253198E+01  0.38485538203E+02  0.00000000000E+00 0.  1.
         11    1    3    3    0    0 -0.18073841789E+02  0.33525730535E+02 -0.70888237827E+02  0.80472235131E+02  0.00000000000E+00 0. -1.
<mgrwt>
<rscale>  0 0.91172074E+02</rscale>
<asrwt>0</asrwt>
<pdfrwt beam="2">  1        2 0.15028349E-01 0.91172074E+02</pdfrwt>
<pdfrwt beam="1">  1       -2 0.32728470E-02 0.91172074E+02</pdfrwt>
<totfact> 0.12182447E+05</totfact>
</mgrwt>
</event>
<event>
 5    1  0.1256986E+001  0.9031468E+02  0.7546771E-02  0.1302091E+00
          1   -1    0    0  501    0  0.00000000000E+00  0.00000000000E+00  0.12266636023E+03  0.12266636023E+03  0.00000000000E+00 0. -1.
         -1   -1    0    0    0  501 -0.00000000000E+00 -0.00000000000E+00 -0.16623833749E+02  0.16623833749E+02  0.00000000000E+00 0.  1.
         23    2    1    2    0    0  0.00000000000E+00  0.00000000000E+00  0.10604252648E+03  0.13929019398E+03  0.90314676084E+02 0.  0.
        -11    1    3    3    0    0 -0.41032709240E+02 -0.37339765447E+01  0.81524574597E+02  0.91344852464E+02  0.00000000000E+00 0.  1.
         11    1    3    3    0    0  0.41032709240E+02  0.37339765447E+01  0.24517951887E+02  0.47945341517E+02  0.00000000000E+00 0. -1.
<mgrwt>
<rscale>  0 0.90314676E+02</rscale>
<asrwt>0</asrwt>
<pdfrwt beam="1">  1        1 0.18871747E-01 0.90314676E+02</pdfrwt>
<pdfrwt beam="2">  1       -1 0.25575130E-02 0.90314676E+02</pdfrwt>
<totfact> 0.11097056E+05</totfact>
</mgrwt>
</event>
<event>
 5    1  0.1256986E+001  0.8959884E+02  0.7546771E-02  0.1303826E+00
          2   -1    0    0  501    0  0.00000000000E+00  0.00000000000E+00  0.60063689249E+02  0.60063689249E+02  0.00000000000E+00 0.  1.
         -2   -1    0    0    0  501 -0.00000000000E+00 -0.00000000000E+00 -0.33414333793E+02  0.33414333793E+02  0.00000000000E+00 0. -1.
         23    2    1    2    0    0  0.00000000000E+00  0.00000000000E+00  0.26649355456E+02  0.93478023041E+02  0.89598842881E+02 0.  0.
        -11    1    3    3    0    0 -0.28728895027E+02 -0.13270080970E+01 -0.22511826045E+02  0.36522495422E+02  0.00000000000E+00 0. -1.
         11    1    3    3    0    0  0.28728895027E+02  0.13270080970E+01  0.49161181501E+02  0.56955527620E+02  0.00000000000E+00 0.  1.
<mgrwt>
<rscale>  0 0.89598843E+02</rscale>
<asrwt>0</asrwt>
<pdfrwt beam="1">  1        2 0.92405675E-02 0.89598843E+02</pdfrwt>
<pdfrwt beam="2">  1       -2 0.51406668E-02 0.89598843E+02</pdfrwt>
<totfact> 0.11144188E+05</totfact>
</mgrwt>
</event>
<event>
 5    1  0.1256986E+001  0.9252021E+02  0.7546771E-02  0.1296861E+00
          1   -1    0    0  501    0  0.00000000000E+00  0.00000000000E+00  0.58360441764E+02  0.58360441764E+02  0.00000000000E+00 0. -1.
         -1   -1    0    0    0  501 -0.00000000000E+00 -0.00000000000E+00 -0.36668631243E+02  0.36668631243E+02  0.00000000000E+00 0.  1.
         23    2    1    2    0    0  0.00000000000E+00  0.00000000000E+00  0.21691810521E+02  0.95029073007E+02  0.92520214402E+02 0.  0.
        -13    1    3    3    0    0  0.15709165148E+02 -0.38184600565E+02 -0.10580154629E+02  0.42623717130E+02  0.00000000000E+00 0.  1.
         13    1    3    3    0    0 -0.15709165148E+02  0.38184600565E+02  0.32271965151E+02  0.52405355878E+02  0.00000000000E+00 0. -1.
<mgrwt>
<rscale>  0 0.92520214E+02</rscale>
<asrwt>0</asrwt>
<pdfrwt beam="1">  1        1 0.89785295E-02 0.92520214E+02</pdfrwt>
<pdfrwt beam="2">  1       -1 0.56413279E-02 0.92520214E+02</pdfrwt>
<totfact> 0.92141125E+04</totfact>
</mgrwt>
</event>
<event>
 5    1  0.1256986E+001  0.9213681E+02  0.7546771E-02  0.1297758E+00
         -2   -1    0    0    0  501 -0.00000000000E+00  0.00000000000E+00  0.43632168152E+02  0.43632168152E+02  0.00000000000E+00 0.  1.
          2   -1    0    0  501    0  0.00000000000E+00 -0.00000000000E+00 -0.48640667660E+02  0.48640667660E+02  0.00000000000E+00 0. -1.
         23    2    1    2    0    0  0.00000000000E+00  0.00000000000E+00 -0.50084995087E+01  0.92272835812E+02  0.92136806768E+02 0.  0.
        -11    1    3    3    0    0  0.27368927397E+02  0.36667904617E+02  0.28613065297E+01  0.45845179582E+02  0.00000000000E+00 0.  1.
         11    1    3    3    0    0 -0.27368927397E+02 -0.36667904617E+02 -0.78698060384E+01  0.46427656229E+02  0.00000000000E+00 0. -1.
<mgrwt>
<rscale>  0 0.92136807E+02</rscale>
<asrwt>0</asrwt>
<pdfrwt beam="2">  1        2 0.74831796E-02 0.92136807E+02</pdfrwt>
<pdfrwt beam="1">  1       -2 0.67126413E-02 0.92136807E+02</pdfrwt>
<totfact> 0.97387643E+04</totfact>
</mgrwt>
</event>
<event>
 4    1  0.1256986E+001  0.5348017E+02  0.7546771E-02  0.1427426E+00
          3   -1    0    0  501    0  0.00000000000E+00  0.00000000000E+00  0.80084731488E+01  0.80084731488E+01  0.00000000000E+00 0.  1.
         -3   -1    0    0    0  501 -0.00000000000E+00 -0.00000000000E+00 -0.89284445768E+02  0.89284445768E+02  0.00000000000E+00 0. -1.
        -13    1    1    2    0    0 -0.36083902715E+01 -0.16034792964E+02 -0.79010320722E+02  0.80701709067E+02  0.00000000000E+00 0. -1.
         13    1    1    2    0    0  0.36083902715E+01  0.16034792964E+02 -0.22656518969E+01  0.16591209850E+02  0.00000000000E+00 0.  1.
<mgrwt>
<rscale>  0 0.53480168E+02</rscale>
<asrwt>0</asrwt>
<pdfrwt beam="1">  1        3 0.12320729E-02 0.53480168E+02</pdfrwt>
<pdfrwt beam="2">  1       -3 0.13736068E-01 0.53480168E+02</pdfrwt>
<totfact> 0.14179428E+05</totfact>
</mgrwt>
</event>
<event>
 5    1  0.1256986E+001  0.9062843E+02  0.7546771E-02  0.1301337E+00
          2   -1    0    0  501    0  0.00000000000E+00  0.00000000000E+00  0.15209166760E+03  0.15209166760E+03  0.00000000000E+00 0. -1.
         -2   -1    0    0    0  501 -0.00000000000E+00 -0.00000000000E+00 -0.13500924215E+02  0.13500924215E+02  0.00000000000E+00 0.  1.
         23    2    1    2    0    0  0.00000000000E+00  0.00000000000E+00  0.13859074338E+03  0.16559259181E+03  0.90628429931E+02 0.  0.
        -13    1    3    3    0    0  0.32945573748E+02  0.22114258077E+02  0.29309088745E+02  0.49330253627E+02  0.00000000000E+00 0.  1.
         13    1    3    3    0    0 -0.32945573748E+02 -0.22114258077E+02  0.10928165464E+03  0.11626233819E+03  0.00000000000E+00 0. -1.
<mgrwt>
<rscale>  0 0.90628430E+02</rscale>
<asrwt>0</asrwt>
<pdfrwt beam="1">  1        2 0.23398717E-01 0.90628430E+02</pdfrwt>
<pdfrwt beam="2">  1       -2 0.20770654E-02 0.90628430E+02</pdfrwt>
<totfact> 0.14278709E+05</totfact>
</mgrwt>
</event>
<event>
 5    1  0.1256986E+001  0.9131597E+02  0.7546771E-02  0.1299696E+00
         -1   -1    0    0    0  501 -0.00000000000E+00  0.00000000000E+00  0.64256615588E+02  0.64256615588E+02  0.00000000000E+00 0.  1.
          1   -1    0    0  501    0  0.00000000000E+00 -0.00000000000E+00 -0.32442597978E+02  0.32442597978E+02  0.00000000000E+00 0. -1.
         23    2    1    2    0    0  0.00000000000E+00  0.00000000000E+00  0.31814017609E+02  0.96699213566E+02  0.91315968964E+02 0.  0.
        -13    1    3    3    0    0  0.36089046667E+02 -0.21943657554E+02  0.34270227659E+02  0.54391101294E+02  0.00000000000E+00 0.  1.
         13    1    3    3    0    0 -0.36089046667E+02  0.21943657554E+02 -0.24562100503E+01  0.42308112272E+02  0.00000000000E+00 0. -1.
<mgrwt>
<rscale>  0 0.91315969E+02</rscale>
<asrwt>0</asrwt>
<pdfrwt beam="2">  1        1 0.49911689E-02 0.91315969E+02</pdfrwt>
<pdfrwt beam="1">  1       -1 0.98856332E-02 0.91315969E+02</pdfrwt>
<totfact> 0.87392219E+04</totfact>
</mgrwt>
</event>
<event>
 5    1  0.1256986E+001  0.9929228E+02  0.7546771E-02  0.1281791E+00
          2   -1    0    0  501    0  0.00000000000E+00  0.00000000000E+00  0.19888696904E+02  0.19888696904E+02  0.00000000000E+00 0. -1.
         -2   -1    0    0    0  501 -0.00000000000E+00 -0.00000000000E+00 -0.12392662419E+03  0.12392662419E+03  0.00000000000E+00 0.  1.
         23    2    1    2    0    0  0.00000000000E+00  0.00000000000E+00 -0.10403792729E+03  0.14381532110E+03  0.99292276978E+02 0.  0.
        -13    1    3    3    0    0 -0.41803655589E+02 -0.12370277669E+02 -0.86421824191E+02  0.96795150120E+02  0.00000000000E+00 0.  1.
         13    1    3    3    0    0  0.41803655589E+02  0.12370277669E+02 -0.17616103097E+02  0.47020170975E+02  0.00000000000E+00 0. -1.
<mgrwt>
<rscale>  0 0.99292277E+02</rscale>
<asrwt>0</asrwt>
<pdfrwt beam="1">  1        2 0.30597995E-02 0.99292277E+02</pdfrwt>
<pdfrwt beam="2">  1       -2 0.19065635E-01 0.99292277E+02</pdfrwt>
<totfact> 0.60229664E+04</totfact>
</mgrwt>
</event>
<event>
 5    1  0.1256986E+001  0.8460808E+02  0.7546771E-02  0.1316461E+00
         -2   -1    0    0    0  501 -0.00000000000E+00  0.00000000000E+00  0.18951013292E+02  0.18951013292E+02  0.00000000000E+00 0.  1.
          2   -1    0    0  501    0  0.00000000000E+00 -0.00000000000E+00 -0.94434617939E+02  0.94434617939E+02  0.00000000000E+00 0. -1.
         23    2    1    2    0    0  0.00000000000E+00  0.00000000000E+00 -0.75483604647E+02  0.11338563123E+03  0.84608077623E+02 0.  0.
        -11    1    3    3    0    0  0.87721844794E+01  0.22759917354E+02 -0.84061910302E+02  0.87529251237E+02  0.00000000000E+00 0. -1.
         11    1    3    3    0    0 -0.87721844794E+01 -0.22759917354E+02  0.85783056545E+01  0.25856379994E+02  0.00000000000E+00 0.  1.
<mgrwt>
<rscale>  0 0.84608078E+02</rscale>
<asrwt>0</asrwt>
<pdfrwt beam="2">  1        2 0.14528403E-01 0.84608078E+02</pdfrwt>
<pdfrwt beam="1">  1       -2 0.29155405E-02 0.84608078E+02</pdfrwt>
<totfact> 0.14801017E+05</totfact>
</mgrwt>
</event>
<event>
 5    1  0.1256986E+001  0.9100488E+02  0.7546771E-02  0.1300436E+00
          2   -1    0    0  501    0  0.00000000000E+00  0.00000000000E+00  0.64898526623E+02  0.64898526623E+02  0.00000000000E+00 0. -1.
         -2   -1    0    0    0  501 -0.00000000000E+00 -0.00000000000E+00 -0.31903219578E+02  0.31903219578E+02  0.00000000000E+00 0.  1.
         23    2    1    2    0    0  0.00000000000E+00  0.00000000000E+00  0.32995307045E+02  0.96801746201E+02  0.91004877784E+02 0.  0.
        -13    1    3    3    0    0  0.40081398263E+02  0.21534628566E+02  0.16988836871E+02  0.48568295136E+02  0.00000000000E+00 0. -1.
         13    1    3    3    0    0 -0.40081398263E+02 -0.21534628566E+02  0.16006470173E+02  0.48233451065E+02  0.00000000000E+00 0.  1.
<mgrwt>
<rscale>  0 0.91004878E+02</rscale>
<asrwt>0</asrwt>
<pdfrwt beam="1">  1        2 0.99843887E-02 0.91004878E+02</pdfrwt>
<pdfrwt beam="2">  1       -2 0.49081876E-02 0.91004878E+02</pdfrwt>
<totfact> 0.10892004E+05</totfact>
</mgrwt>
</event>
<event>
 5    1  0.1256986E+001  0.9044391E+02  0.7546771E-02  0.1301780E+00
          3   -1    0    0  501    0  0.00000000000E+00  0.00000000000E+00  0.20297703412E+03  0.20297703412E+03  0.00000000000E+00 0. -1.
         -3   -1    0    0    0  501 -0.00000000000E+00 -0.00000000000E+00 -0.10075156266E+02  0.10075156266E+02  0.00000000000E+00 0.  1.
         23    2    1    2    0    0  0.00000000000E+00  0.00000000000E+00  0.19290187785E+03  0.21305219038E+03  0.90443912722E+02 0.  0.
        -11    1    3    3    0    0  0.30678446008E+02 -0.25905790992E+01  0.18424981148E+02  0.35879772572E+02  0.00000000000E+00 0.  1.
         11    1    3    3    0    0 -0.30678446008E+02  0.25905790992E+01  0.17447689670E+03  0.17717241781E+03  0.00000000000E+00 0. -1.
<mgrwt>
<rscale>  0 0.90443913E+02</rscale>
<asrwt>0</asrwt>
<pdfrwt beam="1">  1        3 0.31227233E-01 0.90443913E+02</pdfrwt>
<pdfrwt beam="2">  1       -3 0.15500242E-02 0.90443913E+02</pdfrwt>
<totfact> 0.28448977E+04</totfact>
</mgrwt>
</event>
<event>
 5    1  0.1256986E+001  0.9263777E+02  0.7546771E-02  0.1296587E+00
          1   -1    0    0  501    0  0.00000000000E+00  0.00000000000E+00  0.27927391334E+02  0.27927391334E+02  0.00000000000E+00 0. -1.
         -1   -1    0    0    0  501 -0.00000000000E+00 -0.00000000000E+00 -0.76822031477E+02  0.76822031477E+02  0.00000000000E+00 0.  1.
         23    2    1    2    0    0  0.00000000000E+00  0.00000000000E+00 -0.48894640144E+02  0.10474942281E+03  0.92637766297E+02 0.  0.
        -11    1    3    3    0    0  0.30175580412E+01 -0.31484617105E+02 -0.62710071823E+02  0.70234890752E+02  0.00000000000E+00 0.  1.
         11    1    3    3    0    0 -0.30175580412E+01  0.31484617105E+02  0.13815431680E+02  0.34514532060E+02  0.00000000000E+00 0. -1.
<mgrwt>
<rscale>  0 0.92637766E+02</rscale>
<asrwt>0</asrwt>
<pdfrwt beam="1">  1        1 0.42965218E-02 0.92637766E+02</pdfrwt>
<pdfrwt beam="2">  1       -1 0.11818774E-01 0.92637766E+02</pdfrwt>
<totfact> 0.81830202E+04</totfact>
</mgrwt>
</event>
<event>
 5    1  0.1256986E+001  0.9337819E+02  0.7546771E-02  0.1294871E+00
          1   -1    0    0  501    0  0.00000000000E+00  0.00000000000E+00  0.12322138577E+02  0.12322138577E+02  0.00000000000E+00 0. -1.
         -1   -1    0    0    0  501 -0.00000000000E+00 -0.00000000000E+00 -0.17690692189E+03  0.17690692189E+03  0.00000000000E+00 0.  1.
         23    2    1    2    0    0  0.00000000000E+00  0.00000000000E+00 -0.16458478331E+03  0.18922906047E+03  0.93378190316E+02 0.  0.
        -11    1    3    3    0    0  0.30167808395E+02  0.15180385878E+02 -0.16961394837E+02  0.37791926302E+02  0.00000000000E+00 0. -1.
         11    1    3    3    0    0 -0.30167808395E+02 -0.15180385878E+02 -0.14762338848E+03  0.15143713416E+03  0.00000000000E+00 0.  1.
<mgrwt>
<rscale>  0 0.93378190E+02</rscale>
<asrwt>0</asrwt>
<pdfrwt beam="1">  1        1 0.18957137E-02 0.93378190E+02</pdfrwt>
<pdfrwt beam="2">  1       -1 0.27216449E-01 0.93378190E+02</pdfrwt>
<totfact> 0.67470234E+04</totfact>
</mgrwt>
</event>
<event>
 5    1  0.1256986E+001  0.1118001E+03  0.7546771E-02  0.1257272E+00
         -1   -1    0    0    0  501 -0.00000000000E+00  0.00000000000E+00  0.17115956377E+03  0.17115956377E+03  0.00000000000E+00 0.  1.
          1   -1    0    0  501    0  0.00000000000E+00 -0.00000000000E+00 -0.18256750254E+02  0.18256750254E+02  0.00000000000E+00 0. -1.
         23    2    1    2    0    0  0.00000000000E+00  0.00000000000E+00  0.15290281352E+03  0.18941631403E+03  0.11180013255E+03 0.  0.
        -11    1    3    3    0    0 -0.28481060343E+02 -0.18930404456E+02  0.15344284488E+01  0.34232812940E+02  0.00000000000E+00 0. -1.
         11    1    3    3    0    0  0.28481060343E+02  0.18930404456E+02  0.15136838507E+03  0.15518350109E+03  0.00000000000E+00 0.  1.
<mgrwt>
<rscale>  0 0.11180013E+03</rscale>
<asrwt>0</asrwt>
<pdfrwt beam="2">  1        1 0.28087309E-02 0.11180013E+03</pdfrwt>
<pdfrwt beam="1">  1       -1 0.26332240E-01 0.11180013E+03</pdfrwt>
<totfact> 0.42493700E+04</totfact>
</mgrwt>
</event>
<event>
 5    1  0.1256986E+001  0.9188376E+02  0.7546771E-02  0.1298353E+00
         -2   -1    0    0    0  501 -0.00000000000E+00  0.00000000000E+00  0.91969953318E+01  0.91969953318E+01  0.00000000000E+00 0.  1.
          2   -1    0    0  501    0  0.00000000000E+00 -0.00000000000E+00 -0.22949409879E+03  0.22949409879E+03  0.00000000000E+00 0. -1.
         23    2    1    2    0    0  0.00000000000E+00  0.00000000000E+00 -0.22029710346E+03  0.23869109412E+03  0.91883756024E+02 0.  0.
        -11    1    3    3    0    0 -0.71216078987E+01 -0.32956538484E+02 -0.29083517468E+02  0.44527538851E+02  0.00000000000E+00 0. -1.
         11    1    3    3    0    0  0.71216078987E+01  0.32956538484E+02 -0.19121358599E+03  0.19416355527E+03  0.00000000000E+00 0.  1.
<mgrwt>
<rscale>  0 0.91883756E+02</rscale>
<asrwt>0</asrwt>
<pdfrwt beam="2">  1        2 0.35306783E-01 0.91883756E+02</pdfrwt>
<pdfrwt beam="1">  1       -2 0.14149224E-02 0.91883756E+02</pdfrwt>
<totfact> 0.15930267E+05</totfact>
</mgrwt>
</event>
<event>
 5    1  0.1256986E+001  0.9139273E+02  0.7546771E-02  0.1299514E+00
          2   -1    0    0  501    0  0.00000000000E+00  0.00000000000E+00  0.21406034102E+03  0.21406034102E+03  0.00000000000E+00 0. -1.
         -2   -1    0    0    0  501 -0.00000000000E+00 -0.00000000000E+00 -0.97549967522E+01  0.97549967522E+01  0.00000000000E+00 0.  1.
         23    2    1    2    0    0  0.00000000000E+00  0.00000000000E+00  0.20430534427E+03  0.22381533777E+03  0.91392733440E+02 0.  0.
        -13    1    3    3    0    0  0.96219516059E+01  0.29505726912E+02  0.18429218715E+03  0.18688707852E+03  0.00000000000E+00 0. -1.
         13    1    3    3    0    0 -0.96219516059E+01 -0.29505726912E+02  0.20013157111E+02  0.36928259245E+02  0.00000000000E+00 0.  1.
<mgrwt>
<rscale>  0 0.91392733E+02</rscale>
<asrwt>0</asrwt>
<pdfrwt beam="1">  1        2 0.32932357E-01 0.91392733E+02</pdfrwt>
<pdfrwt beam="2">  1       -2 0.15007689E-02 0.91392733E+02</pdfrwt>
<totfact> 0.15754018E+05</totfact>
</mgrwt>
</event>
<event>
 5    1  0.1256986E+001  0.9080557E+02  0.7546771E-02  0.1300913E+00
          2   -1    0    0  501    0  0.00000000000E+00  0.00000000000E+00  0.10831448308E+03  0.10831448308E+03  0.00000000000E+00 0.  1.
         -2   -1    0    0    0  501 -0.00000000000E+00 -0.00000000000E+00 -0.19031739852E+02  0.19031739852E+02  0.00000000000E+00 0. -1.
         23    2    1    2    0    0  0.00000000000E+00  0.00000000000E+00  0.89282743227E+02  0.12734622293E+03  0.90805573929E+02 0.  0.
        -11    1    3    3    0    0  0.11505697960E+02  0.17574687051E+02  0.10108992660E+03  0.10324932915E+03  0.00000000000E+00 0.  1.
         11    1    3    3    0    0 -0.11505697960E+02 -0.17574687051E+02 -0.11807183374E+02  0.24096893777E+02  0.00000000000E+00 0. -1.
<mgrwt>
<rscale>  0 0.90805574E+02</rscale>
<asrwt>0</asrwt>
<pdfrwt beam="1">  1        2 0.16663766E-01 0.90805574E+02</pdfrwt>
<pdfrwt beam="2">  1       -2 0.29279601E-02 0.90805574E+02</pdfrwt>
<totfact> 0.12714593E+05</totfact>
</mgrwt>
</event>
<event>
 5    1  0.1256986E+001  0.9037521E+02  0.7546771E-02  0.1301946E+00
          1   -1    0    0  501    0  0.00000000000E+00  0.00000000000E+00  0.17471073602E+02  0.17471073602E+02  0.00000000000E+00 0. -1.
         -1   -1    0    0    0  501 -0.00000000000E+00 -0.00000000000E+00 -0.11687429869E+03  0.11687429869E+03  0.00000000000E+00 0.  1.
         23    2    1    2    0    0  0.00000000000E+00  0.00000000000E+00 -0.99403225088E+02  0.13434537229E+03  0.90375206213E+02 0.  0.
        -13    1    3    3    0    0  0.12521767998E+02  0.30645721726E+02 -0.39811265115E+01  0.33343729578E+02  0.00000000000E+00 0. -1.
         13    1    3    3    0    0 -0.12521767998E+02 -0.30645721726E+02 -0.95422098576E+02  0.10100164271E+03  0.00000000000E+00 0.  1.
<mgrwt>
<rscale>  0 0.90375206E+02</rscale>
<asrwt>0</asrwt>
<pdfrwt beam="1">  1        1 0.26878574E-02 0.90375206E+02</pdfrwt>
<pdfrwt beam="2">  1       -1 0.17980662E-01 0.90375206E+02</pdfrwt>
<totfact> 0.80773248E+04</totfact>
</mgrwt>
</event>
<event>
 5    1  0.1256986E+001  0.1008900E+03  0.7546771E-02  0.1278435E+00
          2   -1    0    0  501    0  0.00000000000E+00  0.00000000000E+00  0.46487959682E+02  0.46487959682E+02  0.00000000000E+00 0. -1.
         -2   -1    0    0    0  501 -0.00000000000E+00 -0.00000000000E+00 -0.54738841927E+02  0.54738841927E+02  0.00000000000E+00 0.  1.
         23    2    1    2    0    0  0.00000000000E+00  0.00000000000E+00 -0.82508822444E+01  0.10122680161E+03  0.10088998120E+03 0.  0.
        -13    1    3    3    0    0 -0.11812103821E+01 -0.21704700208E+02 -0.49798923607E+02  0.54336194765E+02  0.00000000000E+00 0.  1.
         13    1    3    3    0    0  0.11812103821E+01  0.21704700208E+02  0.41548041363E+02  0.46890606844E+02  0.00000000000E+00 0. -1.
<mgrwt>
<rscale>  0 0.10088998E+03</rscale>
<asrwt>0</asrwt>
<pdfrwt beam="1">  1        2 0.71519938E-02 0.10088998E+03</pdfrwt>
<pdfrwt beam="2">  1       -2 0.84213603E-02 0.10088998E+03</pdfrwt>
<totfact> 0.73959817E+04</totfact>
</mgrwt>
</event>
<event>
 5    1  0.1256986E+001  0.9335860E+02  0.7546771E-02  0.1294916E+00
         -1   -1    0    0    0  501 -0.00000000000E+00  0.00000000000E+00  0.21123593813E+03  0.21123593813E+03  0.00000000000E+00 0.  1.
          1   -1    0    0  501    0  0.00000000000E+00 -0.00000000000E+00 -0.10315275969E+02  0.10315275969E+02  0.00000000000E+00 0. -1.
         23    2    1    2    0    0  0.00000000000E+00  0.00000000000E+00  0.20092066216E+03  0.22155121410E+03  0.93358598882E+02 0.  0.
        -11    1    3    3    0    0 -0.38437086792E+02  0.24637392458E+02  0.77385317840E+02  0.89849308096E+02  0.00000000000E+00 0. -1.
         11    1    3    3    0    0  0.38437086792E+02 -0.24637392458E+02  0.12353534432E+03  0.13170190600E+03  0.00000000000E+00 0.  1.
<mgrwt>
<rscale>  0 0.93358599E+02</rscale>
<asrwt>0</asrwt>
<pdfrwt beam="2">  1        1 0.15869657E-02 0.93358599E+02</pdfrwt>
<pdfrwt beam="1">  1       -1 0.32497833E-01 0.93358599E+02</pdfrwt>
<totfact> 0.64234959E+04</totfact>
</mgrwt>
</event>
<event>
 5    1  0.1256986E+001  0.9416841E+02  0.7546771E-02  0.1293060E+00
         -2   -1    0    0    0  501 -0.00000000000E+00  0.00000000000E+00  0.83436511261E+01  0.83436511261E+01  0.00000000000E+00 0.  1.
          2   -1    0    0  501    0  0.00000000000E+00 -0.00000000000E+00 -0.26570171645E+03  0.26570171645E+03  0.00000000000E+00 0. -1.
         23    2    1    2    0    0  0.00000000000E+00  0.00000000000E+00 -0.25735806532E+03  0.27404536758E+03  0.94168411384E+02 0.  0.
        -13    1    3    3    0    0  0.41963720032E+02  0.46762415679E+01 -0.68045508626E+02  0.80081285443E+02  0.00000000000E+00 0.  1.
         13    1    3    3    0    0 -0.41963720032E+02 -0.46762415679E+01 -0.18931255670E+03  0.19396408213E+03  0.00000000000E+00 0. -1.
<mgrwt>
<rscale>  0 0.94168411E+02</rscale>
<asrwt>0</asrwt>
<pdfrwt beam="2">  1        2 0.40877193E-01 0.94168411E+02</pdfrwt>
<pdfrwt beam="1">  1       -2 0.12836384E-02 0.94168411E+02</pdfrwt>
<totfact> 0.15746779E+05</totfact>
</mgrwt>
</event>
<event>
 5    1  0.1256986E+001  0.9146611E+02  0.7546771E-02  0.1299340E+00
          2   -1    0    0  501    0  0.00000000000E+00  0.00000000000E+00  0.65710944082E+02  0.65710944082E+02  0.00000000000E+00 0. -1.
         -2   -1    0    0    0  501 -0.00000000000E+00 -0.00000000000E+00 -0.31828983277E+02  0.31828983277E+02  0.00000000000E+00 0.  1.
         23    2    1    2    0    0  0.00000000000E+00  0.00000000000E+00  0.33881960805E+02  0.97539927359E+02  0.91466114825E+02 0.  0.
        -11    1    3    3    0    0 -0.10094971493E+02  0.42811207722E+02  0.30294679114E+02  0.53408571772E+02  0.00000000000E+00 0. -1.
         11    1    3    3    0    0  0.10094971493E+02 -0.42811207722E+02  0.35872816909E+01  0.44131355587E+02  0.00000000000E+00 0.  1.
<mgrwt>
<rscale>  0 0.91466115E+02</rscale>
<asrwt>0</asrwt>
<pdfrwt beam="1">  1        2 0.10109376E-01 0.91466115E+02</pdfrwt>
<pdfrwt beam="2">  1       -2 0.48967667E-02 0.91466115E+02</pdfrwt>
<totfact> 0.10774863E+05</totfact>
</mgrwt>
</event>
<event>
 5    1  0.1256986E+001  0.9052184E+02  0.7546771E-02  0.1301593E+00
         -2   -1    0    0    0  501 -0.00000000000E+00  0.00000000000E+00  0.15064629313E+03  0.15064629313E+03  0.00000000000E+00 0.  1.
          2   -1    0    0  501    0  0.00000000000E+00 -0.00000000000E+00 -0.13598415969E+02  0.13598415969E+02  0.00000000000E+00 0. -1.
         23    2    1    2    0    0  0.00000000000E+00  0.00000000000E+00  0.13704787716E+03  0.16424470910E+03  0.90521841745E+02 0.  0.
        -13    1    3    3    0    0  0.23700945907E+01  0.42732933939E+02  0.95241551806E+02  0.10441587131E+03  0.00000000000E+00 0.  1.
         13    1    3    3    0    0 -0.23700945907E+01 -0.42732933939E+02  0.41806325354E+02  0.59828837787E+02  0.00000000000E+00 0. -1.
<mgrwt>
<rscale>  0 0.90521842E+02</rscale>
<asrwt>0</asrwt>
<pdfrwt beam="2">  1        2 0.20920641E-02 0.90521842E+02</pdfrwt>
<pdfrwt beam="1">  1       -2 0.23176352E-01 0.90521842E+02</pdfrwt>
<totfact> 0.71031362E+04</totfact>
</mgrwt>
</event>
<event>
 5    1  0.1256986E+001  0.8284039E+02  0.7546771E-02  0.1321179E+00
         -1   -1    0    0    0  501 -0.00000000000E+00  0.00000000000E+00  0.61695638905E+02  0.61695638905E+02  0.00000000000E+00 0.  1.
          1   -1    0    0  501    0  0.00000000000E+00 -0.00000000000E+00 -0.27808001542E+02  0.27808001542E+02  0.00000000000E+00 0. -1.
         23    2    1    2    0    0  0.00000000000E+00  0.00000000000E+00  0.33887637363E+02  0.89503640448E+02  0.82840386813E+02 0.  0.
        -11    1    3    3    0    0 -0.37260694742E+01  0.18744600147E+02  0.56647245685E+02  0.59784229293E+02  0.00000000000E+00 0.  1.
         11    1    3    3    0    0  0.37260694742E+01 -0.18744600147E+02 -0.22759608322E+02  0.29719411155E+02  0.00000000000E+00 0. -1.
<mgrwt>
<rscale>  0 0.82840387E+02</rscale>
<asrwt>0</asrwt>
<pdfrwt beam="2">  1        1 0.42781541E-02 0.82840387E+02</pdfrwt>
<pdfrwt beam="1">  1       -1 0.94916367E-02 0.82840387E+02</pdfrwt>
<totfact> 0.11258886E+05</totfact>
</mgrwt>
</event>
<event>
 5    1  0.1256986E+001  0.8908229E+02  0.7546771E-02  0.1305089E+00
         -1   -1    0    0    0  501 -0.00000000000E+00  0.00000000000E+00  0.55213336366E+02  0.55213336366E+02  0.00000000000E+00 0.  1.
          1   -1    0    0  501    0  0.00000000000E+00 -0.00000000000E+00 -0.35931781293E+02  0.35931781293E+02  0.00000000000E+00 0. -1.
         23    2    1    2    0    0  0.00000000000E+00  0.00000000000E+00  0.19281555073E+02  0.91145117659E+02  0.89082288402E+02 0.  0.
        -11    1    3    3    0    0  0.28507743439E+02 -0.22497969531E+02 -0.16745224276E+02  0.39990656472E+02  0.00000000000E+00 0. -1.
         11    1    3    3    0    0 -0.28507743439E+02  0.22497969531E+02  0.36026779349E+02  0.51154461186E+02  0.00000000000E+00 0.  1.
<mgrwt>
<rscale>  0 0.89082288E+02</rscale>
<asrwt>0</asrwt>
<pdfrwt beam="2">  1        1 0.55279663E-02 0.89082288E+02</pdfrwt>
<pdfrwt beam="1">  1       -1 0.84943594E-02 0.89082288E+02</pdfrwt>
<totfact> 0.95254972E+04</totfact>
</mgrwt>
</event>
<event>
 5    1  0.1256986E+001  0.7630657E+02  0.7546771E-02  0.1339872E+00
          1   -1    0    0  501    0  0.00000000000E+00  0.00000000000E+00  0.89513135965E+02  0.89513135965E+02  0.00000000000E+00 0. -1.
         -1   -1    0    0    0  501 -0.00000000000E+00 -0.00000000000E+00 -0.16262117038E+02  0.16262117038E+02  0.00000000000E+00 0.  1.
         23    2    1    2    0    0  0.00000000000E+00  0.00000000000E+00  0.73251018928E+02  0.10577525300E+03  0.76306568353E+02 0.  0.
        -11    1    3    3    0    0 -0.29900998762E+02  0.93865077735E+01  0.66788937118E+02  0.73776272449E+02  0.00000000000E+00 0.  1.
         11    1    3    3    0    0  0.29900998762E+02 -0.93865077735E+01  0.64620818100E+01  0.31998980554E+02  0.00000000000E+00 0. -1.
<mgrwt>
<rscale>  0 0.76306568E+02</rscale>
<asrwt>0</asrwt>
<pdfrwt beam="1">  1        1 0.13771251E-01 0.76306568E+02</pdfrwt>
<pdfrwt beam="2">  1       -1 0.25018642E-02 0.76306568E+02</pdfrwt>
<totfact> 0.16593935E+05</totfact>
</mgrwt>
</event>
<event>
 5    1  0.1256986E+001  0.9348627E+02  0.7546771E-02  0.1294622E+00
         -2   -1    0    0    0  501 -0.00000000000E+00  0.00000000000E+00  0.27946192421E+02  0.27946192421E+02  0.00000000000E+00 0. -1.
          2   -1    0    0  501    0  0.00000000000E+00 -0.00000000000E+00 -0.78183133546E+02  0.78183133546E+02  0.00000000000E+00 0.  1.
         23    2    1    2    0    0  0.00000000000E+00  0.00000000000E+00 -0.50236941125E+02  0.10612932597E+03  0.93486274803E+02 0.  0.
        -13    1    3    3    0    0  0.32187884468E+02  0.68653840796E+01 -0.62799663561E+02  0.70901277482E+02  0.00000000000E+00 0.  1.
         13    1    3    3    0    0 -0.32187884468E+02 -0.68653840796E+01  0.12562722436E+02  0.35228048485E+02  0.00000000000E+00 0. -1.
<mgrwt>
<rscale>  0 0.93486275E+02</rscale>
<asrwt>0</asrwt>
<pdfrwt beam="2">  1        2 0.12028174E-01 0.93486275E+02</pdfrwt>
<pdfrwt beam="1">  1       -2 0.42994143E-02 0.93486275E+02</pdfrwt>
<totfact> 0.10641262E+05</totfact>
</mgrwt>
</event>
<event>
 5    1  0.1256986E+001  0.9078823E+02  0.7546771E-02  0.1300954E+00
          1   -1    0    0  501    0  0.00000000000E+00  0.00000000000E+00  0.24909327736E+02  0.24909327736E+02  0.00000000000E+00 0. -1.
         -1   -1    0    0    0  501 -0.00000000000E+00 -0.00000000000E+00 -0.82725064515E+02  0.82725064515E+02  0.00000000000E+00 0.  1.
         23    2    1    2    0    0  0.00000000000E+00  0.00000000000E+00 -0.57815736779E+02  0.10763439225E+03  0.90788231484E+02 0.  0.
        -11    1    3    3    0    0  0.33937768342E+02 -0.63392071827E+00  0.68253755364E+01  0.34623109720E+02  0.00000000000E+00 0. -1.
         11    1    3    3    0    0 -0.33937768342E+02  0.63392071827E+00 -0.64641112315E+02  0.73011282531E+02  0.00000000000E+00 0.  1.
<mgrwt>
<rscale>  0 0.90788231E+02</rscale>
<asrwt>0</asrwt>
<pdfrwt beam="1">  1        1 0.38322043E-02 0.90788231E+02</pdfrwt>
<pdfrwt beam="2">  1       -1 0.12726933E-01 0.90788231E+02</pdfrwt>
<totfact> 0.85095510E+04</totfact>
</mgrwt>
</event>
<event>
 5    1  0.1256986E+001  0.8185837E+02  0.7546771E-02  0.1323859E+00
         -2   -1    0    0    0  501 -0.00000000000E+00  0.00000000000E+00  0.24115168958E+03  0.24115168958E+03  0.00000000000E+00 0.  1.
          2   -1    0    0  501    0  0.00000000000E+00 -0.00000000000E+00 -0.69466572319E+01  0.69466572319E+01  0.00000000000E+00 0. -1.
         23    2    1    2    0    0  0.00000000000E+00  0.00000000000E+00  0.23420503235E+03  0.24809834681E+03  0.81858368623E+02 0.  0.
        -13    1    3    3    0    0  0.40801249612E+02 -0.90054135472E+00  0.10768977670E+03  0.11516354002E+03  0.00000000000E+00 0. -1.
         13    1    3    3    0    0 -0.40801249612E+02  0.90054135472E+00  0.12651525565E+03  0.13293480680E+03  0.00000000000E+00 0.  1.
<mgrwt>
<rscale>  0 0.81858369E+02</rscale>
<asrwt>0</asrwt>
<pdfrwt beam="2">  1        2 0.10687167E-02 0.81858369E+02</pdfrwt>
<pdfrwt beam="1">  1       -2 0.37100254E-01 0.81858369E+02</pdfrwt>
<totfact> 0.75341021E+04</totfact>
</mgrwt>
</event>
<event>
 5    1  0.1256986E+001  0.9157482E+02  0.7546771E-02  0.1299082E+00
          1   -1    0    0  501    0  0.00000000000E+00  0.00000000000E+00  0.20876573682E+03  0.20876573682E+03  0.00000000000E+00 0. -1.
         -1   -1    0    0    0  501 -0.00000000000E+00 -0.00000000000E+00 -0.10042294702E+02  0.10042294702E+02  0.00000000000E+00 0.  1.
         23    2    1    2    0    0  0.00000000000E+00  0.00000000000E+00  0.19872344211E+03  0.21880803152E+03  0.91574823022E+02 0.  0.
        -11    1    3    3    0    0 -0.93671517162E+01  0.40790039385E+02  0.14373729394E+03  0.14970631421E+03  0.00000000000E+00 0. -1.
         11    1    3    3    0    0  0.93671517162E+01 -0.40790039385E+02  0.54986148169E+02  0.69101717306E+02  0.00000000000E+00 0.  1.
<mgrwt>
<rscale>  0 0.91574823E+02</rscale>
<asrwt>0</asrwt>
<pdfrwt beam="1">  1        1 0.32117802E-01 0.91574823E+02</pdfrwt>
<pdfrwt beam="2">  1       -1 0.15449686E-02 0.91574823E+02</pdfrwt>
<totfact> 0.11801018E+05</totfact>
</mgrwt>
</event>
<event>
 5    1  0.1256986E+001  0.9115190E+02  0.7546771E-02  0.1300086E+00
          1   -1    0    0  501    0  0.00000000000E+00  0.00000000000E+00  0.21231719612E+03  0.21231719612E+03  0.00000000000E+00 0. -1.
         -1   -1    0    0    0  501 -0.00000000000E+00 -0.00000000000E+00 -0.97833217441E+01  0.97833217441E+01  0.00000000000E+00 0.  1.
         23    2    1    2    0    0  0.00000000000E+00  0.00000000000E+00  0.20253387438E+03  0.22210051787E+03  0.91151904895E+02 0.  0.
        -13    1    3    3    0    0 -0.33287597307E+02  0.91059298967E+01  0.28732189491E+02  0.44905687910E+02  0.00000000000E+00 0.  1.
         13    1    3    3    0    0  0.33287597307E+02 -0.91059298967E+01  0.17380168489E+03  0.17719482996E+03  0.00000000000E+00 0. -1.
<mgrwt>
<rscale>  0 0.91151905E+02</rscale>
<asrwt>0</asrwt>
<pdfrwt beam="1">  1        1 0.32664180E-01 0.91151905E+02</pdfrwt>
<pdfrwt beam="2">  1       -1 0.15051266E-02 0.91151905E+02</pdfrwt>
<totfact> 0.11987782E+05</totfact>
</mgrwt>
</event>
<event>
 5    1  0.1256986E+001  0.8936403E+02  0.7546771E-02  0.1304399E+00
         -2   -1    0    0    0  501 -0.00000000000E+00  0.00000000000E+00  0.75092838214E+02  0.75092838214E+02  0.00000000000E+00 0.  1.
          2   -1    0    0  501    0  0.00000000000E+00 -0.00000000000E+00 -0.26586855341E+02  0.26586855341E+02  0.00000000000E+00 0. -1.
         23    2    1    2    0    0  0.00000000000E+00  0.00000000000E+00  0.48505982872E+02  0.10167969356E+03  0.89364029156E+02 0.  0.
        -11    1    3    3    0    0  0.26147591326E+02  0.32401013275E+01 -0.16807575932E+02  0.31252030294E+02  0.00000000000E+00 0.  1.
         11    1    3    3    0    0 -0.26147591326E+02 -0.32401013275E+01  0.65313558804E+02  0.70427663261E+02  0.00000000000E+00 0. -1.
<mgrwt>
<rscale>  0 0.89364029E+02</rscale>
<asrwt>0</asrwt>
<pdfrwt beam="2">  1        2 0.40902855E-02 0.89364029E+02</pdfrwt>
<pdfrwt beam="1">  1       -2 0.11552744E-01 0.89364029E+02</pdfrwt>
<totfact> 0.90924906E+04</totfact>
</mgrwt>
</event>
<event>
 5    1  0.1256986E+001  0.9148544E+02  0.7546771E-02  0.1299294E+00
          1   -1    0    0  501    0  0.00000000000E+00  0.00000000000E+00  0.10604882047E+03  0.10604882047E+03  0.00000000000E+00 0. -1.
         -1   -1    0    0    0  501 -0.00000000000E+00 -0.00000000000E+00 -0.19730502396E+02  0.19730502396E+02  0.00000000000E+00 0.  1.
         23    2    1    2    0    0  0.00000000000E+00  0.00000000000E+00  0.86318318078E+02  0.12577932287E+03  0.91485441607E+02 0.  0.
        -13    1    3    3    0    0 -0.34434043497E+02 -0.29043079208E+02  0.32229899561E+02  0.55389260937E+02  0.00000000000E+00 0. -1.
         13    1    3    3    0    0  0.34434043497E+02  0.29043079208E+02  0.54088418517E+02  0.70390061934E+02  0.00000000000E+00 0.  1.
<mgrwt>
<rscale>  0 0.91485442E+02</rscale>
<asrwt>0</asrwt>
<pdfrwt beam="1">  1        1 0.16315203E-01 0.91485442E+02</pdfrwt>
<pdfrwt beam="2">  1       -1 0.30354620E-02 0.91485442E+02</pdfrwt>
<totfact> 0.10451735E+05</totfact>
</mgrwt>
</event>
<event>
 5    1  0.1256986E+001  0.8862598E+02  0.7546771E-02  0.1306214E+00
          3   -1    0    0  501    0  0.00000000000E+00  0.00000000000E+00  0.98295237729E+02  0.98295237729E+02  0.00000000000E+00 0. -1.
         -3   -1    0    0    0  501 -0.00000000000E+00 -0.00000000000E+00 -0.19976971601E+02  0.19976971601E+02  0.00000000000E+00 0.  1.
         23    2    1    2    0    0  0.00000000000E+00  0.00000000000E+00  0.78318266128E+02  0.11827220933E+03  0.88625982029E+02 0.  0.
        -11    1    3    3    0    0 -0.30344482920E+02  0.15576191852E+02  0.76910321741E+02  0.84134434012E+02  0.00000000000E+00 0. -1.
         11    1    3    3    0    0  0.30344482920E+02 -0.15576191852E+02  0.14079443869E+01  0.34137775318E+02  0.00000000000E+00 0.  1.
<mgrwt>
<rscale>  0 0.88625982E+02</rscale>
<asrwt>0</asrwt>
<pdfrwt beam="1">  1        3 0.15122344E-01 0.88625982E+02</pdfrwt>
<pdfrwt beam="2">  1       -3 0.30733803E-02 0.88625982E+02</pdfrwt>
<totfact> 0.36029507E+04</totfact>
</mgrwt>
</event>
<event>
 5    1  0.1256986E+001  0.9047951E+02  0.7546771E-02  0.1301695E+00
         -2   -1    0    0    0  501 -0.00000000000E+00  0.00000000000E+00  0.15554782230E+03  0.15554782230E+03  0.00000000000E+00 0.  1.
          2   -1    0    0  501    0  0.00000000000E+00 -0.00000000000E+00 -0.13157595326E+02  0.13157595326E+02  0.00000000000E+00 0. -1.
         23    2    1    2    0    0  0.00000000000E+00  0.00000000000E+00  0.14239022697E+03  0.16870541763E+03  0.90479507066E+02 0.  0.
        -13    1    3    3    0    0 -0.26292117036E+02  0.36136181697E+02  0.58071894267E+02  0.73276489747E+02  0.00000000000E+00 0. -1.
         13    1    3    3    0    0  0.26292117036E+02 -0.36136181697E+02  0.84318332707E+02  0.95428927880E+02  0.00000000000E+00 0.  1.
<mgrwt>
<rscale>  0 0.90479507E+02</rscale>
<asrwt>0</asrwt>
<pdfrwt beam="2">  1        2 0.20242456E-02 0.90479507E+02</pdfrwt>
<pdfrwt beam="1">  1       -2 0.23930433E-01 0.90479507E+02</pdfrwt>
<totfact> 0.70283451E+04</totfact>
</mgrwt>
</event>
<event>
 5    1  0.1256986E+001  0.8364199E+02  0.7546771E-02  0.1319023E+00
          3   -1    0    0  501    0  0.00000000000E+00  0.00000000000E+00  0.59350046817E+02  0.59350046817E+02  0.00000000000E+00 0. -1.
         -3   -1    0    0    0  501 -0.00000000000E+00 -0.00000000000E+00 -0.29469151436E+02  0.29469151436E+02  0.00000000000E+00 0.  1.
         23    2    1    2    0    0  0.00000000000E+00  0.00000000000E+00  0.29880895382E+02  0.88819198253E+02  0.83641987480E+02 0.  0.
        -13    1    3    3    0    0  0.38232660539E+02  0.16408833813E+02  0.10434028113E+02  0.42893532166E+02  0.00000000000E+00 0.  1.
         13    1    3    3    0    0 -0.38232660539E+02 -0.16408833813E+02  0.19446867268E+02  0.45925666087E+02  0.00000000000E+00 0. -1.
<mgrwt>
<rscale>  0 0.83641987E+02</rscale>
<asrwt>0</asrwt>
<pdfrwt beam="1">  1        3 0.91307764E-02 0.83641987E+02</pdfrwt>
<pdfrwt beam="2">  1       -3 0.45337156E-02 0.83641987E+02</pdfrwt>
<totfact> 0.44866510E+04</totfact>
</mgrwt>
</event>
<event>
 5    1  0.1256986E+001  0.9051771E+02  0.7546771E-02  0.1301603E+00
          2   -1    0    0  501    0  0.00000000000E+00  0.00000000000E+00  0.34359755720E+02  0.34359755720E+02  0.00000000000E+00 0. -1.
         -2   -1    0    0    0  501 -0.00000000000E+00 -0.00000000000E+00 -0.59615206344E+02  0.59615206344E+02  0.00000000000E+00 0.  1.
         23    2    1    2    0    0  0.00000000000E+00  0.00000000000E+00 -0.25255450625E+02  0.93974962064E+02  0.90517709365E+02 0.  0.
        -11    1    3    3    0    0 -0.10213027600E+02  0.21665268174E+02  0.27240475537E+02  0.36273037994E+02  0.00000000000E+00 0. -1.
         11    1    3    3    0    0  0.10213027600E+02 -0.21665268174E+02 -0.52495926162E+02  0.57701924070E+02  0.00000000000E+00 0.  1.
<mgrwt>
<rscale>  0 0.90517709E+02</rscale>
<asrwt>0</asrwt>
<pdfrwt beam="1">  1        2 0.52861163E-02 0.90517709E+02</pdfrwt>
<pdfrwt beam="2">  1       -2 0.91715701E-02 0.90517709E+02</pdfrwt>
<totfact> 0.93663139E+04</totfact>
</mgrwt>
</event>
<event>
 5    1  0.1256986E+001  0.9061948E+02  0.7546771E-02  0.1301358E+00
          2   -1    0    0  501    0  0.00000000000E+00  0.00000000000E+00  0.16933035302E+03  0.16933035302E+03  0.00000000000E+00 0. -1.
         -2   -1    0    0    0  501 -0.00000000000E+00 -0.00000000000E+00 -0.12124066543E+02  0.12124066543E+02  0.00000000000E+00 0.  1.
         23    2    1    2    0    0  0.00000000000E+00  0.00000000000E+00  0.15720628648E+03  0.18145441957E+03  0.90619478430E+02 0.  0.
        -11    1    3    3    0    0 -0.17415519281E+02 -0.30101787492E+02  0.13676022114E+03  0.14111263589E+03  0.00000000000E+00 0. -1.
         11    1    3    3    0    0  0.17415519281E+02  0.30101787492E+02  0.20446065340E+02  0.40341783673E+02  0.00000000000E+00 0.  1.
<mgrwt>
<rscale>  0 0.90619478E+02</rscale>
<asrwt>0</asrwt>
<pdfrwt beam="1">  1        2 0.26050822E-01 0.90619478E+02</pdfrwt>
<pdfrwt beam="2">  1       -2 0.18652411E-02 0.90619478E+02</pdfrwt>
<totfact> 0.14821269E+05</totfact>
</mgrwt>
</event>
<event>
 5    1  0.1256986E+001  0.9249766E+02  0.7546771E-02  0.1296914E+00
          4   -1    0    0  501    0  0.00000000000E+00  0.00000000000E+00  0.27100598566E+02  0.27100598566E+02  0.00000000000E+00 0. -1.
         -4   -1    0    0    0  501 -0.00000000000E+00 -0.00000000000E+00 -0.78926457530E+02  0.78926457530E+02  0.00000000000E+00 0.  1.
         23    2    1    2    0    0  0.00000000000E+00  0.00000000000E+00 -0.51825858964E+02  0.10602705610E+03  0.92497659252E+02 0.  0.
        -13    1    3    3    0    0  0.29217996231E+02  0.35759280601E+02 -0.22982250897E+02  0.51581016946E+02  0.00000000000E+00 0. -1.
         13    1    3    3    0    0 -0.29217996231E+02 -0.35759280601E+02 -0.28843608067E+02  0.54446039150E+02  0.00000000000E+00 0.  1.
<mgrwt>
<rscale>  0 0.92497659E+02</rscale>
<asrwt>0</asrwt>
<pdfrwt beam="1">  1        4 0.41693229E-02 0.92497659E+02</pdfrwt>
<pdfrwt beam="2">  1       -4 0.12142532E-01 0.92497659E+02</pdfrwt>
<totfact> 0.25091031E+04</totfact>
</mgrwt>
</event>
<event>
 5    1  0.1256986E+001  0.7515141E+02  0.7546771E-02  0.1343403E+00
         -2   -1    0    0    0  501 -0.00000000000E+00  0.00000000000E+00  0.89995613694E+02  0.89995613694E+02  0.00000000000E+00 0. -1.
          2   -1    0    0  501    0  0.00000000000E+00 -0.00000000000E+00 -0.15688917123E+02  0.15688917123E+02  0.00000000000E+00 0.  1.
         23    2    1    2    0    0  0.00000000000E+00  0.00000000000E+00  0.74306696570E+02  0.10568453082E+03  0.75151413153E+02 0.  0.
        -11    1    3    3    0    0 -0.46886932339E+01 -0.26499932508E+02  0.27471004816E+00  0.26912928729E+02  0.00000000000E+00 0.  1.
         11    1    3    3    0    0  0.46886932339E+01  0.26499932508E+02  0.74031986522E+02  0.78771602088E+02  0.00000000000E+00 0. -1.
<mgrwt>
<rscale>  0 0.75151413E+02</rscale>
<asrwt>0</asrwt>
<pdfrwt beam="2">  1        2 0.24136796E-02 0.75151413E+02</pdfrwt>
<pdfrwt beam="1">  1       -2 0.13845479E-01 0.75151413E+02</pdfrwt>
<totfact> 0.13286231E+05</totfact>
</mgrwt>
</event>
<event>
 5    1  0.1256986E+001  0.8473866E+02  0.7546771E-02  0.1316117E+00
         -3   -1    0    0    0  501 -0.00000000000E+00  0.00000000000E+00  0.18192461812E+02  0.18192461812E+02  0.00000000000E+00 0.  1.
          3   -1    0    0  501    0  0.00000000000E+00 -0.00000000000E+00 -0.98676049993E+02  0.98676049993E+02  0.00000000000E+00 0. -1.
         23    2    1    2    0    0  0.00000000000E+00  0.00000000000E+00 -0.80483588181E+02  0.11686851181E+03  0.84738663460E+02 0.  0.
        -13    1    3    3    0    0  0.28055133884E+02  0.16553201996E+02 -0.28753260094E+01  0.32701170212E+02  0.00000000000E+00 0.  1.
         13    1    3    3    0    0 -0.28055133884E+02 -0.16553201996E+02 -0.77608262172E+02  0.84167341593E+02  0.00000000000E+00 0. -1.
<mgrwt>
<rscale>  0 0.84738663E+02</rscale>
<asrwt>0</asrwt>
<pdfrwt beam="2">  1        3 0.15180931E-01 0.84738663E+02</pdfrwt>
<pdfrwt beam="1">  1       -3 0.27988402E-02 0.84738663E+02</pdfrwt>
<totfact> 0.40780601E+04</totfact>
</mgrwt>
</event>
<event>
 5    1  0.1256986E+001  0.9187840E+02  0.7546771E-02  0.1298366E+00
          1   -1    0    0  501    0  0.00000000000E+00  0.00000000000E+00  0.20170826832E+03  0.20170826832E+03  0.00000000000E+00 0. -1.
         -1   -1    0    0    0  501 -0.00000000000E+00 -0.00000000000E+00 -0.10462685091E+02  0.10462685091E+02  0.00000000000E+00 0.  1.
         23    2    1    2    0    0  0.00000000000E+00  0.00000000000E+00  0.19124558323E+03  0.21217095341E+03  0.91878399893E+02 0.  0.
        -11    1    3    3    0    0 -0.29275953648E+02 -0.13648442637E+01  0.13930326217E+02  0.32449934521E+02  0.00000000000E+00 0.  1.
         11    1    3    3    0    0  0.29275953648E+02  0.13648442637E+01  0.17731525701E+03  0.17972101889E+03  0.00000000000E+00 0. -1.
<mgrwt>
<rscale>  0 0.91878400E+02</rscale>
<asrwt>0</asrwt>
<pdfrwt beam="1">  1        1 0.31032038E-01 0.91878400E+02</pdfrwt>
<pdfrwt beam="2">  1       -1 0.16096440E-02 0.91878400E+02</pdfrwt>
<totfact> 0.11618591E+05</totfact>
</mgrwt>
</event>
<event>
 5    1  0.1256986E+001  0.9161613E+02  0.7546771E-02  0.1298985E+00
          2   -1    0    0  501    0  0.00000000000E+00  0.00000000000E+00  0.50662255314E+02  0.50662255314E+02  0.00000000000E+00 0. -1.
         -2   -1    0    0    0  501 -0.00000000000E+00 -0.00000000000E+00 -0.41418978926E+02  0.41418978926E+02  0.00000000000E+00 0.  1.
         23    2    1    2    0    0  0.00000000000E+00  0.00000000000E+00  0.92432763882E+01  0.92081234240E+02  0.91616131445E+02 0.  0.
        -11    1    3    3    0    0  0.42155222875E+02  0.17730650320E+01 -0.13306301098E+02  0.44240979015E+02  0.00000000000E+00 0.  1.
         11    1    3    3    0    0 -0.42155222875E+02 -0.17730650320E+01  0.22549577486E+02  0.47840255226E+02  0.00000000000E+00 0. -1.
<mgrwt>
<rscale>  0 0.91616131E+02</rscale>
<asrwt>0</asrwt>
<pdfrwt beam="1">  1        2 0.77941931E-02 0.91616131E+02</pdfrwt>
<pdfrwt beam="2">  1       -2 0.63721506E-02 0.91616131E+02</pdfrwt>
<totfact> 0.10004392E+05</totfact>
</mgrwt>
</event>
<event>
 5    1  0.1256986E+001  0.8631606E+02  0.7546771E-02  0.1312026E+00
          2   -1    0    0  501    0  0.00000000000E+00  0.00000000000E+00  0.30766603881E+03  0.30766603881E+03  0.00000000000E+00 0. -1.
         -2   -1    0    0    0  501 -0.00000000000E+00 -0.00000000000E+00 -0.60540180790E+01  0.60540180790E+01  0.00000000000E+00 0.  1.
         23    2    1    2    0    0  0.00000000000E+00  0.00000000000E+00  0.30161202074E+03  0.31372005689E+03  0.86316064815E+02 0.  0.
        -13    1    3    3    0    0 -0.40522668610E+02 -0.11535389235E+02  0.18479709596E+03  0.18953922694E+03  0.00000000000E+00 0.  1.
         13    1    3    3    0    0  0.40522668610E+02  0.11535389235E+02  0.11681492478E+03  0.12418082995E+03  0.00000000000E+00 0. -1.
<mgrwt>
<rscale>  0 0.86316065E+02</rscale>
<asrwt>0</asrwt>
<pdfrwt beam="1">  1        2 0.47333225E-01 0.86316065E+02</pdfrwt>
<pdfrwt beam="2">  1       -2 0.93138764E-03 0.86316065E+02</pdfrwt>
<totfact> 0.20977715E+05</totfact>
</mgrwt>
</event>
<event>
 5    1  0.1256986E+001  0.9157650E+02  0.7546771E-02  0.1299078E+00
          1   -1    0    0  501    0  0.00000000000E+00  0.00000000000E+00  0.13143464677E+02  0.13143464677E+02  0.00000000000E+00 0. -1.
         -1   -1    0    0    0  501 -0.00000000000E+00 -0.00000000000E+00 -0.15951377285E+03  0.15951377285E+03  0.00000000000E+00 0.  1.
         23    2    1    2    0    0  0.00000000000E+00  0.00000000000E+00 -0.14637030818E+03  0.17265723753E+03  0.91576495651E+02 0.  0.
        -11    1    3    3    0    0 -0.32451350756E+02  0.24101884093E+02 -0.11373514359E+03  0.12070490408E+03  0.00000000000E+00 0.  1.
         11    1    3    3    0    0  0.32451350756E+02 -0.24101884093E+02 -0.32635164587E+02  0.51952333445E+02  0.00000000000E+00 0. -1.
<mgrwt>
<rscale>  0 0.91576496E+02</rscale>
<asrwt>0</asrwt>
<pdfrwt beam="1">  1        1 0.20220715E-02 0.91576496E+02</pdfrwt>
<pdfrwt beam="2">  1       -1 0.24540581E-01 0.91576496E+02</pdfrwt>
<totfact> 0.72864469E+04</totfact>
</mgrwt>
</event>
<event>
 5    1  0.1256986E+001  0.8824437E+02  0.7546771E-02  0.1307160E+00
         -1   -1    0    0    0  501 -0.00000000000E+00  0.00000000000E+00  0.51470294931E+02  0.51470294931E+02  0.00000000000E+00 0.  1.
          1   -1    0    0  501    0  0.00000000000E+00 -0.00000000000E+00 -0.37823119573E+02  0.37823119573E+02  0.00000000000E+00 0. -1.
         23    2    1    2    0    0  0.00000000000E+00  0.00000000000E+00  0.13647175358E+02  0.89293414504E+02  0.88244367971E+02 0.  0.
        -13    1    3    3    0    0  0.17196323758E+02  0.38671105143E+02  0.19445818200E+02  0.46575828165E+02  0.00000000000E+00 0.  1.
         13    1    3    3    0    0 -0.17196323758E+02 -0.38671105143E+02 -0.57986428422E+01  0.42717586339E+02  0.00000000000E+00 0. -1.
<mgrwt>
<rscale>  0 0.88244368E+02</rscale>
<asrwt>0</asrwt>
<pdfrwt beam="2">  1        1 0.58189415E-02 0.88244368E+02</pdfrwt>
<pdfrwt beam="1">  1       -1 0.79185069E-02 0.88244368E+02</pdfrwt>
<totfact> 0.98581969E+04</totfact>
</mgrwt>
</event>
<event>
 5    1  0.1256986E+001  0.9012441E+02  0.7546771E-02  0.1302551E+00
         -3   -1    0    0    0  501 -0.00000000000E+00  0.00000000000E+00  0.15206108866E+02  0.15206108866E+02  0.00000000000E+00 0.  1.
          3   -1    0    0  501    0  0.00000000000E+00 -0.00000000000E+00 -0.13353858194E+03  0.13353858194E+03  0.00000000000E+00 0. -1.
         23    2    1    2    0    0  0.00000000000E+00  0.00000000000E+00 -0.11833247307E+03  0.14874469080E+03  0.90124407676E+02 0.  0.
        -11    1    3    3    0    0  0.24192416276E+02  0.92825114307E+00  0.35605365303E+01  0.24470637014E+02  0.00000000000E+00 0.  1.
         11    1    3    3    0    0 -0.24192416276E+02 -0.92825114307E+00 -0.12189300960E+03  0.12427405379E+03  0.00000000000E+00 0. -1.
<mgrwt>
<rscale>  0 0.90124408E+02</rscale>
<asrwt>0</asrwt>
<pdfrwt beam="2">  1        3 0.20544397E-01 0.90124408E+02</pdfrwt>
<pdfrwt beam="1">  1       -3 0.23394014E-02 0.90124408E+02</pdfrwt>
<totfact> 0.32384498E+04</totfact>
</mgrwt>
</event>
<event>
 5    1  0.1256986E+001  0.8934285E+02  0.7546771E-02  0.1304451E+00
         -1   -1    0    0    0  501 -0.00000000000E+00  0.00000000000E+00  0.10442647469E+03  0.10442647469E+03  0.00000000000E+00 0.  1.
          1   -1    0    0  501    0  0.00000000000E+00 -0.00000000000E+00 -0.19109486539E+02  0.19109486539E+02  0.00000000000E+00 0. -1.
         23    2    1    2    0    0  0.00000000000E+00  0.00000000000E+00  0.85316988153E+02  0.12353596123E+03  0.89342852258E+02 0.  0.
        -11    1    3    3    0    0  0.32348444462E+01  0.44496599962E+02  0.45788658849E+02  0.63929749773E+02  0.00000000000E+00 0.  1.
         11    1    3    3    0    0 -0.32348444462E+01 -0.44496599962E+02  0.39528329304E+02  0.59606211458E+02  0.00000000000E+00 0. -1.
<mgrwt>
<rscale>  0 0.89342852E+02</rscale>
<asrwt>0</asrwt>
<pdfrwt beam="2">  1        1 0.29399211E-02 0.89342852E+02</pdfrwt>
<pdfrwt beam="1">  1       -1 0.16065611E-01 0.89342852E+02</pdfrwt>
<totfact> 0.85045864E+04</totfact>
</mgrwt>
</event>
<event>
 5    1  0.1256986E+001  0.9066374E+02  0.7546771E-02  0.1301252E+00
          2   -1    0    0  501    0  0.00000000000E+00  0.00000000000E+00  0.24775110236E+03  0.24775110236E+03  0.00000000000E+00 0.  1.
         -2   -1    0    0    0  501 -0.00000000000E+00 -0.00000000000E+00 -0.82945282822E+01  0.82945282822E+01  0.00000000000E+00 0. -1.
         23    2    1    2    0    0  0.00000000000E+00  0.00000000000E+00  0.23945657407E+03  0.25604563064E+03  0.90663741935E+02 0.  0.
        -13    1    3    3    0    0  0.29995282047E+02 -0.29038811537E+02  0.16961297887E+03  0.17467550522E+03  0.00000000000E+00 0.  1.
         13    1    3    3    0    0 -0.29995282047E+02  0.29038811537E+02  0.69843595203E+02  0.81370125423E+02  0.00000000000E+00 0. -1.
<mgrwt>
<rscale>  0 0.90663742E+02</rscale>
<asrwt>0</asrwt>
<pdfrwt beam="1">  1        2 0.38115549E-01 0.90663742E+02</pdfrwt>
<pdfrwt beam="2">  1       -2 0.12760815E-02 0.90663742E+02</pdfrwt>
<totfact> 0.16984666E+05</totfact>
</mgrwt>
</event>
<event>
 5    1  0.1256986E+001  0.9092667E+02  0.7546771E-02  0.1300623E+00
          1   -1    0    0  501    0  0.00000000000E+00  0.00000000000E+00  0.15138669644E+03  0.15138669644E+03  0.00000000000E+00 0. -1.
         -1   -1    0    0    0  501 -0.00000000000E+00 -0.00000000000E+00 -0.13653212802E+02  0.13653212802E+02  0.00000000000E+00 0.  1.
         23    2    1    2    0    0  0.00000000000E+00  0.00000000000E+00  0.13773348363E+03  0.16503990924E+03  0.90926668954E+02 0.  0.
        -11    1    3    3    0    0 -0.30337630571E+02  0.12524626884E+02  0.11765656600E+02  0.34866442068E+02  0.00000000000E+00 0.  1.
         11    1    3    3    0    0  0.30337630571E+02 -0.12524626884E+02  0.12596782703E+03  0.13017346717E+03  0.00000000000E+00 0. -1.
<mgrwt>
<rscale>  0 0.90926669E+02</rscale>
<asrwt>0</asrwt>
<pdfrwt beam="1">  1        1 0.23290260E-01 0.90926669E+02</pdfrwt>
<pdfrwt beam="2">  1       -1 0.21004944E-02 0.90926669E+02</pdfrwt>
<totfact> 0.11315824E+05</totfact>
</mgrwt>
</event>
<event>
 5    1  0.1256986E+001  0.9077050E+02  0.7546771E-02  0.1300996E+00
          3   -1    0    0  501    0  0.00000000000E+00  0.00000000000E+00  0.11088032820E+02  0.11088032820E+02  0.00000000000E+00 0. -1.
         -3   -1    0    0    0  501 -0.00000000000E+00 -0.00000000000E+00 -0.18576972874E+03  0.18576972874E+03  0.00000000000E+00 0.  1.
         23    2    1    2    0    0  0.00000000000E+00  0.00000000000E+00 -0.17468169592E+03  0.19685776156E+03  0.90770498496E+02 0.  0.
        -11    1    3    3    0    0 -0.28477158946E+02  0.92554826949E+01 -0.16130760355E+03  0.16406326677E+03  0.00000000000E+00 0.  1.
         11    1    3    3    0    0  0.28477158946E+02 -0.92554826949E+01 -0.13374092369E+02  0.32794494785E+02  0.00000000000E+00 0. -1.
<mgrwt>
<rscale>  0 0.90770498E+02</rscale>
<asrwt>0</asrwt>
<pdfrwt beam="1">  1        3 0.17058512E-02 0.90770498E+02</pdfrwt>
<pdfrwt beam="2">  1       -3 0.28579958E-01 0.90770498E+02</pdfrwt>
<totfact> 0.29008018E+04</totfact>
</mgrwt>
</event>
<event>
 5    1  0.1256986E+001  0.9245976E+02  0.7546771E-02  0.1297002E+00
         -4   -1    0    0    0  501 -0.00000000000E+00  0.00000000000E+00  0.10716005278E+03  0.10716005278E+03  0.00000000000E+00 0. -1.
          4   -1    0    0  501    0  0.00000000000E+00 -0.00000000000E+00 -0.19944015897E+02  0.19944015897E+02  0.00000000000E+00 0.  1.
         23    2    1    2    0    0  0.00000000000E+00  0.00000000000E+00  0.87216036883E+02  0.12710406868E+03  0.92459759814E+02 0.  0.
        -11    1    3    3    0    0  0.11192465602E+02  0.44021435369E+02  0.31778941420E+02  0.55435179949E+02  0.00000000000E+00 0. -1.
         11    1    3    3    0    0 -0.11192465602E+02 -0.44021435369E+02  0.55437095463E+02  0.71668888729E+02  0.00000000000E+00 0.  1.
<mgrwt>
<rscale>  0 0.92459760E+02</rscale>
<asrwt>0</asrwt>
<pdfrwt beam="2">  1        4 0.30683102E-02 0.92459760E+02</pdfrwt>
<pdfrwt beam="1">  1       -4 0.16486162E-01 0.92459760E+02</pdfrwt>
<totfact> 0.23952840E+04</totfact>
</mgrwt>
</event>
<event>
 5    1  0.1256986E+001  0.9071864E+02  0.7546771E-02  0.1301121E+00
         -2   -1    0    0    0  501 -0.00000000000E+00  0.00000000000E+00  0.10784867793E+03  0.10784867793E+03  0.00000000000E+00 0. -1.
          2   -1    0    0  501    0  0.00000000000E+00 -0.00000000000E+00 -0.19077359130E+02  0.19077359130E+02  0.00000000000E+00 0.  1.
         23    2    1    2    0    0  0.00000000000E+00  0.00000000000E+00  0.88771318799E+02  0.12692603706E+03  0.90718641097E+02 0.  0.
        -11    1    3    3    0    0  0.24830518612E+02  0.14350077401E+02 -0.47826930473E+01  0.29074963951E+02  0.00000000000E+00 0.  1.
         11    1    3    3    0    0 -0.24830518612E+02 -0.14350077401E+02  0.93554011846E+02  0.97851073109E+02  0.00000000000E+00 0. -1.
<mgrwt>
<rscale>  0 0.90718641E+02</rscale>
<asrwt>0</asrwt>
<pdfrwt beam="2">  1        2 0.29349784E-02 0.90718641E+02</pdfrwt>
<pdfrwt beam="1">  1       -2 0.16592104E-01 0.90718641E+02</pdfrwt>
<totfact> 0.78987219E+04</totfact>
</mgrwt>
</event>
<event>
 5    1  0.1256986E+001  0.8892345E+02  0.7546771E-02  0.1305480E+00
          1   -1    0    0  501    0  0.00000000000E+00  0.00000000000E+00  0.18867830317E+02  0.18867830317E+02  0.00000000000E+00 0. -1.
         -1   -1    0    0    0  501 -0.00000000000E+00 -0.00000000000E+00 -0.10477330344E+03  0.10477330344E+03  0.00000000000E+00 0.  1.
         23    2    1    2    0    0  0.00000000000E+00  0.00000000000E+00 -0.85905473119E+02  0.12364113375E+03  0.88923448224E+02 0.  0.
        -11    1    3    3    0    0  0.42209855441E+02  0.95403442265E+01 -0.57142868240E+02  0.71679825997E+02  0.00000000000E+00 0.  1.
         11    1    3    3    0    0 -0.42209855441E+02 -0.95403442265E+01 -0.28762604879E+02  0.51961307756E+02  0.00000000000E+00 0. -1.
<mgrwt>
<rscale>  0 0.88923448E+02</rscale>
<asrwt>0</asrwt>
<pdfrwt beam="1">  1        1 0.29027431E-02 0.88923448E+02</pdfrwt>
<pdfrwt beam="2">  1       -1 0.16118970E-01 0.88923448E+02</pdfrwt>
<totfact> 0.86028015E+04</totfact>
</mgrwt>
</event>
<event>
 5    1  0.1256986E+001  0.7974576E+02  0.7546771E-02  0.1329774E+00
          1   -1    0    0  501    0  0.00000000000E+00  0.00000000000E+00  0.78609514877E+02  0.78609514877E+02  0.00000000000E+00 0. -1.
         -1   -1    0    0    0  501 -0.00000000000E+00 -0.00000000000E+00 -0.20224605674E+02  0.20224605674E+02  0.00000000000E+00 0.  1.
         23    2    1    2    0    0  0.00000000000E+00  0.00000000000E+00  0.58384909203E+02  0.98834120551E+02  0.79745757018E+02 0.  0.
        -11    1    3    3    0    0  0.21885447386E+02 -0.32066485094E+02  0.17927574305E+02  0.42762485826E+02  0.00000000000E+00 0.  1.
         11    1    3    3    0    0 -0.21885447386E+02  0.32066485094E+02  0.40457334899E+02  0.56071634724E+02  0.00000000000E+00 0. -1.
<mgrwt>
<rscale>  0 0.79745757E+02</rscale>
<asrwt>0</asrwt>
<pdfrwt beam="1">  1        1 0.12093771E-01 0.79745757E+02</pdfrwt>
<pdfrwt beam="2">  1       -1 0.31114778E-02 0.79745757E+02</pdfrwt>
<totfact> 0.14462945E+05</totfact>
</mgrwt>
</event>
<event>
 5    1  0.1256986E+001  0.9330515E+02  0.7546771E-02  0.1295040E+00
         -2   -1    0    0    0  501 -0.00000000000E+00  0.00000000000E+00  0.77576632025E+01  0.77576632025E+01  0.00000000000E+00 0.  1.
          2   -1    0    0  501    0  0.00000000000E+00 -0.00000000000E+00 -0.28055646124E+03  0.28055646124E+03  0.00000000000E+00 0. -1.
         23    2    1    2    0    0  0.00000000000E+00  0.00000000000E+00 -0.27279879804E+03  0.28831412444E+03  0.93305145315E+02 0.  0.
        -11    1    3    3    0    0 -0.36303173625E+02 -0.29278956990E+02 -0.13990189570E+03  0.14747107566E+03  0.00000000000E+00 0. -1.
         11    1    3    3    0    0  0.36303173625E+02  0.29278956990E+02 -0.13289690234E+03  0.14084304878E+03  0.00000000000E+00 0.  1.
<mgrwt>
<rscale>  0 0.93305145E+02</rscale>
<asrwt>0</asrwt>
<pdfrwt beam="2">  1        2 0.43162533E-01 0.93305145E+02</pdfrwt>
<pdfrwt beam="1">  1       -2 0.11934866E-02 0.93305145E+02</pdfrwt>
<totfact> 0.16473128E+05</totfact>
</mgrwt>
</event>
<event>
 5    1  0.1256986E+001  0.8593828E+02  0.7546771E-02  0.1312997E+00
          3   -1    0    0  501    0  0.00000000000E+00  0.00000000000E+00  0.92907107045E+02  0.92907107045E+02  0.00000000000E+00 0. -1.
         -3   -1    0    0    0  501 -0.00000000000E+00 -0.00000000000E+00 -0.19873044708E+02  0.19873044708E+02  0.00000000000E+00 0.  1.
         23    2    1    2    0    0  0.00000000000E+00  0.00000000000E+00  0.73034062337E+02  0.11278015175E+03  0.85938282320E+02 0.  0.
        -13    1    3    3    0    0  0.21132742186E+02  0.19307023513E+02  0.78573206783E+02  0.83624773683E+02  0.00000000000E+00 0. -1.
         13    1    3    3    0    0 -0.21132742186E+02 -0.19307023513E+02 -0.55391444466E+01  0.29155378071E+02  0.00000000000E+00 0.  1.
<mgrwt>
<rscale>  0 0.85938282E+02</rscale>
<asrwt>0</asrwt>
<pdfrwt beam="1">  1        3 0.14293401E-01 0.85938282E+02</pdfrwt>
<pdfrwt beam="2">  1       -3 0.30573915E-02 0.85938282E+02</pdfrwt>
<totfact> 0.39603995E+04</totfact>
</mgrwt>
</event>
<event>
 5    1  0.1256986E+001  0.9041666E+02  0.7546771E-02  0.1301846E+00
         -3   -1    0    0    0  501 -0.00000000000E+00  0.00000000000E+00  0.25055305824E+02  0.25055305824E+02  0.00000000000E+00 0.  1.
          3   -1    0    0  501    0  0.00000000000E+00 -0.00000000000E+00 -0.81571261010E+02  0.81571261010E+02  0.00000000000E+00 0. -1.
         23    2    1    2    0    0  0.00000000000E+00  0.00000000000E+00 -0.56515955186E+02  0.10662656683E+03  0.90416655348E+02 0.  0.
        -11    1    3    3    0    0  0.13414769099E+02 -0.30670889217E+02  0.75722217345E+01  0.34321975720E+02  0.00000000000E+00 0.  1.
         11    1    3    3    0    0 -0.13414769099E+02  0.30670889217E+02 -0.64088176920E+02  0.72304591115E+02  0.00000000000E+00 0. -1.
<mgrwt>
<rscale>  0 0.90416655E+02</rscale>
<asrwt>0</asrwt>
<pdfrwt beam="2">  1        3 0.12549425E-01 0.90416655E+02</pdfrwt>
<pdfrwt beam="1">  1       -3 0.38546624E-02 0.90416655E+02</pdfrwt>
<totfact> 0.34972613E+04</totfact>
</mgrwt>
</event>
<event>
 5    1  0.1256986E+001  0.9356879E+02  0.7546771E-02  0.1294432E+00
          3   -1    0    0  501    0  0.00000000000E+00  0.00000000000E+00  0.36357356062E+02  0.36357356062E+02  0.00000000000E+00 0. -1.
         -3   -1    0    0    0  501 -0.00000000000E+00 -0.00000000000E+00 -0.60201839721E+02  0.60201839721E+02  0.00000000000E+00 0.  1.
         23    2    1    2    0    0  0.00000000000E+00  0.00000000000E+00 -0.23844483658E+02  0.96559195783E+02  0.93568792283E+02 0.  0.
        -11    1    3    3    0    0  0.17288514895E+02  0.43139746364E+02 -0.63794324277E+01  0.46910847591E+02  0.00000000000E+00 0.  1.
         11    1    3    3    0    0 -0.17288514895E+02 -0.43139746364E+02 -0.17465051231E+02  0.49648348191E+02  0.00000000000E+00 0. -1.
<mgrwt>
<rscale>  0 0.93568792E+02</rscale>
<asrwt>0</asrwt>
<pdfrwt beam="1">  1        3 0.55934395E-02 0.93568792E+02</pdfrwt>
<pdfrwt beam="2">  1       -3 0.92618214E-02 0.93568792E+02</pdfrwt>
<totfact> 0.32544508E+04</totfact>
</mgrwt>
</event>
<event>
 5    1  0.1256986E+001  0.1134442E+03  0.7546771E-02  0.1254321E+00
         -3   -1    0    0    0  501 -0.00000000000E+00  0.00000000000E+00  0.45726817410E+02  0.45726817410E+02  0.00000000000E+00 0.  1.
          3   -1    0    0  501    0  0.00000000000E+00 -0.00000000000E+00 -0.70361324044E+02  0.70361324044E+02  0.00000000000E+00 0. -1.
         23    2    1    2    0    0  0.00000000000E+00  0.00000000000E+00 -0.24634506634E+02  0.11608814145E+03  0.11344424917E+03 0.  0.
        -13    1    3    3    0    0  0.14426666175E+02  0.50570417227E+02  0.94362037114E+01  0.53427874148E+02  0.00000000000E+00 0.  1.
         13    1    3    3    0    0 -0.14426666175E+02 -0.50570417227E+02 -0.34070710345E+02  0.62660267306E+02  0.00000000000E+00 0. -1.
<mgrwt>
<rscale>  0 0.11344425E+03</rscale>
<asrwt>0</asrwt>
<pdfrwt beam="2">  1        3 0.10824819E-01 0.11344425E+03</pdfrwt>
<pdfrwt beam="1">  1       -3 0.70348950E-02 0.11344425E+03</pdfrwt>
<totfact> 0.18357761E+04</totfact>
</mgrwt>
</event>
<event>
 5    1  0.1256986E+001  0.8883364E+02  0.7546771E-02  0.1305701E+00
         -1   -1    0    0    0  501 -0.00000000000E+00  0.00000000000E+00  0.12201025186E+03  0.12201025186E+03  0.00000000000E+00 0.  1.
          1   -1    0    0  501    0  0.00000000000E+00 -0.00000000000E+00 -0.16169573545E+02  0.16169573545E+02  0.00000000000E+00 0. -1.
         23    2    1    2    0    0  0.00000000000E+00  0.00000000000E+00  0.10584067832E+03  0.13817982541E+03  0.88833636438E+02 0.  0.
        -11    1    3    3    0    0 -0.15081504067E+02  0.12347725259E+02  0.11500242729E+03  0.11664251527E+03  0.00000000000E+00 0.  1.
         11    1    3    3    0    0  0.15081504067E+02 -0.12347725259E+02 -0.91617489733E+01  0.21537310144E+02  0.00000000000E+00 0. -1.
<mgrwt>
<rscale>  0 0.88833636E+02</rscale>
<asrwt>0</asrwt>
<pdfrwt beam="2">  1        1 0.24876268E-02 0.88833636E+02</pdfrwt>
<pdfrwt beam="1">  1       -1 0.18770807E-01 0.88833636E+02</pdfrwt>
<totfact> 0.83706061E+04</totfact>
</mgrwt>
</event>
<event>
 5    1  0.1256986E+001  0.9059468E+02  0.7546771E-02  0.1301418E+00
         -2   -1    0    0    0  501 -0.00000000000E+00  0.00000000000E+00  0.24331852941E+02  0.24331852941E+02  0.00000000000E+00 0.  1.
          2   -1    0    0  501    0  0.00000000000E+00 -0.00000000000E+00 -0.84327685253E+02  0.84327685253E+02  0.00000000000E+00 0. -1.
         23    2    1    2    0    0  0.00000000000E+00  0.00000000000E+00 -0.59995832313E+02  0.10865953819E+03  0.90594676144E+02 0.  0.
        -11    1    3    3    0    0 -0.24641750058E+02  0.30519867366E+02 -0.28275120135E+01  0.39327763402E+02  0.00000000000E+00 0.  1.
         11    1    3    3    0    0  0.24641750058E+02 -0.30519867366E+02 -0.57168320299E+02  0.69331774792E+02  0.00000000000E+00 0. -1.
<mgrwt>
<rscale>  0 0.90594676E+02</rscale>
<asrwt>0</asrwt>
<pdfrwt beam="2">  1        2 0.12973490E-01 0.90594676E+02</pdfrwt>
<pdfrwt beam="1">  1       -2 0.37433619E-02 0.90594676E+02</pdfrwt>
<totfact> 0.11869960E+05</totfact>
</mgrwt>
</event>
<event>
 5    1  0.1256986E+001  0.7119845E+02  0.7546771E-02  0.1356064E+00
         -1   -1    0    0    0  501 -0.00000000000E+00  0.00000000000E+00  0.36356048683E+02  0.36356048683E+02  0.00000000000E+00 0. -1.
          1   -1    0    0  501    0  0.00000000000E+00 -0.00000000000E+00 -0.34858158983E+02  0.34858158983E+02  0.00000000000E+00 0.  1.
         23    2    1    2    0    0  0.00000000000E+00  0.00000000000E+00  0.14978896997E+01  0.71214207666E+02  0.71198452932E+02 0.  0.
        -11    1    3    3    0    0  0.86351480534E+01 -0.32450325152E+02 -0.11073803550E+02  0.35358429114E+02  0.00000000000E+00 0.  1.
         11    1    3    3    0    0 -0.86351480534E+01  0.32450325152E+02  0.12571693250E+02  0.35855778552E+02  0.00000000000E+00 0. -1.
<mgrwt>
<rscale>  0 0.71198453E+02</rscale>
<asrwt>0</asrwt>
<pdfrwt beam="2">  1        1 0.53627937E-02 0.71198453E+02</pdfrwt>
<pdfrwt beam="1">  1       -1 0.55932382E-02 0.71198453E+02</pdfrwt>
<totfact> 0.17668974E+05</totfact>
</mgrwt>
</event>
<event>
 5    1  0.1256986E+001  0.8851850E+02  0.7546771E-02  0.1306480E+00
          1   -1    0    0  501    0  0.00000000000E+00  0.00000000000E+00  0.58521870375E+02  0.58521870375E+02  0.00000000000E+00 0. -1.
         -1   -1    0    0    0  501 -0.00000000000E+00 -0.00000000000E+00 -0.33472635135E+02  0.33472635135E+02  0.00000000000E+00 0.  1.
         23    2    1    2    0    0  0.00000000000E+00  0.00000000000E+00  0.25049235240E+02  0.91994505510E+02  0.88518500088E+02 0.  0.
        -13    1    3    3    0    0 -0.94239274335E+01 -0.29302782416E+02  0.45576266334E+02  0.54996904627E+02  0.00000000000E+00 0. -1.
         13    1    3    3    0    0  0.94239274335E+01  0.29302782416E+02 -0.20527031094E+02  0.36997600883E+02  0.00000000000E+00 0.  1.
<mgrwt>
<rscale>  0 0.88518500E+02</rscale>
<asrwt>0</asrwt>
<pdfrwt beam="1">  1        1 0.90033647E-02 0.88518500E+02</pdfrwt>
<pdfrwt beam="2">  1       -1 0.51496362E-02 0.88518500E+02</pdfrwt>
<totfact> 0.10420292E+05</totfact>
</mgrwt>
</event>
<event>
 5    1  0.1256986E+001  0.9329808E+02  0.7546771E-02  0.1295056E+00
         -2   -1    0    0    0  501 -0.00000000000E+00  0.00000000000E+00  0.27073676585E+02  0.27073676585E+02  0.00000000000E+00 0.  1.
          2   -1    0    0  501    0  0.00000000000E+00 -0.00000000000E+00 -0.80378178910E+02  0.80378178910E+02  0.00000000000E+00 0. -1.
         23    2    1    2    0    0  0.00000000000E+00  0.00000000000E+00 -0.53304502325E+02  0.10745185550E+03  0.93298077586E+02 0.  0.
        -13    1    3    3    0    0 -0.42046447493E+02  0.19529459762E+02 -0.20686767071E+02  0.50766582289E+02  0.00000000000E+00 0.  1.
         13    1    3    3    0    0  0.42046447493E+02 -0.19529459762E+02 -0.32617735254E+02  0.56685273206E+02  0.00000000000E+00 0. -1.
<mgrwt>
<rscale>  0 0.93298078E+02</rscale>
<asrwt>0</asrwt>
<pdfrwt beam="2">  1        2 0.12365874E-01 0.93298078E+02</pdfrwt>
<pdfrwt beam="1">  1       -2 0.41651810E-02 0.93298078E+02</pdfrwt>
<totfact> 0.10787208E+05</totfact>
</mgrwt>
</event>
<event>
 5    1  0.1256986E+001  0.9118795E+02  0.7546771E-02  0.1300000E+00
         -1   -1    0    0    0  501 -0.00000000000E+00  0.00000000000E+00  0.12789722558E+03  0.12789722558E+03  0.00000000000E+00 0.  1.
          1   -1    0    0  501    0  0.00000000000E+00 -0.00000000000E+00 -0.16253756401E+02  0.16253756401E+02  0.00000000000E+00 0. -1.
         23    2    1    2    0    0  0.00000000000E+00  0.00000000000E+00  0.11164346918E+03  0.14415098198E+03  0.91187945450E+02 0.  0.
        -13    1    3    3    0    0 -0.16989038560E+02 -0.30544848396E+02  0.10210457756E+03  0.10792108206E+03  0.00000000000E+00 0. -1.
         13    1    3    3    0    0  0.16989038560E+02  0.30544848396E+02  0.95388916173E+01  0.36229899917E+02  0.00000000000E+00 0.  1.
<mgrwt>
<rscale>  0 0.91187945E+02</rscale>
<asrwt>0</asrwt>
<pdfrwt beam="2">  1        1 0.25005780E-02 0.91187945E+02</pdfrwt>
<pdfrwt beam="1">  1       -1 0.19676496E-01 0.91187945E+02</pdfrwt>
<totfact> 0.77469598E+04</totfact>
</mgrwt>
</event>
<event>
 5    1  0.1256986E+001  0.9198553E+02  0.7546771E-02  0.1298113E+00
         -4   -1    0    0    0  501 -0.00000000000E+00  0.00000000000E+00  0.25798184459E+02  0.25798184459E+02  0.00000000000E+00 0.  1.
          4   -1    0    0  501    0  0.00000000000E+00 -0.00000000000E+00 -0.81995469168E+02  0.81995469168E+02  0.00000000000E+00 0. -1.
         23    2    1    2    0    0  0.00000000000E+00  0.00000000000E+00 -0.56197284709E+02  0.10779365363E+03  0.91985525783E+02 0.  0.
        -13    1    3    3    0    0 -0.81342584864E+01  0.13015787532E+02  0.22708479489E+02  0.27408975298E+02  0.00000000000E+00 0.  1.
         13    1    3    3    0    0  0.81342584864E+01 -0.13015787532E+02 -0.78905764198E+02  0.80384678328E+02  0.00000000000E+00 0. -1.
<mgrwt>
<rscale>  0 0.91985526E+02</rscale>
<asrwt>0</asrwt>
<pdfrwt beam="2">  1        4 0.12614688E-01 0.91985526E+02</pdfrwt>
<pdfrwt beam="1">  1       -4 0.39689515E-02 0.91985526E+02</pdfrwt>
<totfact> 0.25368976E+04</totfact>
</mgrwt>
</event>
<event>
 5    1  0.1256986E+001  0.9054916E+02  0.7546771E-02  0.1301527E+00
         -1   -1    0    0    0  501 -0.00000000000E+00  0.00000000000E+00  0.47408639102E+01  0.47408639102E+01  0.00000000000E+00 0.  1.
          1   -1    0    0  501    0  0.00000000000E+00 -0.00000000000E+00 -0.43236584272E+03  0.43236584272E+03  0.00000000000E+00 0. -1.
         23    2    1    2    0    0  0.00000000000E+00  0.00000000000E+00 -0.42762497881E+03  0.43710670663E+03  0.90549160565E+02 0.  0.
        -11    1    3    3    0    0 -0.12848195001E+02  0.43412933054E+02 -0.21299400313E+03  0.21775262166E+03  0.00000000000E+00 0. -1.
         11    1    3    3    0    0  0.12848195001E+02 -0.43412933054E+02 -0.21463097567E+03  0.21935408496E+03  0.00000000000E+00 0.  1.
<mgrwt>
<rscale>  0 0.90549161E+02</rscale>
<asrwt>0</asrwt>
<pdfrwt beam="2">  1        1 0.66517814E-01 0.90549161E+02</pdfrwt>
<pdfrwt beam="1">  1       -1 0.72936377E-03 0.90549161E+02</pdfrwt>
<totfact> 0.13907837E+05</totfact>
</mgrwt>
</event>
<event>
 5    1  0.1256986E+001  0.9136383E+02  0.7546771E-02  0.1299582E+00
         -4   -1    0    0    0  501 -0.00000000000E+00  0.00000000000E+00  0.33550731695E+02  0.33550731695E+02  0.00000000000E+00 0.  1.
          4   -1    0    0  501    0  0.00000000000E+00 -0.00000000000E+00 -0.62199461908E+02  0.62199461908E+02  0.00000000000E+00 0. -1.
         23    2    1    2    0    0  0.00000000000E+00  0.00000000000E+00 -0.28648730213E+02  0.95750193603E+02  0.91363832188E+02 0.  0.
        -13    1    3    3    0    0  0.44915214404E+02  0.58087195934E+01 -0.20587900812E+02  0.49749164496E+02  0.00000000000E+00 0.  1.
         13    1    3    3    0    0 -0.44915214404E+02 -0.58087195934E+01 -0.80608294010E+01  0.46001029107E+02  0.00000000000E+00 0. -1.
<mgrwt>
<rscale>  0 0.91363832E+02</rscale>
<asrwt>0</asrwt>
<pdfrwt beam="2">  1        4 0.95691478E-02 0.91363832E+02</pdfrwt>
<pdfrwt beam="1">  1       -4 0.51616511E-02 0.91363832E+02</pdfrwt>
<totfact> 0.26575797E+04</totfact>
</mgrwt>
</event>
<event>
 5    1  0.1256986E+001  0.9349268E+02  0.7546771E-02  0.1294607E+00
         -3   -1    0    0    0  501 -0.00000000000E+00  0.00000000000E+00  0.29523083784E+02  0.29523083784E+02  0.00000000000E+00 0.  1.
          3   -1    0    0  501    0  0.00000000000E+00 -0.00000000000E+00 -0.74017353695E+02  0.74017353695E+02  0.00000000000E+00 0. -1.
         23    2    1    2    0    0  0.00000000000E+00  0.00000000000E+00 -0.44494269911E+02  0.10354043748E+03  0.93492684946E+02 0.  0.
        -13    1    3    3    0    0 -0.19372608016E+01  0.46438423042E+02 -0.16716382131E+02  0.49393496997E+02  0.00000000000E+00 0.  1.
         13    1    3    3    0    0  0.19372608016E+01 -0.46438423042E+02 -0.27777887780E+02  0.54146940482E+02  0.00000000000E+00 0. -1.
<mgrwt>
<rscale>  0 0.93492685E+02</rscale>
<asrwt>0</asrwt>
<pdfrwt beam="2">  1        3 0.11387285E-01 0.93492685E+02</pdfrwt>
<pdfrwt beam="1">  1       -3 0.45420129E-02 0.93492685E+02</pdfrwt>
<totfact> 0.32133880E+04</totfact>
</mgrwt>
</event>
<event>
 5    1  0.1256986E+001  0.9337254E+02  0.7546771E-02  0.1294884E+00
          2   -1    0    0  501    0  0.00000000000E+00  0.00000000000E+00  0.71629925870E+02  0.71629925870E+02  0.00000000000E+00 0. -1.
         -2   -1    0    0    0  501 -0.00000000000E+00 -0.00000000000E+00 -0.30428734643E+02  0.30428734643E+02  0.00000000000E+00 0.  1.
         23    2    1    2    0    0  0.00000000000E+00  0.00000000000E+00  0.41201191227E+02  0.10205866051E+03  0.93372544291E+02 0.  0.
        -11    1    3    3    0    0 -0.40719758937E+02  0.20827666021E+02  0.10363565992E+02  0.46896630368E+02  0.00000000000E+00 0. -1.
         11    1    3    3    0    0  0.40719758937E+02 -0.20827666021E+02  0.30837625235E+02  0.55162030146E+02  0.00000000000E+00 0.  1.
<mgrwt>
<rscale>  0 0.93372544E+02</rscale>
<asrwt>0</asrwt>
<pdfrwt beam="1">  1        2 0.11019989E-01 0.93372544E+02</pdfrwt>
<pdfrwt beam="2">  1       -2 0.46813438E-02 0.93372544E+02</pdfrwt>
<totfact> 0.10414653E+05</totfact>
</mgrwt>
</event>
<event>
 5    1  0.1256986E+001  0.9043626E+02  0.7546771E-02  0.1301799E+00
         -4   -1    0    0    0  501 -0.00000000000E+00  0.00000000000E+00  0.16193190435E+02  0.16193190435E+02  0.00000000000E+00 0.  1.
          4   -1    0    0  501    0  0.00000000000E+00 -0.00000000000E+00 -0.12626785488E+03  0.12626785488E+03  0.00000000000E+00 0. -1.
         23    2    1    2    0    0  0.00000000000E+00  0.00000000000E+00 -0.11007466445E+03  0.14246104532E+03  0.90436263078E+02 0.  0.
        -11    1    3    3    0    0 -0.30267571772E+02 -0.31128044243E+02 -0.35136659469E+02  0.55853969223E+02  0.00000000000E+00 0.  1.
         11    1    3    3    0    0  0.30267571772E+02  0.31128044243E+02 -0.74938004978E+02  0.86607076093E+02  0.00000000000E+00 0. -1.
<mgrwt>
<rscale>  0 0.90436263E+02</rscale>
<asrwt>0</asrwt>
<pdfrwt beam="2">  1        4 0.19425823E-01 0.90436263E+02</pdfrwt>
<pdfrwt beam="1">  1       -4 0.24912601E-02 0.90436263E+02</pdfrwt>
<totfact> 0.24590548E+04</totfact>
</mgrwt>
</event>
<event>
 5    1  0.1256986E+001  0.9164316E+02  0.7546771E-02  0.1298921E+00
          1   -1    0    0  501    0  0.00000000000E+00  0.00000000000E+00  0.65164846493E+02  0.65164846493E+02  0.00000000000E+00 0. -1.
         -1   -1    0    0    0  501 -0.00000000000E+00 -0.00000000000E+00 -0.32220091001E+02  0.32220091001E+02  0.00000000000E+00 0.  1.
         23    2    1    2    0    0  0.00000000000E+00  0.00000000000E+00  0.32944755492E+02  0.97384937494E+02  0.91643161972E+02 0.  0.
        -11    1    3    3    0    0 -0.18325673049E+02  0.40627163708E+02  0.51651959540E+01  0.44867315196E+02  0.00000000000E+00 0.  1.
         11    1    3    3    0    0  0.18325673049E+02 -0.40627163708E+02  0.27779559538E+02  0.52517622298E+02  0.00000000000E+00 0. -1.
<mgrwt>
<rscale>  0 0.91643162E+02</rscale>
<asrwt>0</asrwt>
<pdfrwt beam="1">  1        1 0.10025361E-01 0.91643162E+02</pdfrwt>
<pdfrwt beam="2">  1       -1 0.49569371E-02 0.91643162E+02</pdfrwt>
<totfact> 0.96219873E+04</totfact>
</mgrwt>
</event>
<event>
 5    1  0.1256986E+001  0.9239746E+02  0.7546771E-02  0.1297148E+00
          4   -1    0    0  501    0  0.00000000000E+00  0.00000000000E+00  0.28804772327E+02  0.28804772327E+02  0.00000000000E+00 0. -1.
         -4   -1    0    0    0  501 -0.00000000000E+00 -0.00000000000E+00 -0.74096139394E+02  0.74096139394E+02  0.00000000000E+00 0.  1.
         23    2    1    2    0    0  0.00000000000E+00  0.00000000000E+00 -0.45291367067E+02  0.10290091172E+03  0.92397455063E+02 0.  0.
        -13    1    3    3    0    0  0.29993150242E+02 -0.22458469062E+02 -0.52742799946E+02  0.64697564407E+02  0.00000000000E+00 0.  1.
         13    1    3    3    0    0 -0.29993150242E+02  0.22458469062E+02  0.74514328796E+01  0.38203347314E+02  0.00000000000E+00 0. -1.
<mgrwt>
<rscale>  0 0.92397455E+02</rscale>
<asrwt>0</asrwt>
<pdfrwt beam="1">  1        4 0.44315035E-02 0.92397455E+02</pdfrwt>
<pdfrwt beam="2">  1       -4 0.11399406E-01 0.92397455E+02</pdfrwt>
<totfact> 0.25347339E+04</totfact>
</mgrwt>
</event>
<event>
 5    1  0.1256986E+001  0.9038889E+02  0.7546771E-02  0.1301913E+00
         -2   -1    0    0    0  501 -0.00000000000E+00  0.00000000000E+00  0.32822293307E+02  0.32822293307E+02  0.00000000000E+00 0.  1.
          2   -1    0    0  501    0  0.00000000000E+00 -0.00000000000E+00 -0.62230203058E+02  0.62230203058E+02  0.00000000000E+00 0. -1.
         23    2    1    2    0    0  0.00000000000E+00  0.00000000000E+00 -0.29407909751E+02  0.95052496365E+02  0.90388892621E+02 0.  0.
        -13    1    3    3    0    0 -0.27898850568E+01 -0.18672629413E+02  0.28476628632E+02  0.34166781032E+02  0.00000000000E+00 0.  1.
         13    1    3    3    0    0  0.27898850568E+01  0.18672629413E+02 -0.57884538383E+02  0.60885715333E+02  0.00000000000E+00 0. -1.
<mgrwt>
<rscale>  0 0.90388893E+02</rscale>
<asrwt>0</asrwt>
<pdfrwt beam="2">  1        2 0.95738773E-02 0.90388893E+02</pdfrwt>
<pdfrwt beam="1">  1       -2 0.50495836E-02 0.90388893E+02</pdfrwt>
<totfact> 0.10976229E+05</totfact>
</mgrwt>
</event>
<event>
 5    1  0.1256986E+001  0.9257572E+02  0.7546771E-02  0.1296731E+00
         -1   -1    0    0    0  501 -0.00000000000E+00  0.00000000000E+00  0.11845345800E+02  0.11845345800E+02  0.00000000000E+00 0.  1.
          1   -1    0    0  501    0  0.00000000000E+00 -0.00000000000E+00 -0.18087830791E+03  0.18087830791E+03  0.00000000000E+00 0. -1.
         23    2    1    2    0    0  0.00000000000E+00  0.00000000000E+00 -0.16903296211E+03  0.19272365371E+03  0.92575722626E+02 0.  0.
        -11    1    3    3    0    0 -0.40175696524E+02 -0.10914808501E+02 -0.42396959030E+02  0.59419876900E+02  0.00000000000E+00 0.  1.
         11    1    3    3    0    0  0.40175696524E+02  0.10914808501E+02 -0.12663600308E+03  0.13330377681E+03  0.00000000000E+00 0. -1.
<mgrwt>
<rscale>  0 0.92575723E+02</rscale>
<asrwt>0</asrwt>
<pdfrwt beam="2">  1        1 0.27827431E-01 0.92575723E+02</pdfrwt>
<pdfrwt beam="1">  1       -1 0.18223609E-02 0.92575723E+02</pdfrwt>
<totfact> 0.11147147E+05</totfact>
</mgrwt>
</event>
<event>
 5    1  0.1256986E+001  0.9342727E+02  0.7546771E-02  0.1294758E+00
         -4   -1    0    0    0  501 -0.00000000000E+00  0.00000000000E+00  0.17842960159E+02  0.17842960159E+02  0.00000000000E+00 0.  1.
          4   -1    0    0  501    0  0.00000000000E+00 -0.00000000000E+00 -0.12229830720E+03  0.12229830720E+03  0.00000000000E+00 0. -1.
         23    2    1    2    0    0  0.00000000000E+00  0.00000000000E+00 -0.10445534704E+03  0.14014126736E+03  0.93427272741E+02 0.  0.
        -11    1    3    3    0    0 -0.26878805166E+02  0.19957674645E+02 -0.33591950667E+01  0.33646145929E+02  0.00000000000E+00 0.  1.
         11    1    3    3    0    0  0.26878805166E+02 -0.19957674645E+02 -0.10109615198E+03  0.10649512143E+03  0.00000000000E+00 0. -1.
<mgrwt>
<rscale>  0 0.93427273E+02</rscale>
<asrwt>0</asrwt>
<pdfrwt beam="2">  1        4 0.18815125E-01 0.93427273E+02</pdfrwt>
<pdfrwt beam="1">  1       -4 0.27450707E-02 0.93427273E+02</pdfrwt>
<totfact> 0.22635692E+04</totfact>
</mgrwt>
</event>
<event>
 5    1  0.1256986E+001  0.9627285E+02  0.7546771E-02  0.1288335E+00
         -2   -1    0    0    0  501 -0.00000000000E+00  0.00000000000E+00  0.11766790533E+03  0.11766790533E+03  0.00000000000E+00 0.  1.
          2   -1    0    0  501    0  0.00000000000E+00 -0.00000000000E+00 -0.19691991983E+02  0.19691991983E+02  0.00000000000E+00 0. -1.
         23    2    1    2    0    0  0.00000000000E+00  0.00000000000E+00  0.97975913351E+02  0.13735989732E+03  0.96272850762E+02 0.  0.
        -11    1    3    3    0    0 -0.34040752749E+02  0.79958167023E+01  0.96188397618E+02  0.10234702618E+03  0.00000000000E+00 0.  1.
         11    1    3    3    0    0  0.34040752749E+02 -0.79958167023E+01  0.17875157329E+01  0.35012871132E+02  0.00000000000E+00 0. -1.
<mgrwt>
<rscale>  0 0.96272851E+02</rscale>
<asrwt>0</asrwt>
<pdfrwt beam="2">  1        2 0.30295373E-02 0.96272851E+02</pdfrwt>
<pdfrwt beam="1">  1       -2 0.18102754E-01 0.96272851E+02</pdfrwt>
<totfact> 0.66214530E+04</totfact>
</mgrwt>
</event>
<event>
 5    1  0.1256986E+001  0.9030021E+02  0.7546771E-02  0.1302126E+00
         -1   -1    0    0    0  501 -0.00000000000E+00  0.00000000000E+00  0.21864232301E+02  0.21864232301E+02  0.00000000000E+00 0.  1.
          1   -1    0    0  501    0  0.00000000000E+00 -0.00000000000E+00 -0.93235933803E+02  0.93235933803E+02  0.00000000000E+00 0. -1.
         23    2    1    2    0    0  0.00000000000E+00  0.00000000000E+00 -0.71371701502E+02  0.11510016610E+03  0.90300212967E+02 0.  0.
        -11    1    3    3    0    0  0.34001989607E+02  0.10417351607E+02 -0.22715528712E+00  0.35562734867E+02  0.00000000000E+00 0.  1.
         11    1    3    3    0    0 -0.34001989607E+02 -0.10417351607E+02 -0.71144546214E+02  0.79537431237E+02  0.00000000000E+00 0. -1.
<mgrwt>
<rscale>  0 0.90300213E+02</rscale>
<asrwt>0</asrwt>
<pdfrwt beam="2">  1        1 0.14343990E-01 0.90300213E+02</pdfrwt>
<pdfrwt beam="1">  1       -1 0.33637281E-02 0.90300213E+02</pdfrwt>
<totfact> 0.10601015E+05</totfact>
</mgrwt>
</event>
<event>
 5    1  0.1256986E+001  0.9444519E+02  0.7546771E-02  0.1292431E+00
         -1   -1    0    0    0  501 -0.00000000000E+00  0.00000000000E+00  0.37020228483E+02  0.37020228483E+02  0.00000000000E+00 0.  1.
          1   -1    0    0  501    0  0.00000000000E+00 -0.00000000000E+00 -0.60236624489E+02  0.60236624489E+02  0.00000000000E+00 0. -1.
         23    2    1    2    0    0  0.00000000000E+00  0.00000000000E+00 -0.23216396007E+02  0.97256852972E+02  0.94445192607E+02 0.  0.
        -11    1    3    3    0    0 -0.27973101814E+02  0.35743895105E+02 -0.25028959081E+02  0.51832125705E+02  0.00000000000E+00 0.  1.
         11    1    3    3    0    0  0.27973101814E+02 -0.35743895105E+02  0.18125630748E+01  0.45424727267E+02  0.00000000000E+00 0. -1.
<mgrwt>
<rscale>  0 0.94445193E+02</rscale>
<asrwt>0</asrwt>
<pdfrwt beam="2">  1        1 0.92671728E-02 0.94445193E+02</pdfrwt>
<pdfrwt beam="1">  1       -1 0.56954199E-02 0.94445193E+02</pdfrwt>
<totfact> 0.87425144E+04</totfact>
</mgrwt>
</event>
<event>
 5    1  0.1256986E+001  0.9176366E+02  0.7546771E-02  0.1298636E+00
         -2   -1    0    0    0  501 -0.00000000000E+00  0.00000000000E+00  0.26288004582E+02  0.26288004582E+02  0.00000000000E+00 0.  1.
          2   -1    0    0  501    0  0.00000000000E+00 -0.00000000000E+00 -0.80079958972E+02  0.80079958972E+02  0.00000000000E+00 0. -1.
         23    2    1    2    0    0  0.00000000000E+00  0.00000000000E+00 -0.53791954390E+02  0.10636796355E+03  0.91763660093E+02 0.  0.
        -13    1    3    3    0    0 -0.10074061143E+02  0.18598080493E+02  0.20299661215E+02  0.29316404135E+02  0.00000000000E+00 0.  1.
         13    1    3    3    0    0  0.10074061143E+02 -0.18598080493E+02 -0.74091615606E+02  0.77051559420E+02  0.00000000000E+00 0. -1.
<mgrwt>
<rscale>  0 0.91763660E+02</rscale>
<asrwt>0</asrwt>
<pdfrwt beam="2">  1        2 0.12319993E-01 0.91763660E+02</pdfrwt>
<pdfrwt beam="1">  1       -2 0.40443085E-02 0.91763660E+02</pdfrwt>
<totfact> 0.11285536E+05</totfact>
</mgrwt>
</event>
<event>
 5    1  0.1256986E+001  0.9345068E+02  0.7546771E-02  0.1294704E+00
          1   -1    0    0  501    0  0.00000000000E+00  0.00000000000E+00  0.66673888905E+01  0.66673888905E+01  0.00000000000E+00 0. -1.
         -1   -1    0    0    0  501 -0.00000000000E+00 -0.00000000000E+00 -0.32745314514E+03  0.32745314514E+03  0.00000000000E+00 0.  1.
         23    2    1    2    0    0  0.00000000000E+00  0.00000000000E+00 -0.32078575625E+03  0.33412053403E+03  0.93450681369E+02 0.  0.
        -13    1    3    3    0    0 -0.23616157261E+02  0.40245310370E+02 -0.16904022186E+03  0.17536249456E+03  0.00000000000E+00 0.  1.
         13    1    3    3    0    0  0.23616157261E+02 -0.40245310370E+02 -0.15174553439E+03  0.15875803947E+03  0.00000000000E+00 0. -1.
<mgrwt>
<rscale>  0 0.93450681E+02</rscale>
<asrwt>0</asrwt>
<pdfrwt beam="1">  1        1 0.10257521E-02 0.93450681E+02</pdfrwt>
<pdfrwt beam="2">  1       -1 0.50377407E-01 0.93450681E+02</pdfrwt>
<totfact> 0.54803824E+04</totfact>
</mgrwt>
</event>
<event>
 5    1  0.1256986E+001  0.9098032E+02  0.7546771E-02  0.1300495E+00
          2   -1    0    0  501    0  0.00000000000E+00  0.00000000000E+00  0.41161347498E+03  0.41161347498E+03  0.00000000000E+00 0. -1.
         -2   -1    0    0    0  501 -0.00000000000E+00 -0.00000000000E+00 -0.50274219458E+01  0.50274219458E+01  0.00000000000E+00 0.  1.
         23    2    1    2    0    0  0.00000000000E+00  0.00000000000E+00  0.40658605304E+03  0.41664089693E+03  0.90980319132E+02 0.  0.
        -11    1    3    3    0    0  0.18408839456E+02 -0.41311451446E+02  0.22564963202E+03  0.23013751937E+03  0.00000000000E+00 0. -1.
         11    1    3    3    0    0 -0.18408839456E+02  0.41311451446E+02  0.18093642102E+03  0.18650337756E+03  0.00000000000E+00 0.  1.
<mgrwt>
<rscale>  0 0.90980319E+02</rscale>
<asrwt>0</asrwt>
<pdfrwt beam="1">  1        2 0.63325123E-01 0.90980319E+02</pdfrwt>
<pdfrwt beam="2">  1       -2 0.77344986E-03 0.90980319E+02</pdfrwt>
<totfact> 0.20282731E+05</totfact>
</mgrwt>
</event>
<event>
 5    1  0.1256986E+001  0.8794888E+02  0.7546771E-02  0.1307896E+00
         -2   -1    0    0    0  501 -0.00000000000E+00  0.00000000000E+00  0.43068536823E+02  0.43068536823E+02  0.00000000000E+00 0.  1.
          2   -1    0    0  501    0  0.00000000000E+00 -0.00000000000E+00 -0.44899395928E+02  0.44899395928E+02  0.00000000000E+00 0. -1.
         23    2    1    2    0    0  0.00000000000E+00  0.00000000000E+00 -0.18308591052E+01  0.87967932751E+02  0.87948878033E+02 0.  0.
        -11    1    3    3    0    0  0.41241530088E+02  0.14984492377E+02  0.19752607912E+01  0.43923803012E+02  0.00000000000E+00 0. -1.
         11    1    3    3    0    0 -0.41241530088E+02 -0.14984492377E+02 -0.38061198964E+01  0.44044129739E+02  0.00000000000E+00 0.  1.
<mgrwt>
<rscale>  0 0.87948878E+02</rscale>
<asrwt>0</asrwt>
<pdfrwt beam="2">  1        2 0.69075994E-02 0.87948878E+02</pdfrwt>
<pdfrwt beam="1">  1       -2 0.66259287E-02 0.87948878E+02</pdfrwt>
<totfact> 0.10895775E+05</totfact>
</mgrwt>
</event>
<event>
 5    1  0.1256986E+001  0.8953946E+02  0.7546771E-02  0.1303971E+00
          1   -1    0    0  501    0  0.00000000000E+00  0.00000000000E+00  0.38123688154E+02  0.38123688154E+02  0.00000000000E+00 0. -1.
         -1   -1    0    0    0  501 -0.00000000000E+00 -0.00000000000E+00 -0.52574364314E+02  0.52574364314E+02  0.00000000000E+00 0.  1.
         23    2    1    2    0    0  0.00000000000E+00  0.00000000000E+00 -0.14450676160E+02  0.90698052468E+02  0.89539458788E+02 0.  0.
        -13    1    3    3    0    0  0.81136423673E+01 -0.31731666804E+02  0.23691705402E+02  0.40423097054E+02  0.00000000000E+00 0. -1.
         13    1    3    3    0    0 -0.81136423673E+01  0.31731666804E+02 -0.38142381562E+02  0.50274955414E+02  0.00000000000E+00 0.  1.
<mgrwt>
<rscale>  0 0.89539459E+02</rscale>
<asrwt>0</asrwt>
<pdfrwt beam="1">  1        1 0.58651828E-02 0.89539459E+02</pdfrwt>
<pdfrwt beam="2">  1       -1 0.80883637E-02 0.89539459E+02</pdfrwt>
<totfact> 0.94729367E+04</totfact>
</mgrwt>
</event>
<event>
 5    1  0.1256986E+001  0.9002469E+02  0.7546771E-02  0.1302792E+00
         -1   -1    0    0    0  501 -0.00000000000E+00  0.00000000000E+00  0.37919891224E+02  0.37919891224E+02  0.00000000000E+00 0.  1.
          1   -1    0    0  501    0  0.00000000000E+00 -0.00000000000E+00 -0.53431358177E+02  0.53431358177E+02  0.00000000000E+00 0. -1.
         23    2    1    2    0    0  0.00000000000E+00  0.00000000000E+00 -0.15511466953E+02  0.91351249401E+02  0.90024691947E+02 0.  0.
        -13    1    3    3    0    0  0.33320917839E+02 -0.29061734498E+02 -0.16320684798E+02  0.47129955760E+02  0.00000000000E+00 0. -1.
         13    1    3    3    0    0 -0.33320917839E+02  0.29061734498E+02  0.80921784513E+00  0.44221293640E+02  0.00000000000E+00 0.  1.
<mgrwt>
<rscale>  0 0.90024692E+02</rscale>
<asrwt>0</asrwt>
<pdfrwt beam="2">  1        1 0.82202089E-02 0.90024692E+02</pdfrwt>
<pdfrwt beam="1">  1       -1 0.58338295E-02 0.90024692E+02</pdfrwt>
<totfact> 0.98113073E+04</totfact>
</mgrwt>
</event>
<event>
 5    1  0.1256986E+001  0.9105163E+02  0.7546771E-02  0.1300325E+00
          1   -1    0    0  501    0  0.00000000000E+00  0.00000000000E+00  0.20160177343E+02  0.20160177343E+02  0.00000000000E+00 0. -1.
         -1   -1    0    0    0  501 -0.00000000000E+00 -0.00000000000E+00 -0.10280663446E+03  0.10280663446E+03  0.00000000000E+00 0.  1.
         23    2    1    2    0    0  0.00000000000E+00  0.00000000000E+00 -0.82646457120E+02  0.12296681181E+03  0.91051633326E+02 0.  0.
        -13    1    3    3    0    0  0.12473411520E+02  0.12165842298E+02  0.15478932422E+02  0.23306459677E+02  0.00000000000E+00 0. -1.
         13    1    3    3    0    0 -0.12473411520E+02 -0.12165842298E+02 -0.98125389542E+02  0.99660352129E+02  0.00000000000E+00 0.  1.
<mgrwt>
<rscale>  0 0.91051633E+02</rscale>
<asrwt>0</asrwt>
<pdfrwt beam="1">  1        1 0.31015658E-02 0.91051633E+02</pdfrwt>
<pdfrwt beam="2">  1       -1 0.15816405E-01 0.91051633E+02</pdfrwt>
<totfact> 0.81237474E+04</totfact>
</mgrwt>
</event>
<event>
 5    1  0.1256986E+001  0.8840130E+02  0.7546771E-02  0.1306770E+00
          2   -1    0    0  501    0  0.00000000000E+00  0.00000000000E+00  0.41123522764E+02  0.41123522764E+02  0.00000000000E+00 0.  1.
         -2   -1    0    0    0  501 -0.00000000000E+00 -0.00000000000E+00 -0.47508022494E+02  0.47508022494E+02  0.00000000000E+00 0. -1.
         23    2    1    2    0    0  0.00000000000E+00  0.00000000000E+00 -0.63844997297E+01  0.88631545258E+02  0.88401295115E+02 0.  0.
        -13    1    3    3    0    0 -0.34578758141E+01  0.24569399790E+02  0.33482869314E+02  0.41673910888E+02  0.00000000000E+00 0.  1.
         13    1    3    3    0    0  0.34578758141E+01 -0.24569399790E+02 -0.39867369044E+02  0.46957634370E+02  0.00000000000E+00 0. -1.
<mgrwt>
<rscale>  0 0.88401295E+02</rscale>
<asrwt>0</asrwt>
<pdfrwt beam="1">  1        2 0.63266958E-02 0.88401295E+02</pdfrwt>
<pdfrwt beam="2">  1       -2 0.73089265E-02 0.88401295E+02</pdfrwt>
<totfact> 0.10501727E+05</totfact>
</mgrwt>
</event>
<event>
 5    1  0.1256986E+001  0.8783643E+02  0.7546771E-02  0.1308177E+00
          2   -1    0    0  501    0  0.00000000000E+00  0.00000000000E+00  0.15890796325E+02  0.15890796325E+02  0.00000000000E+00 0. -1.
         -2   -1    0    0    0  501 -0.00000000000E+00 -0.00000000000E+00 -0.12137904719E+03  0.12137904719E+03  0.00000000000E+00 0.  1.
         23    2    1    2    0    0  0.00000000000E+00  0.00000000000E+00 -0.10548825087E+03  0.13726984352E+03  0.87836432466E+02 0.  0.
        -13    1    3    3    0    0  0.10719258618E+02 -0.30774198411E+02 -0.98756422073E+02  0.10399415702E+03  0.00000000000E+00 0.  1.
         13    1    3    3    0    0 -0.10719258618E+02  0.30774198411E+02 -0.67318287956E+01  0.33275686501E+02  0.00000000000E+00 0. -1.
<mgrwt>
<rscale>  0 0.87836432E+02</rscale>
<asrwt>0</asrwt>
<pdfrwt beam="1">  1        2 0.24447378E-02 0.87836432E+02</pdfrwt>
<pdfrwt beam="2">  1       -2 0.18673700E-01 0.87836432E+02</pdfrwt>
<totfact> 0.82513560E+04</totfact>
</mgrwt>
</event>
<event>
 5    1  0.1256986E+001  0.9103536E+02  0.7546771E-02  0.1300364E+00
         -2   -1    0    0    0  501 -0.00000000000E+00  0.00000000000E+00  0.21940776642E+03  0.21940776642E+03  0.00000000000E+00 0. -1.
          2   -1    0    0  501    0  0.00000000000E+00 -0.00000000000E+00 -0.94429625631E+01  0.94429625631E+01  0.00000000000E+00 0.  1.
         23    2    1    2    0    0  0.00000000000E+00  0.00000000000E+00  0.20996480385E+03  0.22885072898E+03  0.91035362894E+02 0.  0.
        -13    1    3    3    0    0  0.42313421294E+02 -0.13493984685E+02  0.79926067318E+02  0.91436805944E+02  0.00000000000E+00 0. -1.
         13    1    3    3    0    0 -0.42313421294E+02  0.13493984685E+02  0.13003873654E+03  0.13741392304E+03  0.00000000000E+00 0.  1.
<mgrwt>
<rscale>  0 0.91035363E+02</rscale>
<asrwt>0</asrwt>
<pdfrwt beam="2">  1        2 0.14527636E-02 0.91035363E+02</pdfrwt>
<pdfrwt beam="1">  1       -2 0.33755037E-01 0.91035363E+02</pdfrwt>
<totfact> 0.60037104E+04</totfact>
</mgrwt>
</event>
<event>
 5    1  0.1256986E+001  0.1039288E+03  0.7546771E-02  0.1272245E+00
          1   -1    0    0  501    0  0.00000000000E+00  0.00000000000E+00  0.62607489361E+02  0.62607489361E+02  0.00000000000E+00 0. -1.
         -1   -1    0    0    0  501 -0.00000000000E+00 -0.00000000000E+00 -0.43130565471E+02  0.43130565471E+02  0.00000000000E+00 0.  1.
         23    2    1    2    0    0  0.00000000000E+00  0.00000000000E+00  0.19476923891E+02  0.10573805483E+03  0.10392875288E+03 0.  0.
        -11    1    3    3    0    0 -0.23273941747E+02 -0.41758220101E+02 -0.10984517524E+02  0.49051859656E+02  0.00000000000E+00 0.  1.
         11    1    3    3    0    0  0.23273941747E+02  0.41758220101E+02  0.30461441415E+02  0.56686195176E+02  0.00000000000E+00 0. -1.
<mgrwt>
<rscale>  0 0.10392875E+03</rscale>
<asrwt>0</asrwt>
<pdfrwt beam="1">  1        1 0.96319215E-02 0.10392875E+03</pdfrwt>
<pdfrwt beam="2">  1       -1 0.66354716E-02 0.10392875E+03</pdfrwt>
<totfact> 0.67244434E+04</totfact>
</mgrwt>
</event>
<event>
 5    1  0.1256986E+001  0.9194522E+02  0.7546771E-02  0.1298208E+00
          3   -1    0    0  501    0  0.00000000000E+00  0.00000000000E+00  0.41276418817E+02  0.41276418817E+02  0.00000000000E+00 0.  1.
         -3   -1    0    0    0  501 -0.00000000000E+00 -0.00000000000E+00 -0.51203103241E+02  0.51203103241E+02  0.00000000000E+00 0. -1.
         23    2    1    2    0    0  0.00000000000E+00  0.00000000000E+00 -0.99266844239E+01  0.92479522058E+02  0.91945217040E+02 0.  0.
        -11    1    3    3    0    0  0.21280618465E+02  0.40744327538E+02 -0.56856976134E+01  0.46317298131E+02  0.00000000000E+00 0. -1.
         11    1    3    3    0    0 -0.21280618465E+02 -0.40744327538E+02 -0.42409868105E+01  0.46162223927E+02  0.00000000000E+00 0.  1.
<mgrwt>
<rscale>  0 0.91945217E+02</rscale>
<asrwt>0</asrwt>
<pdfrwt beam="1">  1        3 0.63502183E-02 0.91945217E+02</pdfrwt>
<pdfrwt beam="2">  1       -3 0.78774005E-02 0.91945217E+02</pdfrwt>
<totfact> 0.34440958E+04</totfact>
</mgrwt>
</event>
<event>
 5    1  0.1256986E+001  0.8911573E+02  0.7546771E-02  0.1305007E+00
         -2   -1    0    0    0  501 -0.00000000000E+00  0.00000000000E+00  0.20306153320E+02  0.20306153320E+02  0.00000000000E+00 0.  1.
          2   -1    0    0  501    0  0.00000000000E+00 -0.00000000000E+00 -0.97773489131E+02  0.97773489131E+02  0.00000000000E+00 0. -1.
         23    2    1    2    0    0  0.00000000000E+00  0.00000000000E+00 -0.77467335811E+02  0.11807964245E+03  0.89115732862E+02 0.  0.
        -13    1    3    3    0    0  0.40154591067E+02  0.70320944401E+01 -0.14899535278E+02  0.43403199046E+02  0.00000000000E+00 0.  1.
         13    1    3    3    0    0 -0.40154591067E+02 -0.70320944401E+01 -0.62567800534E+02  0.74676443405E+02  0.00000000000E+00 0. -1.
<mgrwt>
<rscale>  0 0.89115733E+02</rscale>
<asrwt>0</asrwt>
<pdfrwt beam="2">  1        2 0.15042075E-01 0.89115733E+02</pdfrwt>
<pdfrwt beam="1">  1       -2 0.31240236E-02 0.89115733E+02</pdfrwt>
<totfact> 0.12974373E+05</totfact>
</mgrwt>
</event>
<event>
 5    1  0.1256986E+001  0.9128746E+02  0.7546771E-02  0.1299764E+00
         -1   -1    0    0    0  501 -0.00000000000E+00  0.00000000000E+00  0.94048955054E+01  0.94048955054E+01  0.00000000000E+00 0.  1.
          1   -1    0    0  501    0  0.00000000000E+00 -0.00000000000E+00 -0.22151763360E+03  0.22151763360E+03  0.00000000000E+00 0. -1.
         23    2    1    2    0    0  0.00000000000E+00  0.00000000000E+00 -0.21211273809E+03  0.23092252911E+03  0.91287462373E+02 0.  0.
        -13    1    3    3    0    0  0.27725233155E+02 -0.22385755164E+02 -0.33905009014E+02  0.49186992427E+02  0.00000000000E+00 0.  1.
         13    1    3    3    0    0 -0.27725233155E+02  0.22385755164E+02 -0.17820772908E+03  0.18173553668E+03  0.00000000000E+00 0. -1.
<mgrwt>
<rscale>  0 0.91287462E+02</rscale>
<asrwt>0</asrwt>
<pdfrwt beam="2">  1        1 0.34079634E-01 0.91287462E+02</pdfrwt>
<pdfrwt beam="1">  1       -1 0.14469071E-02 0.91287462E+02</pdfrwt>
<totfact> 0.12039351E+05</totfact>
</mgrwt>
</event>
<event>
 5    1  0.1256986E+001  0.9073246E+02  0.7546771E-02  0.1301088E+00
          3   -1    0    0  501    0  0.00000000000E+00  0.00000000000E+00  0.20434673689E+02  0.20434673689E+02  0.00000000000E+00 0. -1.
         -3   -1    0    0    0  501 -0.00000000000E+00 -0.00000000000E+00 -0.10071582404E+03  0.10071582404E+03  0.00000000000E+00 0.  1.
         23    2    1    2    0    0  0.00000000000E+00  0.00000000000E+00 -0.80281150354E+02  0.12115049773E+03  0.90732463863E+02 0.  0.
        -13    1    3    3    0    0 -0.23528432660E+02 -0.24631388736E+02 -0.13201572697E+00  0.34063321662E+02  0.00000000000E+00 0. -1.
         13    1    3    3    0    0  0.23528432660E+02  0.24631388736E+02 -0.80149134627E+02  0.87087176071E+02  0.00000000000E+00 0.  1.
<mgrwt>
<rscale>  0 0.90732464E+02</rscale>
<asrwt>0</asrwt>
<pdfrwt beam="1">  1        3 0.31437959E-02 0.90732464E+02</pdfrwt>
<pdfrwt beam="2">  1       -3 0.15494742E-01 0.90732464E+02</pdfrwt>
<totfact> 0.33612109E+04</totfact>
</mgrwt>
</event>
<event>
 5    1  0.1256986E+001  0.9104467E+02  0.7546771E-02  0.1300341E+00
         -2   -1    0    0    0  501 -0.00000000000E+00  0.00000000000E+00  0.19574835887E+03  0.19574835887E+03  0.00000000000E+00 0.  1.
          2   -1    0    0  501    0  0.00000000000E+00 -0.00000000000E+00 -0.10586463930E+02  0.10586463930E+02  0.00000000000E+00 0. -1.
         23    2    1    2    0    0  0.00000000000E+00  0.00000000000E+00  0.18516189494E+03  0.20633482280E+03  0.91044669048E+02 0.  0.
        -11    1    3    3    0    0 -0.35449922462E+02 -0.17154905769E+02  0.14432492961E+03  0.14960171490E+03  0.00000000000E+00 0.  1.
         11    1    3    3    0    0  0.35449922462E+02  0.17154905769E+02  0.40836965331E+02  0.56733107899E+02  0.00000000000E+00 0. -1.
<mgrwt>
<rscale>  0 0.91044669E+02</rscale>
<asrwt>0</asrwt>
<pdfrwt beam="2">  1        2 0.16286869E-02 0.91044669E+02</pdfrwt>
<pdfrwt beam="1">  1       -2 0.30115129E-01 0.91044669E+02</pdfrwt>
<totfact> 0.63131367E+04</totfact>
</mgrwt>
</event>
<event>
 5    1  0.1256986E+001  0.9268652E+02  0.7546771E-02  0.1296473E+00
         -3   -1    0    0    0  501 -0.00000000000E+00  0.00000000000E+00  0.97647710580E+01  0.97647710580E+01  0.00000000000E+00 0.  1.
          3   -1    0    0  501    0  0.00000000000E+00 -0.00000000000E+00 -0.21994345991E+03  0.21994345991E+03  0.00000000000E+00 0. -1.
         23    2    1    2    0    0  0.00000000000E+00  0.00000000000E+00 -0.21017868886E+03  0.22970823097E+03  0.92686515347E+02 0.  0.
        -13    1    3    3    0    0  0.36735458577E+02 -0.30435009289E+01 -0.35477652776E+02  0.51160733588E+02  0.00000000000E+00 0.  1.
         13    1    3    3    0    0 -0.36735458577E+02  0.30435009289E+01 -0.17470103608E+03  0.17854749738E+03  0.00000000000E+00 0. -1.
<mgrwt>
<rscale>  0 0.92686515E+02</rscale>
<asrwt>0</asrwt>
<pdfrwt beam="2">  1        3 0.33837451E-01 0.92686515E+02</pdfrwt>
<pdfrwt beam="1">  1       -3 0.15022727E-02 0.92686515E+02</pdfrwt>
<totfact> 0.25859951E+04</totfact>
</mgrwt>
</event>
<event>
 5    1  0.1256986E+001  0.9336987E+02  0.7546771E-02  0.1294890E+00
          2   -1    0    0  501    0  0.00000000000E+00  0.00000000000E+00  0.92539455786E+02  0.92539455786E+02  0.00000000000E+00 0. -1.
         -2   -1    0    0    0  501 -0.00000000000E+00 -0.00000000000E+00 -0.23551935312E+02  0.23551935312E+02  0.00000000000E+00 0.  1.
         23    2    1    2    0    0  0.00000000000E+00  0.00000000000E+00  0.68987520474E+02  0.11609139110E+03  0.93369872582E+02 0.  0.
        -13    1    3    3    0    0  0.35066658359E+02  0.18955880896E+02  0.42804340138E+01  0.40091371445E+02  0.00000000000E+00 0.  1.
         13    1    3    3    0    0 -0.35066658359E+02 -0.18955880896E+02  0.64707086460E+02  0.76000019653E+02  0.00000000000E+00 0. -1.
<mgrwt>
<rscale>  0 0.93369873E+02</rscale>
<asrwt>0</asrwt>
<pdfrwt beam="1">  1        2 0.14236839E-01 0.93369873E+02</pdfrwt>
<pdfrwt beam="2">  1       -2 0.36233747E-02 0.93369873E+02</pdfrwt>
<totfact> 0.11221060E+05</totfact>
</mgrwt>
</event>
<event>
 5    1  0.1256986E+001  0.9170342E+02  0.7546771E-02  0.1298778E+00
         -2   -1    0    0    0  501 -0.00000000000E+00  0.00000000000E+00  0.94707417670E+01  0.94707417670E+01  0.00000000000E+00 0.  1.
          2   -1    0    0  501    0  0.00000000000E+00 -0.00000000000E+00 -0.22198674008E+03  0.22198674008E+03  0.00000000000E+00 0. -1.
         23    2    1    2    0    0  0.00000000000E+00  0.00000000000E+00 -0.21251599831E+03  0.23145748185E+03  0.91703415225E+02 0.  0.
        -11    1    3    3    0    0  0.36009031692E+02 -0.16865999543E+02 -0.16388363641E+03  0.16863854419E+03  0.00000000000E+00 0. -1.
         11    1    3    3    0    0 -0.36009031692E+02  0.16865999543E+02 -0.48632361904E+02  0.62818937657E+02  0.00000000000E+00 0.  1.
<mgrwt>
<rscale>  0 0.91703415E+02</rscale>
<asrwt>0</asrwt>
<pdfrwt beam="2">  1        2 0.34151802E-01 0.91703415E+02</pdfrwt>
<pdfrwt beam="1">  1       -2 0.14570374E-02 0.91703415E+02</pdfrwt>
<totfact> 0.15820021E+05</totfact>
</mgrwt>
</event>
<event>
 5    1  0.1256986E+001  0.9244371E+02  0.7546771E-02  0.1297040E+00
          2   -1    0    0  501    0  0.00000000000E+00  0.00000000000E+00  0.51009850834E+01  0.51009850834E+01  0.00000000000E+00 0.  1.
         -2   -1    0    0    0  501 -0.00000000000E+00 -0.00000000000E+00 -0.41883280255E+03  0.41883280255E+03  0.00000000000E+00 0. -1.
         23    2    1    2    0    0  0.00000000000E+00  0.00000000000E+00 -0.41373181747E+03  0.42393378763E+03  0.92443709970E+02 0.  0.
        -11    1    3    3    0    0 -0.22988687121E+02  0.39934954399E+02 -0.19021756180E+03  0.19571918949E+03  0.00000000000E+00 0.  1.
         11    1    3    3    0    0  0.22988687121E+02 -0.39934954399E+02 -0.22351425567E+03  0.22821459815E+03  0.00000000000E+00 0. -1.
<mgrwt>
<rscale>  0 0.92443710E+02</rscale>
<asrwt>0</asrwt>
<pdfrwt beam="1">  1        2 0.78476689E-03 0.92443710E+02</pdfrwt>
<pdfrwt beam="2">  1       -2 0.64435819E-01 0.92443710E+02</pdfrwt>
<totfact> 0.39913599E+04</totfact>
</mgrwt>
</event>
<event>
 5    1  0.1256986E+001  0.9176120E+02  0.7546771E-02  0.1298642E+00
         -1   -1    0    0    0  501 -0.00000000000E+00  0.00000000000E+00  0.53581590960E+01  0.53581590960E+01  0.00000000000E+00 0.  1.
          1   -1    0    0  501    0  0.00000000000E+00 -0.00000000000E+00 -0.39286429039E+03  0.39286429039E+03  0.00000000000E+00 0. -1.
         23    2    1    2    0    0  0.00000000000E+00  0.00000000000E+00 -0.38750613130E+03  0.39822244949E+03  0.91761198141E+02 0.  0.
        -11    1    3    3    0    0 -0.39251085911E+02  0.20076510841E+02 -0.24887246743E+03  0.25274734238E+03  0.00000000000E+00 0. -1.
         11    1    3    3    0    0  0.39251085911E+02 -0.20076510841E+02 -0.13863366386E+03  0.14547510711E+03  0.00000000000E+00 0.  1.
<mgrwt>
<rscale>  0 0.91761198E+02</rscale>
<asrwt>0</asrwt>
<pdfrwt beam="2">  1        1 0.60440655E-01 0.91761198E+02</pdfrwt>
<pdfrwt beam="1">  1       -1 0.82433223E-03 0.91761198E+02</pdfrwt>
<totfact> 0.13222679E+05</totfact>
</mgrwt>
</event>
<event>
 5    1  0.1256986E+001  0.9285824E+02  0.7546771E-02  0.1296074E+00
          1   -1    0    0  501    0  0.00000000000E+00  0.00000000000E+00  0.42707035767E+03  0.42707035767E+03  0.00000000000E+00 0. -1.
         -1   -1    0    0    0  501 -0.00000000000E+00 -0.00000000000E+00 -0.50475593005E+01  0.50475593005E+01  0.00000000000E+00 0.  1.
         23    2    1    2    0    0  0.00000000000E+00  0.00000000000E+00  0.42202279837E+03  0.43211791698E+03  0.92858235086E+02 0.  0.
        -13    1    3    3    0    0 -0.44288271112E+02  0.13935623316E+02  0.21148597921E+03  0.21652245140E+03  0.00000000000E+00 0.  1.
         13    1    3    3    0    0  0.44288271112E+02 -0.13935623316E+02  0.21053681916E+03  0.21559546558E+03  0.00000000000E+00 0. -1.
<mgrwt>
<rscale>  0 0.92858235E+02</rscale>
<asrwt>0</asrwt>
<pdfrwt beam="1">  1        1 0.65703103E-01 0.92858235E+02</pdfrwt>
<pdfrwt beam="2">  1       -1 0.77654792E-03 0.92858235E+02</pdfrwt>
<totfact> 0.12983874E+05</totfact>
</mgrwt>
</event>
<event>
 5    1  0.1256986E+001  0.9086805E+02  0.7546771E-02  0.1300763E+00
         -1   -1    0    0    0  501 -0.00000000000E+00  0.00000000000E+00  0.90340714135E+02  0.90340714135E+02  0.00000000000E+00 0.  1.
          1   -1    0    0  501    0  0.00000000000E+00 -0.00000000000E+00 -0.22849615314E+02  0.22849615314E+02  0.00000000000E+00 0. -1.
         23    2    1    2    0    0  0.00000000000E+00  0.00000000000E+00  0.67491098820E+02  0.11319032945E+03  0.90868048625E+02 0.  0.
        -11    1    3    3    0    0 -0.23333900597E+02 -0.15660827322E+01  0.82267440634E+02  0.85526927460E+02  0.00000000000E+00 0.  1.
         11    1    3    3    0    0  0.23333900597E+02  0.15660827322E+01 -0.14776341814E+02  0.27663401989E+02  0.00000000000E+00 0. -1.
<mgrwt>
<rscale>  0 0.90868049E+02</rscale>
<asrwt>0</asrwt>
<pdfrwt beam="2">  1        1 0.35153255E-02 0.90868049E+02</pdfrwt>
<pdfrwt beam="1">  1       -1 0.13898571E-01 0.90868049E+02</pdfrwt>
<totfact> 0.83611810E+04</totfact>
</mgrwt>
</event>
<event>
 5    1  0.1256986E+001  0.9148889E+02  0.7546771E-02  0.1299286E+00
         -1   -1    0    0    0  501 -0.00000000000E+00  0.00000000000E+00  0.34213401564E+02  0.34213401564E+02  0.00000000000E+00 0.  1.
          1   -1    0    0  501    0  0.00000000000E+00 -0.00000000000E+00 -0.61161831089E+02  0.61161831089E+02  0.00000000000E+00 0. -1.
         23    2    1    2    0    0  0.00000000000E+00  0.00000000000E+00 -0.26948429526E+02  0.95375232653E+02  0.91488890854E+02 0.  0.
        -11    1    3    3    0    0  0.86800035145E+01  0.27744461538E+02  0.23345463086E+02  0.37284155532E+02  0.00000000000E+00 0.  1.
         11    1    3    3    0    0 -0.86800035145E+01 -0.27744461538E+02 -0.50293892611E+02  0.58091077121E+02  0.00000000000E+00 0. -1.
<mgrwt>
<rscale>  0 0.91488891E+02</rscale>
<asrwt>0</asrwt>
<pdfrwt beam="2">  1        1 0.94095124E-02 0.91488891E+02</pdfrwt>
<pdfrwt beam="1">  1       -1 0.52636003E-02 0.91488891E+02</pdfrwt>
<totfact> 0.95739549E+04</totfact>
</mgrwt>
</event>
<event>
 5    1  0.1256986E+001  0.9184321E+02  0.7546771E-02  0.1298448E+00
          2   -1    0    0  501    0  0.00000000000E+00  0.00000000000E+00  0.45806762745E+02  0.45806762745E+02  0.00000000000E+00 0. -1.
         -2   -1    0    0    0  501 -0.00000000000E+00 -0.00000000000E+00 -0.46036738913E+02  0.46036738913E+02  0.00000000000E+00 0.  1.
         23    2    1    2    0    0  0.00000000000E+00  0.00000000000E+00 -0.22997616771E+00  0.91843501658E+02  0.91843213727E+02 0.  0.
        -11    1    3    3    0    0  0.30245678736E+02  0.17076790792E+02 -0.30154658005E+02  0.45996970175E+02  0.00000000000E+00 0.  1.
         11    1    3    3    0    0 -0.30245678736E+02 -0.17076790792E+02  0.29924681837E+02  0.45846531483E+02  0.00000000000E+00 0. -1.
<mgrwt>
<rscale>  0 0.91843214E+02</rscale>
<asrwt>0</asrwt>
<pdfrwt beam="1">  1        2 0.70471943E-02 0.91843214E+02</pdfrwt>
<pdfrwt beam="2">  1       -2 0.70825752E-02 0.91843214E+02</pdfrwt>
<totfact> 0.96751080E+04</totfact>
</mgrwt>
</event>
<event>
 5    1  0.1256986E+001  0.9158250E+02  0.7546771E-02  0.1299064E+00
          2   -1    0    0  501    0  0.00000000000E+00  0.00000000000E+00  0.21302632593E+02  0.21302632593E+02  0.00000000000E+00 0. -1.
         -2   -1    0    0    0  501 -0.00000000000E+00 -0.00000000000E+00 -0.98430967351E+02  0.98430967351E+02  0.00000000000E+00 0.  1.
         23    2    1    2    0    0  0.00000000000E+00  0.00000000000E+00 -0.77128334759E+02  0.11973359994E+03  0.91582503421E+02 0.  0.
        -13    1    3    3    0    0 -0.62372907373E+01 -0.21369315248E+02  0.13752269709E+02  0.26166320950E+02  0.00000000000E+00 0. -1.
         13    1    3    3    0    0  0.62372907373E+01  0.21369315248E+02 -0.90880604468E+02  0.93567278994E+02  0.00000000000E+00 0.  1.
<mgrwt>
<rscale>  0 0.91582503E+02</rscale>
<asrwt>0</asrwt>
<pdfrwt beam="1">  1        2 0.32773281E-02 0.91582503E+02</pdfrwt>
<pdfrwt beam="2">  1       -2 0.15143225E-01 0.91582503E+02</pdfrwt>
<totfact> 0.79301531E+04</totfact>
</mgrwt>
</event>
<event>
 5    1  0.1256986E+001  0.8996383E+02  0.7546771E-02  0.1302939E+00
         -2   -1    0    0    0  501 -0.00000000000E+00  0.00000000000E+00  0.19992718464E+03  0.19992718464E+03  0.00000000000E+00 0.  1.
          2   -1    0    0  501    0  0.00000000000E+00 -0.00000000000E+00 -0.10120549118E+02  0.10120549118E+02  0.00000000000E+00 0. -1.
         23    2    1    2    0    0  0.00000000000E+00  0.00000000000E+00  0.18980663552E+03  0.21004773375E+03  0.89963834780E+02 0.  0.
        -11    1    3    3    0    0  0.20566453733E+02  0.29036676946E+02  0.30653180591E+02  0.46965147797E+02  0.00000000000E+00 0. -1.
         11    1    3    3    0    0 -0.20566453733E+02 -0.29036676946E+02  0.15915345493E+03  0.16308258596E+03  0.00000000000E+00 0.  1.
<mgrwt>
<rscale>  0 0.89963835E+02</rscale>
<asrwt>0</asrwt>
<pdfrwt beam="2">  1        2 0.15570077E-02 0.89963835E+02</pdfrwt>
<pdfrwt beam="1">  1       -2 0.30758025E-01 0.89963835E+02</pdfrwt>
<totfact> 0.64495679E+04</totfact>
</mgrwt>
</event>
<event>
 5    1  0.1256986E+001  0.8281507E+02  0.7546771E-02  0.1321247E+00
         -2   -1    0    0    0  501 -0.00000000000E+00  0.00000000000E+00  0.39972957600E+03  0.39972957600E+03  0.00000000000E+00 0. -1.
          2   -1    0    0  501    0  0.00000000000E+00 -0.00000000000E+00 -0.42893599029E+01  0.42893599029E+01  0.00000000000E+00 0.  1.
         23    2    1    2    0    0  0.00000000000E+00  0.00000000000E+00  0.39544021610E+03  0.40401893590E+03  0.82815071462E+02 0.  0.
        -13    1    3    3    0    0 -0.15791396436E+02 -0.38258102307E+02  0.19167890891E+03  0.19609654437E+03  0.00000000000E+00 0.  1.
         13    1    3    3    0    0  0.15791396436E+02  0.38258102307E+02  0.20376130719E+03  0.20792239153E+03  0.00000000000E+00 0. -1.
<mgrwt>
<rscale>  0 0.82815071E+02</rscale>
<asrwt>0</asrwt>
<pdfrwt beam="2">  1        2 0.65990184E-03 0.82815071E+02</pdfrwt>
<pdfrwt beam="1">  1       -2 0.61496828E-01 0.82815071E+02</pdfrwt>
<totfact> 0.54724485E+04</totfact>
</mgrwt>
</event>
<event>
 5    1  0.1256986E+001  0.9119545E+02  0.7546771E-02  0.1299982E+00
         -3   -1    0    0    0  501 -0.00000000000E+00  0.00000000000E+00  0.17878163388E+03  0.17878163388E+03  0.00000000000E+00 0.  1.
          3   -1    0    0  501    0  0.00000000000E+00 -0.00000000000E+00 -0.11629565138E+02  0.11629565138E+02  0.00000000000E+00 0. -1.
         23    2    1    2    0    0  0.00000000000E+00  0.00000000000E+00  0.16715206874E+03  0.19041119902E+03  0.91195452883E+02 0.  0.
        -11    1    3    3    0    0 -0.39051086554E+00  0.30223045805E+02  0.15485937558E+03  0.15778152998E+03  0.00000000000E+00 0.  1.
         11    1    3    3    0    0  0.39051086554E+00 -0.30223045805E+02  0.12292693158E+02  0.32629669038E+02  0.00000000000E+00 0. -1.
<mgrwt>
<rscale>  0 0.91195453E+02</rscale>
<asrwt>0</asrwt>
<pdfrwt beam="2">  1        3 0.17891640E-02 0.91195453E+02</pdfrwt>
<pdfrwt beam="1">  1       -3 0.27504865E-01 0.91195453E+02</pdfrwt>
<totfact> 0.28985323E+04</totfact>
</mgrwt>
</event>
<event>
 5    1  0.1256986E+001  0.9173758E+02  0.7546771E-02  0.1298698E+00
          3   -1    0    0  501    0  0.00000000000E+00  0.00000000000E+00  0.15636191614E+03  0.15636191614E+03  0.00000000000E+00 0. -1.
         -3   -1    0    0    0  501 -0.00000000000E+00 -0.00000000000E+00 -0.13455615697E+02  0.13455615697E+02  0.00000000000E+00 0.  1.
         23    2    1    2    0    0  0.00000000000E+00  0.00000000000E+00  0.14290630044E+03  0.16981753183E+03  0.91737579064E+02 0.  0.
        -13    1    3    3    0    0  0.97035797634E+00  0.26513609939E+02  0.14071663635E+03  0.14319596660E+03  0.00000000000E+00 0. -1.
         13    1    3    3    0    0 -0.97035797634E+00 -0.26513609939E+02  0.21896640961E+01  0.26621565233E+02  0.00000000000E+00 0.  1.
<mgrwt>
<rscale>  0 0.91737579E+02</rscale>
<asrwt>0</asrwt>
<pdfrwt beam="1">  1        3 0.24055678E-01 0.91737579E+02</pdfrwt>
<pdfrwt beam="2">  1       -3 0.20700948E-02 0.91737579E+02</pdfrwt>
<totfact> 0.29640484E+04</totfact>
</mgrwt>
</event>
<event>
 5    1  0.1256986E+001  0.9582309E+02  0.7546771E-02  0.1289333E+00
         -2   -1    0    0    0  501 -0.00000000000E+00  0.00000000000E+00  0.61435604865E+01  0.61435604865E+01  0.00000000000E+00 0.  1.
          2   -1    0    0  501    0  0.00000000000E+00 -0.00000000000E+00 -0.37364590476E+03  0.37364590476E+03  0.00000000000E+00 0. -1.
         23    2    1    2    0    0  0.00000000000E+00  0.00000000000E+00 -0.36750234428E+03  0.37978946525E+03  0.95823091506E+02 0.  0.
        -13    1    3    3    0    0  0.20242332419E+02 -0.38981158837E+02 -0.25960050059E+03  0.26329014921E+03  0.00000000000E+00 0. -1.
         13    1    3    3    0    0 -0.20242332419E+02  0.38981158837E+02 -0.10790184369E+03  0.11649931604E+03  0.00000000000E+00 0.  1.
<mgrwt>
<rscale>  0 0.95823092E+02</rscale>
<asrwt>0</asrwt>
<pdfrwt beam="2">  1        2 0.57484000E-01 0.95823092E+02</pdfrwt>
<pdfrwt beam="1">  1       -2 0.94516291E-03 0.95823092E+02</pdfrwt>
<totfact> 0.17060425E+05</totfact>
</mgrwt>
</event>
<event>
 5    1  0.1256986E+001  0.9219082E+02  0.7546771E-02  0.1297631E+00
         -1   -1    0    0    0  501 -0.00000000000E+00  0.00000000000E+00  0.15101676776E+03  0.15101676776E+03  0.00000000000E+00 0.  1.
          1   -1    0    0  501    0  0.00000000000E+00 -0.00000000000E+00 -0.14069873421E+02  0.14069873421E+02  0.00000000000E+00 0. -1.
         23    2    1    2    0    0  0.00000000000E+00  0.00000000000E+00  0.13694689434E+03  0.16508664118E+03  0.92190819647E+02 0.  0.
        -13    1    3    3    0    0  0.11397379688E+02  0.43697134964E+02  0.85026286901E+02  0.96274655709E+02  0.00000000000E+00 0.  1.
         13    1    3    3    0    0 -0.11397379688E+02 -0.43697134964E+02  0.51920607439E+02  0.68811985473E+02  0.00000000000E+00 0. -1.
<mgrwt>
<rscale>  0 0.92190820E+02</rscale>
<asrwt>0</asrwt>
<pdfrwt beam="2">  1        1 0.21645960E-02 0.92190820E+02</pdfrwt>
<pdfrwt beam="1">  1       -1 0.23233348E-01 0.92190820E+02</pdfrwt>
<totfact> 0.72554370E+04</totfact>
</mgrwt>
</event>
<event>
 5    1  0.1256986E+001  0.9134482E+02  0.7546771E-02  0.1299627E+00
         -2   -1    0    0    0  501 -0.00000000000E+00  0.00000000000E+00  0.48224930554E+02  0.48224930554E+02  0.00000000000E+00 0.  1.
          2   -1    0    0  501    0  0.00000000000E+00 -0.00000000000E+00 -0.43254993445E+02  0.43254993445E+02  0.00000000000E+00 0. -1.
         23    2    1    2    0    0  0.00000000000E+00  0.00000000000E+00  0.49699371088E+01  0.91479923999E+02  0.91344820434E+02 0.  0.
        -13    1    3    3    0    0 -0.33652697000E+02 -0.15486922962E+02  0.29238151134E+02  0.47193413523E+02  0.00000000000E+00 0.  1.
         13    1    3    3    0    0  0.33652697000E+02  0.15486922962E+02 -0.24268214025E+02  0.44286510476E+02  0.00000000000E+00 0. -1.
<mgrwt>
<rscale>  0 0.91344820E+02</rscale>
<asrwt>0</asrwt>
<pdfrwt beam="2">  1        2 0.66546144E-02 0.91344820E+02</pdfrwt>
<pdfrwt beam="1">  1       -2 0.74192201E-02 0.91344820E+02</pdfrwt>
<totfact> 0.96824394E+04</totfact>
</mgrwt>
</event>
<event>
 5    1  0.1256986E+001  0.9234445E+02  0.7546771E-02  0.1297272E+00
          3   -1    0    0  501    0  0.00000000000E+00  0.00000000000E+00  0.10776156946E+03  0.10776156946E+03  0.00000000000E+00 0. -1.
         -3   -1    0    0    0  501 -0.00000000000E+00 -0.00000000000E+00 -0.19783250955E+02  0.19783250955E+02  0.00000000000E+00 0.  1.
         23    2    1    2    0    0  0.00000000000E+00  0.00000000000E+00  0.87978318505E+02  0.12754482041E+03  0.92344445895E+02 0.  0.
        -11    1    3    3    0    0  0.39568809830E+02 -0.13056774907E+02  0.71464134910E+02  0.82724196344E+02  0.00000000000E+00 0. -1.
         11    1    3    3    0    0 -0.39568809830E+02  0.13056774907E+02  0.16514183595E+02  0.44820624071E+02  0.00000000000E+00 0.  1.
<mgrwt>
<rscale>  0 0.92344446E+02</rscale>
<asrwt>0</asrwt>
<pdfrwt beam="1">  1        3 0.16578703E-01 0.92344446E+02</pdfrwt>
<pdfrwt beam="2">  1       -3 0.30435771E-02 0.92344446E+02</pdfrwt>
<totfact> 0.31624235E+04</totfact>
</mgrwt>
</event>
<event>
 5    1  0.1256986E+001  0.9161739E+02  0.7546771E-02  0.1298982E+00
          1   -1    0    0  501    0  0.00000000000E+00  0.00000000000E+00  0.90926907764E+02  0.90926907764E+02  0.00000000000E+00 0. -1.
         -1   -1    0    0    0  501 -0.00000000000E+00 -0.00000000000E+00 -0.23078278741E+02  0.23078278741E+02  0.00000000000E+00 0.  1.
         23    2    1    2    0    0  0.00000000000E+00  0.00000000000E+00  0.67848629023E+02  0.11400518651E+03  0.91617389669E+02 0.  0.
        -13    1    3    3    0    0 -0.22574311147E+02 -0.28882356817E+01  0.83394469558E+02  0.86444080086E+02  0.00000000000E+00 0. -1.
         13    1    3    3    0    0  0.22574311147E+02  0.28882356817E+01 -0.15545840535E+02  0.27561106419E+02  0.00000000000E+00 0.  1.
<mgrwt>
<rscale>  0 0.91617390E+02</rscale>
<asrwt>0</asrwt>
<pdfrwt beam="1">  1        1 0.13988755E-01 0.91617390E+02</pdfrwt>
<pdfrwt beam="2">  1       -1 0.35505045E-02 0.91617390E+02</pdfrwt>
<totfact> 0.10148347E+05</totfact>
</mgrwt>
</event>
<event>
 5    1  0.1256986E+001  0.9115397E+02  0.7546771E-02  0.1300081E+00
          1   -1    0    0  501    0  0.00000000000E+00  0.00000000000E+00  0.31631663364E+02  0.31631663364E+02  0.00000000000E+00 0. -1.
         -1   -1    0    0    0  501 -0.00000000000E+00 -0.00000000000E+00 -0.65670321799E+02  0.65670321799E+02  0.00000000000E+00 0.  1.
         23    2    1    2    0    0  0.00000000000E+00  0.00000000000E+00 -0.34038658435E+02  0.97301985164E+02  0.91153968914E+02 0.  0.
        -11    1    3    3    0    0 -0.38146975909E+02  0.16738663072E+02  0.27179528621E+01  0.41746399607E+02  0.00000000000E+00 0. -1.
         11    1    3    3    0    0  0.38146975909E+02 -0.16738663072E+02 -0.36756611297E+02  0.55555585556E+02  0.00000000000E+00 0.  1.
<mgrwt>
<rscale>  0 0.91153969E+02</rscale>
<asrwt>0</asrwt>
<pdfrwt beam="1">  1        1 0.48664098E-02 0.91153969E+02</pdfrwt>
<pdfrwt beam="2">  1       -1 0.10103126E-01 0.91153969E+02</pdfrwt>
<totfact> 0.87485631E+04</totfact>
</mgrwt>
</event>
<event>
 5    1  0.1256986E+001  0.9423510E+02  0.7546771E-02  0.1292908E+00
         -1   -1    0    0    0  501 -0.00000000000E+00  0.00000000000E+00  0.16948944637E+02  0.16948944637E+02  0.00000000000E+00 0.  1.
          1   -1    0    0  501    0  0.00000000000E+00 -0.00000000000E+00 -0.13098536791E+03  0.13098536791E+03  0.00000000000E+00 0. -1.
         23    2    1    2    0    0  0.00000000000E+00  0.00000000000E+00 -0.11403642327E+03  0.14793431255E+03  0.94235104903E+02 0.  0.
        -11    1    3    3    0    0  0.36139367496E+02  0.11531365620E+02 -0.10089068663E+03  0.10778662684E+03  0.00000000000E+00 0. -1.
         11    1    3    3    0    0 -0.36139367496E+02 -0.11531365620E+02 -0.13145736643E+02  0.40147685711E+02  0.00000000000E+00 0.  1.
<mgrwt>
<rscale>  0 0.94235105E+02</rscale>
<asrwt>0</asrwt>
<pdfrwt beam="2">  1        1 0.20151595E-01 0.94235105E+02</pdfrwt>
<pdfrwt beam="1">  1       -1 0.26075300E-02 0.94235105E+02</pdfrwt>
<totfact> 0.10004348E+05</totfact>
</mgrwt>
</event>
<event>
 5    1  0.1256986E+001  0.9323861E+02  0.7546771E-02  0.1295193E+00
          1   -1    0    0  501    0  0.00000000000E+00  0.00000000000E+00  0.14770832897E+02  0.14770832897E+02  0.00000000000E+00 0. -1.
         -1   -1    0    0    0  501 -0.00000000000E+00 -0.00000000000E+00 -0.14713858974E+03  0.14713858974E+03  0.00000000000E+00 0.  1.
         23    2    1    2    0    0  0.00000000000E+00  0.00000000000E+00 -0.13236775684E+03  0.16190942263E+03  0.93238608348E+02 0.  0.
        -11    1    3    3    0    0 -0.41814854693E+02 -0.41934907651E+01 -0.31138615223E+02  0.52303735964E+02  0.00000000000E+00 0. -1.
         11    1    3    3    0    0  0.41814854693E+02  0.41934907651E+01 -0.10122914162E+03  0.10960568667E+03  0.00000000000E+00 0.  1.
<mgrwt>
<rscale>  0 0.93238608E+02</rscale>
<asrwt>0</asrwt>
<pdfrwt beam="1">  1        1 0.22724357E-02 0.93238608E+02</pdfrwt>
<pdfrwt beam="2">  1       -1 0.22636707E-01 0.93238608E+02</pdfrwt>
<totfact> 0.70883901E+04</totfact>
</mgrwt>
</event>
<event>
 5    1  0.1256986E+001  0.8716079E+02  0.7546771E-02  0.1309877E+00
         -2   -1    0    0    0  501 -0.00000000000E+00  0.00000000000E+00  0.17939346718E+02  0.17939346718E+02  0.00000000000E+00 0.  1.
          2   -1    0    0  501    0  0.00000000000E+00 -0.00000000000E+00 -0.10587069110E+03  0.10587069110E+03  0.00000000000E+00 0. -1.
         23    2    1    2    0    0  0.00000000000E+00  0.00000000000E+00 -0.87931344379E+02  0.12381003782E+03  0.87160794738E+02 0.  0.
        -11    1    3    3    0    0 -0.62344300332E+01 -0.42889435814E+02 -0.37474969260E+02  0.57295245382E+02  0.00000000000E+00 0.  1.
         11    1    3    3    0    0  0.62344300332E+01  0.42889435814E+02 -0.50456375119E+02  0.66514792433E+02  0.00000000000E+00 0. -1.
<mgrwt>
<rscale>  0 0.87160795E+02</rscale>
<asrwt>0</asrwt>
<pdfrwt beam="2">  1        2 0.16287799E-01 0.87160795E+02</pdfrwt>
<pdfrwt beam="1">  1       -2 0.27598995E-02 0.87160795E+02</pdfrwt>
<totfact> 0.14121615E+05</totfact>
</mgrwt>
</event>
<event>
 5    1  0.1256986E+001  0.6731991E+02  0.7546771E-02  0.1369451E+00
         -3   -1    0    0    0  501 -0.00000000000E+00  0.00000000000E+00  0.13299601818E+03  0.13299601818E+03  0.00000000000E+00 0.  1.
          3   -1    0    0  501    0  0.00000000000E+00 -0.00000000000E+00 -0.85189966355E+01  0.85189966355E+01  0.00000000000E+00 0. -1.
         23    2    1    2    0    0  0.00000000000E+00  0.00000000000E+00  0.12447702154E+03  0.14151501481E+03  0.67319911806E+02 0.  0.
        -13    1    3    3    0    0 -0.20713640132E+02 -0.26217586988E+02  0.53680019094E+02  0.63229433059E+02  0.00000000000E+00 0. -1.
         13    1    3    3    0    0  0.20713640132E+02  0.26217586988E+02  0.70797002447E+02  0.78285581754E+02  0.00000000000E+00 0.  1.
<mgrwt>
<rscale>  0 0.67319912E+02</rscale>
<asrwt>0</asrwt>
<pdfrwt beam="2">  1        3 0.13106150E-02 0.67319912E+02</pdfrwt>
<pdfrwt beam="1">  1       -3 0.20460924E-01 0.67319912E+02</pdfrwt>
<totfact> 0.71284693E+04</totfact>
</mgrwt>
</event>
<event>
 5    1  0.1256986E+001  0.9267849E+02  0.7546771E-02  0.1296492E+00
         -1   -1    0    0    0  501 -0.00000000000E+00  0.00000000000E+00  0.29450268378E+02  0.29450268378E+02  0.00000000000E+00 0.  1.
          1   -1    0    0  501    0  0.00000000000E+00 -0.00000000000E+00 -0.72913620184E+02  0.72913620184E+02  0.00000000000E+00 0. -1.
         23    2    1    2    0    0  0.00000000000E+00  0.00000000000E+00 -0.43463351807E+02  0.10236388856E+03  0.92678491201E+02 0.  0.
        -11    1    3    3    0    0  0.95852360750E+01  0.45084659145E+02 -0.16455140259E+02  0.48941545560E+02  0.00000000000E+00 0.  1.
         11    1    3    3    0    0 -0.95852360750E+01 -0.45084659145E+02 -0.27008211548E+02  0.53422343002E+02  0.00000000000E+00 0. -1.
<mgrwt>
<rscale>  0 0.92678491E+02</rscale>
<asrwt>0</asrwt>
<pdfrwt beam="2">  1        1 0.11217480E-01 0.92678491E+02</pdfrwt>
<pdfrwt beam="1">  1       -1 0.45308105E-02 0.92678491E+02</pdfrwt>
<totfact> 0.94915187E+04</totfact>
</mgrwt>
</event>
<event>
 5    1  0.1256986E+001  0.9531384E+02  0.7546771E-02  0.1290471E+00
          3   -1    0    0  501    0  0.00000000000E+00  0.00000000000E+00  0.11619783266E+02  0.11619783266E+02  0.00000000000E+00 0. -1.
         -3   -1    0    0    0  501 -0.00000000000E+00 -0.00000000000E+00 -0.19545821279E+03  0.19545821279E+03  0.00000000000E+00 0.  1.
         23    2    1    2    0    0  0.00000000000E+00  0.00000000000E+00 -0.18383842952E+03  0.20707799605E+03  0.95313840972E+02 0.  0.
        -13    1    3    3    0    0  0.13006673520E+02 -0.42779289160E+02 -0.56091816278E+02  0.71732370590E+02  0.00000000000E+00 0. -1.
         13    1    3    3    0    0 -0.13006673520E+02  0.42779289160E+02 -0.12774661324E+03  0.13534562546E+03  0.00000000000E+00 0.  1.
<mgrwt>
<rscale>  0 0.95313841E+02</rscale>
<asrwt>0</asrwt>
<pdfrwt beam="1">  1        3 0.17876589E-02 0.95313841E+02</pdfrwt>
<pdfrwt beam="2">  1       -3 0.30070496E-01 0.95313841E+02</pdfrwt>
<totfact> 0.24950275E+04</totfact>
</mgrwt>
</event>
<event>
 5    1  0.1256986E+001  0.9144139E+02  0.7546771E-02  0.1299398E+00
          1   -1    0    0  501    0  0.00000000000E+00  0.00000000000E+00  0.39692511279E+02  0.39692511279E+02  0.00000000000E+00 0. -1.
         -1   -1    0    0    0  501 -0.00000000000E+00 -0.00000000000E+00 -0.52664391073E+02  0.52664391073E+02  0.00000000000E+00 0.  1.
         23    2    1    2    0    0  0.00000000000E+00  0.00000000000E+00 -0.12971879794E+02  0.92356902352E+02  0.91441389680E+02 0.  0.
        -13    1    3    3    0    0 -0.14995223675E+02 -0.21805190856E+02  0.31170836106E+02  0.40889413114E+02  0.00000000000E+00 0. -1.
         13    1    3    3    0    0  0.14995223675E+02  0.21805190856E+02 -0.44142715900E+02  0.51467489237E+02  0.00000000000E+00 0.  1.
<mgrwt>
<rscale>  0 0.91441390E+02</rscale>
<asrwt>0</asrwt>
<pdfrwt beam="1">  1        1 0.61065402E-02 0.91441390E+02</pdfrwt>
<pdfrwt beam="2">  1       -1 0.81022140E-02 0.91441390E+02</pdfrwt>
<totfact> 0.89818076E+04</totfact>
</mgrwt>
</event>
<event>
 5    1  0.1256986E+001  0.9181750E+02  0.7546771E-02  0.1298509E+00
          2   -1    0    0  501    0  0.00000000000E+00  0.00000000000E+00  0.14472723344E+03  0.14472723344E+03  0.00000000000E+00 0. -1.
         -2   -1    0    0    0  501 -0.00000000000E+00 -0.00000000000E+00 -0.14562659810E+02  0.14562659810E+02  0.00000000000E+00 0.  1.
         23    2    1    2    0    0  0.00000000000E+00  0.00000000000E+00  0.13016457363E+03  0.15928989325E+03  0.91817503033E+02 0.  0.
        -13    1    3    3    0    0 -0.30351215058E+02 -0.81040838818E+01  0.12316078530E+03  0.12710409697E+03  0.00000000000E+00 0. -1.
         13    1    3    3    0    0  0.30351215058E+02  0.81040838818E+01  0.70037883287E+01  0.32185796277E+02  0.00000000000E+00 0.  1.
<mgrwt>
<rscale>  0 0.91817503E+02</rscale>
<asrwt>0</asrwt>
<pdfrwt beam="1">  1        2 0.22265727E-01 0.91817503E+02</pdfrwt>
<pdfrwt beam="2">  1       -2 0.22404093E-02 0.91817503E+02</pdfrwt>
<totfact> 0.13551888E+05</totfact>
</mgrwt>
</event>
<event>
 5    1  0.1256986E+001  0.8773293E+02  0.7546771E-02  0.1308436E+00
          1   -1    0    0  501    0  0.00000000000E+00  0.00000000000E+00  0.30891492338E+03  0.30891492338E+03  0.00000000000E+00 0. -1.
         -1   -1    0    0    0  501 -0.00000000000E+00 -0.00000000000E+00 -0.62291153116E+01  0.62291153116E+01  0.00000000000E+00 0.  1.
         23    2    1    2    0    0  0.00000000000E+00  0.00000000000E+00  0.30268580806E+03  0.31514403869E+03  0.87732928349E+02 0.  0.
        -13    1    3    3    0    0 -0.30158341668E+02  0.30748019403E+02  0.18124587728E+03  0.18629287239E+03  0.00000000000E+00 0. -1.
         13    1    3    3    0    0  0.30158341668E+02 -0.30748019403E+02  0.12143993078E+03  0.12885116630E+03  0.00000000000E+00 0.  1.
<mgrwt>
<rscale>  0 0.87732928E+02</rscale>
<asrwt>0</asrwt>
<pdfrwt beam="1">  1        1 0.47525361E-01 0.87732928E+02</pdfrwt>
<pdfrwt beam="2">  1       -1 0.95832567E-03 0.87732928E+02</pdfrwt>
<totfact> 0.14271342E+05</totfact>
</mgrwt>
</event>
<event>
 5    1  0.1256986E+001  0.9103518E+02  0.7546771E-02  0.1300364E+00
         -2   -1    0    0    0  501 -0.00000000000E+00  0.00000000000E+00  0.18108445428E+02  0.18108445428E+02  0.00000000000E+00 0.  1.
          2   -1    0    0  501    0  0.00000000000E+00 -0.00000000000E+00 -0.11441351302E+03  0.11441351302E+03  0.00000000000E+00 0. -1.
         23    2    1    2    0    0  0.00000000000E+00  0.00000000000E+00 -0.96305067590E+02  0.13252195845E+03  0.91035176865E+02 0.  0.
        -13    1    3    3    0    0  0.33393313767E+01 -0.33958730892E+02 -0.92005901991E+02  0.98129672062E+02  0.00000000000E+00 0. -1.
         13    1    3    3    0    0 -0.33393313767E+01  0.33958730892E+02 -0.42991655988E+01  0.34392286384E+02  0.00000000000E+00 0.  1.
<mgrwt>
<rscale>  0 0.91035177E+02</rscale>
<asrwt>0</asrwt>
<pdfrwt beam="2">  1        2 0.17602079E-01 0.91035177E+02</pdfrwt>
<pdfrwt beam="1">  1       -2 0.27859147E-02 0.91035177E+02</pdfrwt>
<totfact> 0.12845590E+05</totfact>
</mgrwt>
</event>
<event>
 5    1  0.1256986E+001  0.9062196E+02  0.7546771E-02  0.1301352E+00
         -2   -1    0    0    0  501 -0.00000000000E+00  0.00000000000E+00  0.61522509237E+01  0.61522509237E+01  0.00000000000E+00 0.  1.
          2   -1    0    0  501    0  0.00000000000E+00 -0.00000000000E+00 -0.33371280931E+03  0.33371280931E+03  0.00000000000E+00 0. -1.
         23    2    1    2    0    0  0.00000000000E+00  0.00000000000E+00 -0.32756055839E+03  0.33986506024E+03  0.90621960679E+02 0.  0.
        -11    1    3    3    0    0 -0.40845815281E+02 -0.18160425112E+02 -0.19156923212E+03  0.19671540957E+03  0.00000000000E+00 0. -1.
         11    1    3    3    0    0  0.40845815281E+02  0.18160425112E+02 -0.13599132627E+03  0.14314965067E+03  0.00000000000E+00 0.  1.
<mgrwt>
<rscale>  0 0.90621961E+02</rscale>
<asrwt>0</asrwt>
<pdfrwt beam="2">  1        2 0.51340440E-01 0.90621961E+02</pdfrwt>
<pdfrwt beam="1">  1       -2 0.94649999E-03 0.90621961E+02</pdfrwt>
<totfact> 0.18995724E+05</totfact>
</mgrwt>
</event>
<event>
 5    1  0.1256986E+001  0.9140155E+02  0.7546771E-02  0.1299493E+00
         -4   -1    0    0    0  501 -0.00000000000E+00  0.00000000000E+00  0.90724919967E+02  0.90724919967E+02  0.00000000000E+00 0.  1.
          4   -1    0    0  501    0  0.00000000000E+00 -0.00000000000E+00 -0.23020806828E+02  0.23020806828E+02  0.00000000000E+00 0. -1.
         23    2    1    2    0    0  0.00000000000E+00  0.00000000000E+00  0.67704113139E+02  0.11374572679E+03  0.91401550469E+02 0.  0.
        -13    1    3    3    0    0 -0.24542258381E+02  0.27046731814E+02  0.68039951360E+02  0.77222296841E+02  0.00000000000E+00 0.  1.
         13    1    3    3    0    0  0.24542258381E+02 -0.27046731814E+02 -0.33583822145E+00  0.36523429954E+02  0.00000000000E+00 0. -1.
<mgrwt>
<rscale>  0 0.91401550E+02</rscale>
<asrwt>0</asrwt>
<pdfrwt beam="2">  1        4 0.35416626E-02 0.91401550E+02</pdfrwt>
<pdfrwt beam="1">  1       -4 0.13957680E-01 0.91401550E+02</pdfrwt>
<totfact> 0.25461952E+04</totfact>
</mgrwt>
</event>
<event>
 5    1  0.1256986E+001  0.9137316E+02  0.7546771E-02  0.1299560E+00
          3   -1    0    0  501    0  0.00000000000E+00  0.00000000000E+00  0.40794040231E+02  0.40794040231E+02  0.00000000000E+00 0. -1.
         -3   -1    0    0    0  501 -0.00000000000E+00 -0.00000000000E+00 -0.51165892336E+02  0.51165892336E+02  0.00000000000E+00 0.  1.
         23    2    1    2    0    0  0.00000000000E+00  0.00000000000E+00 -0.10371852104E+02  0.91959932567E+02  0.91373157337E+02 0.  0.
        -11    1    3    3    0    0  0.31975747651E+02  0.13072189756E+02  0.24904786346E+02  0.42586135840E+02  0.00000000000E+00 0. -1.
         11    1    3    3    0    0 -0.31975747651E+02 -0.13072189756E+02 -0.35276638451E+02  0.49373796727E+02  0.00000000000E+00 0.  1.
<mgrwt>
<rscale>  0 0.91373157E+02</rscale>
<asrwt>0</asrwt>
<pdfrwt beam="1">  1        3 0.62760062E-02 0.91373157E+02</pdfrwt>
<pdfrwt beam="2">  1       -3 0.78716757E-02 0.91373157E+02</pdfrwt>
<totfact> 0.35072572E+04</totfact>
</mgrwt>
</event>
<event>
 5    1  0.1256986E+001  0.9161592E+02  0.7546771E-02  0.1298985E+00
         -3   -1    0    0    0  501 -0.00000000000E+00  0.00000000000E+00  0.18428377856E+03  0.18428377856E+03  0.00000000000E+00 0.  1.
          3   -1    0    0  501    0  0.00000000000E+00 -0.00000000000E+00 -0.11386619609E+02  0.11386619609E+02  0.00000000000E+00 0. -1.
         23    2    1    2    0    0  0.00000000000E+00  0.00000000000E+00  0.17289715895E+03  0.19567039817E+03  0.91615921903E+02 0.  0.
        -13    1    3    3    0    0 -0.39363526655E+02 -0.50449969199E+01  0.37585199638E+02  0.54658818652E+02  0.00000000000E+00 0. -1.
         13    1    3    3    0    0  0.39363526655E+02  0.50449969199E+01  0.13531195932E+03  0.14101157952E+03  0.00000000000E+00 0.  1.
<mgrwt>
<rscale>  0 0.91615922E+02</rscale>
<asrwt>0</asrwt>
<pdfrwt beam="2">  1        3 0.17517878E-02 0.91615922E+02</pdfrwt>
<pdfrwt beam="1">  1       -3 0.28351348E-01 0.91615922E+02</pdfrwt>
<totfact> 0.28352302E+04</totfact>
</mgrwt>
</event>
<event>
 5    1  0.1256986E+001  0.9357921E+02  0.7546771E-02  0.1294408E+00
         -2   -1    0    0    0  501 -0.00000000000E+00  0.00000000000E+00  0.71729038653E+01  0.71729038653E+01  0.00000000000E+00 0. -1.
          2   -1    0    0  501    0  0.00000000000E+00 -0.00000000000E+00 -0.30521353367E+03  0.30521353367E+03  0.00000000000E+00 0.  1.
         23    2    1    2    0    0  0.00000000000E+00  0.00000000000E+00 -0.29804062980E+03  0.31238643753E+03  0.93579214260E+02 0.  0.
        -13    1    3    3    0    0 -0.45847818169E+02 -0.87553128954E+01 -0.13815734774E+03  0.14582911462E+03  0.00000000000E+00 0. -1.
         13    1    3    3    0    0  0.45847818169E+02  0.87553128954E+01 -0.15988328206E+03  0.16655732292E+03  0.00000000000E+00 0.  1.
<mgrwt>
<rscale>  0 0.93579214E+02</rscale>
<asrwt>0</asrwt>
<pdfrwt beam="2">  1        2 0.46955921E-01 0.93579214E+02</pdfrwt>
<pdfrwt beam="1">  1       -2 0.11035239E-02 0.93579214E+02</pdfrwt>
<totfact> 0.16867404E+05</totfact>
</mgrwt>
</event>
<event>
 5    1  0.1256986E+001  0.9151426E+02  0.7546771E-02  0.1299226E+00
          2   -1    0    0  501    0  0.00000000000E+00  0.00000000000E+00  0.43325818966E+03  0.43325818966E+03  0.00000000000E+00 0. -1.
         -2   -1    0    0    0  501 -0.00000000000E+00 -0.00000000000E+00 -0.48324877207E+01  0.48324877207E+01  0.00000000000E+00 0.  1.
         23    2    1    2    0    0  0.00000000000E+00  0.00000000000E+00  0.42842570194E+03  0.43809067738E+03  0.91514258592E+02 0.  0.
        -11    1    3    3    0    0 -0.45588146967E+02  0.24886364295E+01  0.19965932444E+03  0.20481288605E+03  0.00000000000E+00 0. -1.
         11    1    3    3    0    0  0.45588146967E+02 -0.24886364295E+01  0.22876637750E+03  0.23327779133E+03  0.00000000000E+00 0.  1.
<mgrwt>
<rscale>  0 0.91514259E+02</rscale>
<asrwt>0</asrwt>
<pdfrwt beam="1">  1        2 0.66655075E-01 0.91514259E+02</pdfrwt>
<pdfrwt beam="2">  1       -2 0.74345999E-03 0.91514259E+02</pdfrwt>
<totfact> 0.20333008E+05</totfact>
</mgrwt>
</event>
<event>
 5    1  0.1256986E+001  0.8585467E+02  0.7546771E-02  0.1313212E+00
         -3   -1    0    0    0  501 -0.00000000000E+00  0.00000000000E+00  0.28548818271E+02  0.28548818271E+02  0.00000000000E+00 0.  1.
          3   -1    0    0  501    0  0.00000000000E+00 -0.00000000000E+00 -0.64547542940E+02  0.64547542940E+02  0.00000000000E+00 0. -1.
         23    2    1    2    0    0  0.00000000000E+00  0.00000000000E+00 -0.35998724669E+02  0.93096361210E+02  0.85854669604E+02 0.  0.
        -11    1    3    3    0    0  0.22903271967E+02  0.27920873950E+02 -0.43165144194E+02  0.56279345610E+02  0.00000000000E+00 0. -1.
         11    1    3    3    0    0 -0.22903271967E+02 -0.27920873950E+02  0.71664195257E+01  0.36817015601E+02  0.00000000000E+00 0.  1.
<mgrwt>
<rscale>  0 0.85854670E+02</rscale>
<asrwt>0</asrwt>
<pdfrwt beam="2">  1        3 0.99303912E-02 0.85854670E+02</pdfrwt>
<pdfrwt beam="1">  1       -3 0.43921259E-02 0.85854670E+02</pdfrwt>
<totfact> 0.41421523E+04</totfact>
</mgrwt>
</event>
<event>
 5    1  0.1256986E+001  0.9019767E+02  0.7546771E-02  0.1302374E+00
         -3   -1    0    0    0  501 -0.00000000000E+00  0.00000000000E+00  0.28596464426E+02  0.28596464426E+02  0.00000000000E+00 0.  1.
          3   -1    0    0  501    0  0.00000000000E+00 -0.00000000000E+00 -0.71124355749E+02  0.71124355749E+02  0.00000000000E+00 0. -1.
         23    2    1    2    0    0  0.00000000000E+00  0.00000000000E+00 -0.42527891323E+02  0.99720820175E+02  0.90197674228E+02 0.  0.
        -13    1    3    3    0    0  0.41030088555E+02 -0.68620164605E+01 -0.40519776746E+02  0.58072435322E+02  0.00000000000E+00 0. -1.
         13    1    3    3    0    0 -0.41030088555E+02  0.68620164605E+01 -0.20081145767E+01  0.41648384853E+02  0.00000000000E+00 0.  1.
<mgrwt>
<rscale>  0 0.90197674E+02</rscale>
<asrwt>0</asrwt>
<pdfrwt beam="2">  1        3 0.10942209E-01 0.90197674E+02</pdfrwt>
<pdfrwt beam="1">  1       -3 0.43994561E-02 0.90197674E+02</pdfrwt>
<totfact> 0.35724488E+04</totfact>
</mgrwt>
</event>
<event>
 5    1  0.1256986E+001  0.9157420E+02  0.7546771E-02  0.1299084E+00
          3   -1    0    0  501    0  0.00000000000E+00  0.00000000000E+00  0.17333024949E+02  0.17333024949E+02  0.00000000000E+00 0. -1.
         -3   -1    0    0    0  501 -0.00000000000E+00 -0.00000000000E+00 -0.12095167077E+03  0.12095167077E+03  0.00000000000E+00 0.  1.
         23    2    1    2    0    0  0.00000000000E+00  0.00000000000E+00 -0.10361864583E+03  0.13828469572E+03  0.91574195648E+02 0.  0.
        -11    1    3    3    0    0  0.31333178052E+02 -0.33081467797E+02 -0.45004428098E+02  0.64043345532E+02  0.00000000000E+00 0. -1.
         11    1    3    3    0    0 -0.31333178052E+02  0.33081467797E+02 -0.58614217728E+02  0.74241350192E+02  0.00000000000E+00 0.  1.
<mgrwt>
<rscale>  0 0.91574196E+02</rscale>
<asrwt>0</asrwt>
<pdfrwt beam="1">  1        3 0.26666193E-02 0.91574196E+02</pdfrwt>
<pdfrwt beam="2">  1       -3 0.18607949E-01 0.91574196E+02</pdfrwt>
<totfact> 0.31664608E+04</totfact>
</mgrwt>
</event>
<event>
 5    1  0.1256986E+001  0.8872203E+02  0.7546771E-02  0.1305976E+00
          1   -1    0    0  501    0  0.00000000000E+00  0.00000000000E+00  0.33237437584E+03  0.33237437584E+03  0.00000000000E+00 0. -1.
         -1   -1    0    0    0  501 -0.00000000000E+00 -0.00000000000E+00 -0.59207321167E+01  0.59207321167E+01  0.00000000000E+00 0.  1.
         23    2    1    2    0    0  0.00000000000E+00  0.00000000000E+00  0.32645364373E+03  0.33829510796E+03  0.88722029774E+02 0.  0.
        -11    1    3    3    0    0 -0.18741692146E+02  0.38971016855E+02  0.20095574104E+03  0.20555583436E+03  0.00000000000E+00 0. -1.
         11    1    3    3    0    0  0.18741692146E+02 -0.38971016855E+02  0.12549790268E+03  0.13273927360E+03  0.00000000000E+00 0.  1.
<mgrwt>
<rscale>  0 0.88722030E+02</rscale>
<asrwt>0</asrwt>
<pdfrwt beam="1">  1        1 0.51134505E-01 0.88722030E+02</pdfrwt>
<pdfrwt beam="2">  1       -1 0.91088212E-03 0.88722030E+02</pdfrwt>
<totfact> 0.14042334E+05</totfact>
</mgrwt>
</event>
<event>
 5    1  0.1256986E+001  0.8945443E+02  0.7546771E-02  0.1304178E+00
          2   -1    0    0  501    0  0.00000000000E+00  0.00000000000E+00  0.20743419520E+03  0.20743419520E+03  0.00000000000E+00 0. -1.
         -2   -1    0    0    0  501 -0.00000000000E+00 -0.00000000000E+00 -0.96441376417E+01  0.96441376417E+01  0.00000000000E+00 0.  1.
         23    2    1    2    0    0  0.00000000000E+00  0.00000000000E+00  0.19779005755E+03  0.21707833284E+03  0.89454433765E+02 0.  0.
        -11    1    3    3    0    0 -0.32375591404E+02  0.30813672635E+02  0.10300079467E+03  0.11228011864E+03  0.00000000000E+00 0.  1.
         11    1    3    3    0    0  0.32375591404E+02 -0.30813672635E+02  0.94789262884E+02  0.10479821419E+03  0.00000000000E+00 0. -1.
<mgrwt>
<rscale>  0 0.89454434E+02</rscale>
<asrwt>0</asrwt>
<pdfrwt beam="1">  1        2 0.31912950E-01 0.89454434E+02</pdfrwt>
<pdfrwt beam="2">  1       -2 0.14837136E-02 0.89454434E+02</pdfrwt>
<totfact> 0.16497592E+05</totfact>
</mgrwt>
</event>
<event>
 5    1  0.1256986E+001  0.8870320E+02  0.7546771E-02  0.1306023E+00
         -1   -1    0    0    0  501 -0.00000000000E+00  0.00000000000E+00  0.75950389262E+01  0.75950389262E+01  0.00000000000E+00 0.  1.
          1   -1    0    0  501    0  0.00000000000E+00 -0.00000000000E+00 -0.25899333155E+03  0.25899333155E+03  0.00000000000E+00 0. -1.
         23    2    1    2    0    0  0.00000000000E+00  0.00000000000E+00 -0.25139829262E+03  0.26658837048E+03  0.88703200275E+02 0.  0.
        -11    1    3    3    0    0 -0.38992178708E+02  0.17483053344E+02 -0.90009842347E+02  0.99638440745E+02  0.00000000000E+00 0.  1.
         11    1    3    3    0    0  0.38992178708E+02 -0.17483053344E+02 -0.16138845028E+03  0.16694992973E+03  0.00000000000E+00 0. -1.
<mgrwt>
<rscale>  0 0.88703200E+02</rscale>
<asrwt>0</asrwt>
<pdfrwt beam="2">  1        1 0.39845123E-01 0.88703200E+02</pdfrwt>
<pdfrwt beam="1">  1       -1 0.11684677E-02 0.88703200E+02</pdfrwt>
<totfact> 0.13399442E+05</totfact>
</mgrwt>
</event>
<event>
 5    1  0.1256986E+001  0.8657355E+02  0.7546771E-02  0.1311368E+00
         -1   -1    0    0    0  501 -0.00000000000E+00  0.00000000000E+00  0.22897277094E+02  0.22897277094E+02  0.00000000000E+00 0.  1.
          1   -1    0    0  501    0  0.00000000000E+00 -0.00000000000E+00 -0.81832645054E+02  0.81832645054E+02  0.00000000000E+00 0. -1.
         23    2    1    2    0    0  0.00000000000E+00  0.00000000000E+00 -0.58935367960E+02  0.10472992215E+03  0.86573546747E+02 0.  0.
        -11    1    3    3    0    0 -0.42617119703E+02  0.57521412483E+01 -0.35448010168E+02  0.55730309936E+02  0.00000000000E+00 0.  1.
         11    1    3    3    0    0  0.42617119703E+02 -0.57521412483E+01 -0.23487357792E+02  0.48999612211E+02  0.00000000000E+00 0. -1.
<mgrwt>
<rscale>  0 0.86573547E+02</rscale>
<asrwt>0</asrwt>
<pdfrwt beam="2">  1        1 0.12589638E-01 0.86573547E+02</pdfrwt>
<pdfrwt beam="1">  1       -1 0.35226579E-02 0.86573547E+02</pdfrwt>
<totfact> 0.11647161E+05</totfact>
</mgrwt>
</event>
<event>
 5    1  0.1256986E+001  0.9032793E+02  0.7546771E-02  0.1302060E+00
          4   -1    0    0  501    0  0.00000000000E+00  0.00000000000E+00  0.96927331664E+02  0.96927331664E+02  0.00000000000E+00 0. -1.
         -4   -1    0    0    0  501 -0.00000000000E+00 -0.00000000000E+00 -0.21044463403E+02  0.21044463403E+02  0.00000000000E+00 0.  1.
         23    2    1    2    0    0  0.00000000000E+00  0.00000000000E+00  0.75882868261E+02  0.11797179507E+03  0.90327928879E+02 0.  0.
        -11    1    3    3    0    0  0.37851079481E+02 -0.24515915814E+02  0.34729178824E+02  0.56919682078E+02  0.00000000000E+00 0.  1.
         11    1    3    3    0    0 -0.37851079481E+02  0.24515915814E+02  0.41153689436E+02  0.61052112988E+02  0.00000000000E+00 0. -1.
<mgrwt>
<rscale>  0 0.90327929E+02</rscale>
<asrwt>0</asrwt>
<pdfrwt beam="1">  1        4 0.14911897E-01 0.90327929E+02</pdfrwt>
<pdfrwt beam="2">  1       -4 0.32376098E-02 0.90327929E+02</pdfrwt>
<totfact> 0.26036857E+04</totfact>
</mgrwt>
</event>
<event>
 5    1  0.1256986E+001  0.9306913E+02  0.7546771E-02  0.1295585E+00
         -2   -1    0    0    0  501 -0.00000000000E+00  0.00000000000E+00  0.55658639865E+02  0.55658639865E+02  0.00000000000E+00 0. -1.
          2   -1    0    0  501    0  0.00000000000E+00 -0.00000000000E+00 -0.38906193933E+02  0.38906193933E+02  0.00000000000E+00 0.  1.
         23    2    1    2    0    0  0.00000000000E+00  0.00000000000E+00  0.16752445931E+02  0.94564833798E+02  0.93069132082E+02 0.  0.
        -11    1    3    3    0    0 -0.42137917648E+02  0.61321941400E+00 -0.11676333844E+02  0.43730045893E+02  0.00000000000E+00 0.  1.
         11    1    3    3    0    0  0.42137917648E+02 -0.61321941400E+00  0.28428779776E+02  0.50834787905E+02  0.00000000000E+00 0. -1.
<mgrwt>
<rscale>  0 0.93069132E+02</rscale>
<asrwt>0</asrwt>
<pdfrwt beam="2">  1        2 0.59855683E-02 0.93069132E+02</pdfrwt>
<pdfrwt beam="1">  1       -2 0.85628677E-02 0.93069132E+02</pdfrwt>
<totfact> 0.89207122E+04</totfact>
</mgrwt>
</event>
<event>
 5    1  0.1256986E+001  0.9195012E+02  0.7546771E-02  0.1298197E+00
         -2   -1    0    0    0  501 -0.00000000000E+00  0.00000000000E+00  0.13024107810E+02  0.13024107810E+02  0.00000000000E+00 0.  1.
          2   -1    0    0  501    0  0.00000000000E+00 -0.00000000000E+00 -0.16229182195E+03  0.16229182195E+03  0.00000000000E+00 0. -1.
         23    2    1    2    0    0  0.00000000000E+00  0.00000000000E+00 -0.14926771414E+03  0.17531592976E+03  0.91950120952E+02 0.  0.
        -11    1    3    3    0    0  0.98862871720E+01  0.29860234968E+02 -0.13856562629E+03  0.14209083396E+03  0.00000000000E+00 0. -1.
         11    1    3    3    0    0 -0.98862871720E+01 -0.29860234968E+02 -0.10702087844E+02  0.33225095795E+02  0.00000000000E+00 0.  1.
<mgrwt>
<rscale>  0 0.91950121E+02</rscale>
<asrwt>0</asrwt>
<pdfrwt beam="2">  1        2 0.24967973E-01 0.91950121E+02</pdfrwt>
<pdfrwt beam="1">  1       -2 0.20037088E-02 0.91950121E+02</pdfrwt>
<totfact> 0.14038912E+05</totfact>
</mgrwt>
</event>
<event>
 5    1  0.1256986E+001  0.9409294E+02  0.7546771E-02  0.1293232E+00
          3   -1    0    0  501    0  0.00000000000E+00  0.00000000000E+00  0.69057618207E+02  0.69057618207E+02  0.00000000000E+00 0. -1.
         -3   -1    0    0    0  501 -0.00000000000E+00 -0.00000000000E+00 -0.32051063766E+02  0.32051063766E+02  0.00000000000E+00 0.  1.
         23    2    1    2    0    0  0.00000000000E+00  0.00000000000E+00  0.37006554442E+02  0.10110868197E+03  0.94092935434E+02 0.  0.
        -11    1    3    3    0    0 -0.25206169076E+02 -0.18248918500E+02 -0.19412104598E+02  0.36677019929E+02  0.00000000000E+00 0.  1.
         11    1    3    3    0    0  0.25206169076E+02  0.18248918500E+02  0.56418659040E+02  0.64431662044E+02  0.00000000000E+00 0. -1.
<mgrwt>
<rscale>  0 0.94092935E+02</rscale>
<asrwt>0</asrwt>
<pdfrwt beam="1">  1        3 0.10624249E-01 0.94092935E+02</pdfrwt>
<pdfrwt beam="2">  1       -3 0.49309329E-02 0.94092935E+02</pdfrwt>
<totfact> 0.31739587E+04</totfact>
</mgrwt>
</event>
<event>
 5    1  0.1256986E+001  0.9049418E+02  0.7546771E-02  0.1301659E+00
          1   -1    0    0  501    0  0.00000000000E+00  0.00000000000E+00  0.46823407053E+02  0.46823407053E+02  0.00000000000E+00 0. -1.
         -1   -1    0    0    0  501 -0.00000000000E+00 -0.00000000000E+00 -0.43723843492E+02  0.43723843492E+02  0.00000000000E+00 0.  1.
         23    2    1    2    0    0  0.00000000000E+00  0.00000000000E+00  0.30995635618E+01  0.90547250545E+02  0.90494183719E+02 0.  0.
        -11    1    3    3    0    0  0.21507762668E+02  0.39711152866E+02 -0.12339001165E+01  0.45178335808E+02  0.00000000000E+00 0. -1.
         11    1    3    3    0    0 -0.21507762668E+02 -0.39711152866E+02  0.43334636782E+01  0.45368914736E+02  0.00000000000E+00 0.  1.
<mgrwt>
<rscale>  0 0.90494184E+02</rscale>
<asrwt>0</asrwt>
<pdfrwt beam="1">  1        1 0.72036011E-02 0.90494184E+02</pdfrwt>
<pdfrwt beam="2">  1       -1 0.67267452E-02 0.90494184E+02</pdfrwt>
<totfact> 0.94818974E+04</totfact>
</mgrwt>
</event>
<event>
 5    1  0.1256986E+001  0.8736958E+02  0.7546771E-02  0.1309350E+00
          2   -1    0    0  501    0  0.00000000000E+00  0.00000000000E+00  0.77199001976E+02  0.77199001976E+02  0.00000000000E+00 0. -1.
         -2   -1    0    0    0  501 -0.00000000000E+00 -0.00000000000E+00 -0.24720017926E+02  0.24720017926E+02  0.00000000000E+00 0.  1.
         23    2    1    2    0    0  0.00000000000E+00  0.00000000000E+00  0.52478984050E+02  0.10191901990E+03  0.87369576232E+02 0.  0.
        -13    1    3    3    0    0 -0.38955825694E+02 -0.86546962568E+01  0.46972877771E+02  0.61635309433E+02  0.00000000000E+00 0. -1.
         13    1    3    3    0    0  0.38955825694E+02  0.86546962568E+01  0.55061062786E+01  0.40283710469E+02  0.00000000000E+00 0.  1.
<mgrwt>
<rscale>  0 0.87369576E+02</rscale>
<asrwt>0</asrwt>
<pdfrwt beam="1">  1        2 0.11876769E-01 0.87369576E+02</pdfrwt>
<pdfrwt beam="2">  1       -2 0.38030797E-02 0.87369576E+02</pdfrwt>
<totfact> 0.12796649E+05</totfact>
</mgrwt>
</event>
<event>
 5    1  0.1256986E+001  0.9073711E+02  0.7546771E-02  0.1301076E+00
          1   -1    0    0  501    0  0.00000000000E+00  0.00000000000E+00  0.14016101668E+02  0.14016101668E+02  0.00000000000E+00 0. -1.
         -1   -1    0    0    0  501 -0.00000000000E+00 -0.00000000000E+00 -0.14685293780E+03  0.14685293780E+03  0.00000000000E+00 0.  1.
         23    2    1    2    0    0  0.00000000000E+00  0.00000000000E+00 -0.13283683613E+03  0.16086903947E+03  0.90737108318E+02 0.  0.
        -11    1    3    3    0    0 -0.23424861807E+02 -0.38803750381E+02 -0.69897356808E+02  0.83307236679E+02  0.00000000000E+00 0. -1.
         11    1    3    3    0    0  0.23424861807E+02  0.38803750381E+02 -0.62939479326E+02  0.77561802791E+02  0.00000000000E+00 0.  1.
<mgrwt>
<rscale>  0 0.90737108E+02</rscale>
<asrwt>0</asrwt>
<pdfrwt beam="1">  1        1 0.21563233E-02 0.90737108E+02</pdfrwt>
<pdfrwt beam="2">  1       -1 0.22592760E-01 0.90737108E+02</pdfrwt>
<totfact> 0.76106487E+04</totfact>
</mgrwt>
</event>
<event>
 5    1  0.1256986E+001  0.9405571E+02  0.7546771E-02  0.1293317E+00
          1   -1    0    0  501    0  0.00000000000E+00  0.00000000000E+00  0.39540617119E+02  0.39540617119E+02  0.00000000000E+00 0. -1.
         -1   -1    0    0    0  501 -0.00000000000E+00 -0.00000000000E+00 -0.55932840232E+02  0.55932840232E+02  0.00000000000E+00 0.  1.
         23    2    1    2    0    0  0.00000000000E+00  0.00000000000E+00 -0.16392223112E+02  0.95473457351E+02  0.94055707323E+02 0.  0.
        -13    1    3    3    0    0 -0.40308240187E+01  0.17352764580E+02  0.35982950608E+02  0.40151447238E+02  0.00000000000E+00 0. -1.
         13    1    3    3    0    0  0.40308240187E+01 -0.17352764580E+02 -0.52375173720E+02  0.55322010114E+02  0.00000000000E+00 0.  1.
<mgrwt>
<rscale>  0 0.94055707E+02</rscale>
<asrwt>0</asrwt>
<pdfrwt beam="1">  1        1 0.60831719E-02 0.94055707E+02</pdfrwt>
<pdfrwt beam="2">  1       -1 0.86050523E-02 0.94055707E+02</pdfrwt>
<totfact> 0.82865584E+04</totfact>
</mgrwt>
</event>
<event>
 5    1  0.1256986E+001  0.9215487E+02  0.7546771E-02  0.1297716E+00
         -1   -1    0    0    0  501 -0.00000000000E+00  0.00000000000E+00  0.16899874815E+02  0.16899874815E+02  0.00000000000E+00 0.  1.
          1   -1    0    0  501    0  0.00000000000E+00 -0.00000000000E+00 -0.12562993777E+03  0.12562993777E+03  0.00000000000E+00 0. -1.
         23    2    1    2    0    0  0.00000000000E+00  0.00000000000E+00 -0.10873006296E+03  0.14252981259E+03  0.92154874454E+02 0.  0.
        -11    1    3    3    0    0 -0.38442033316E+02  0.63366728116E+01 -0.92413059443E+02  0.10029016354E+03  0.00000000000E+00 0. -1.
         11    1    3    3    0    0  0.38442033316E+02 -0.63366728116E+01 -0.16317003515E+02  0.42239649046E+02  0.00000000000E+00 0.  1.
<mgrwt>
<rscale>  0 0.92154874E+02</rscale>
<asrwt>0</asrwt>
<pdfrwt beam="2">  1        1 0.19327682E-01 0.92154874E+02</pdfrwt>
<pdfrwt beam="1">  1       -1 0.25999808E-02 0.92154874E+02</pdfrwt>
<totfact> 0.10550845E+05</totfact>
</mgrwt>
</event>
<event>
 5    1  0.1256986E+001  0.8394145E+02  0.7546771E-02  0.1318224E+00
          1   -1    0    0  501    0  0.00000000000E+00  0.00000000000E+00  0.98680962834E+01  0.98680962834E+01  0.00000000000E+00 0. -1.
         -1   -1    0    0    0  501 -0.00000000000E+00 -0.00000000000E+00 -0.17850879312E+03  0.17850879312E+03  0.00000000000E+00 0.  1.
         23    2    1    2    0    0  0.00000000000E+00  0.00000000000E+00 -0.16864069684E+03  0.18837688940E+03  0.83941454787E+02 0.  0.
        -11    1    3    3    0    0 -0.11049336193E+02  0.39147522752E+02 -0.61114793553E+02  0.73414129151E+02  0.00000000000E+00 0.  1.
         11    1    3    3    0    0  0.11049336193E+02 -0.39147522752E+02 -0.10752590328E+03  0.11496276025E+03  0.00000000000E+00 0. -1.
<mgrwt>
<rscale>  0 0.83941455E+02</rscale>
<asrwt>0</asrwt>
<pdfrwt beam="1">  1        1 0.15181687E-02 0.83941455E+02</pdfrwt>
<pdfrwt beam="2">  1       -1 0.27462891E-01 0.83941455E+02</pdfrwt>
<totfact> 0.88760833E+04</totfact>
</mgrwt>
</event>
<event>
 5    1  0.1256986E+001  0.9085409E+02  0.7546771E-02  0.1300796E+00
          1   -1    0    0  501    0  0.00000000000E+00  0.00000000000E+00  0.16035143916E+03  0.16035143916E+03  0.00000000000E+00 0. -1.
         -1   -1    0    0    0  501 -0.00000000000E+00 -0.00000000000E+00 -0.12869333825E+02  0.12869333825E+02  0.00000000000E+00 0.  1.
         23    2    1    2    0    0  0.00000000000E+00  0.00000000000E+00  0.14748210534E+03  0.17322077299E+03  0.90854085210E+02 0.  0.
        -13    1    3    3    0    0 -0.36124876569E+02  0.27197898689E+02  0.82026199397E+02  0.93664453171E+02  0.00000000000E+00 0. -1.
         13    1    3    3    0    0  0.36124876569E+02 -0.27197898689E+02  0.65455905942E+02  0.79556319817E+02  0.00000000000E+00 0.  1.
<mgrwt>
<rscale>  0 0.90854085E+02</rscale>
<asrwt>0</asrwt>
<pdfrwt beam="1">  1        1 0.24669451E-01 0.90854085E+02</pdfrwt>
<pdfrwt beam="2">  1       -1 0.19798976E-02 0.90854085E+02</pdfrwt>
<totfact> 0.11461571E+05</totfact>
</mgrwt>
</event>
<event>
 5    1  0.1256986E+001  0.9579371E+02  0.7546771E-02  0.1289398E+00
         -3   -1    0    0    0  501 -0.00000000000E+00  0.00000000000E+00  0.90744467742E+02  0.90744467742E+02  0.00000000000E+00 0.  1.
          3   -1    0    0  501    0  0.00000000000E+00 -0.00000000000E+00 -0.25280975137E+02  0.25280975137E+02  0.00000000000E+00 0. -1.
         23    2    1    2    0    0  0.00000000000E+00  0.00000000000E+00  0.65463492605E+02  0.11602544288E+03  0.95793708202E+02 0.  0.
        -13    1    3    3    0    0 -0.33746481449E+00 -0.20806273395E+02  0.84983440139E+02  0.87493999754E+02  0.00000000000E+00 0.  1.
         13    1    3    3    0    0  0.33746481449E+00  0.20806273395E+02 -0.19519947533E+02  0.28531443125E+02  0.00000000000E+00 0. -1.
<mgrwt>
<rscale>  0 0.95793708E+02</rscale>
<asrwt>0</asrwt>
<pdfrwt beam="2">  1        3 0.38893809E-02 0.95793708E+02</pdfrwt>
<pdfrwt beam="1">  1       -3 0.13960687E-01 0.95793708E+02</pdfrwt>
<totfact> 0.29295203E+04</totfact>
</mgrwt>
</event>
<event>
 5    1  0.1256986E+001  0.9077790E+02  0.7546771E-02  0.1300979E+00
         -1   -1    0    0    0  501 -0.00000000000E+00  0.00000000000E+00  0.10556946489E+02  0.10556946489E+02  0.00000000000E+00 0.  1.
          1   -1    0    0  501    0  0.00000000000E+00 -0.00000000000E+00 -0.19514704222E+03  0.19514704222E+03  0.00000000000E+00 0. -1.
         23    2    1    2    0    0  0.00000000000E+00  0.00000000000E+00 -0.18459009573E+03  0.20570398871E+03  0.90777902207E+02 0.  0.
        -13    1    3    3    0    0 -0.98091987074E+01  0.32253275471E+02 -0.23426761078E+02  0.41052494351E+02  0.00000000000E+00 0.  1.
         13    1    3    3    0    0  0.98091987074E+01 -0.32253275471E+02 -0.16116333466E+03  0.16465149436E+03  0.00000000000E+00 0. -1.
<mgrwt>
<rscale>  0 0.90777902E+02</rscale>
<asrwt>0</asrwt>
<pdfrwt beam="2">  1        1 0.30022619E-01 0.90777902E+02</pdfrwt>
<pdfrwt beam="1">  1       -1 0.16241458E-02 0.90777902E+02</pdfrwt>
<totfact> 0.11923801E+05</totfact>
</mgrwt>
</event>
<event>
 5    1  0.1256986E+001  0.9246460E+02  0.7546771E-02  0.1296991E+00
         -2   -1    0    0    0  501 -0.00000000000E+00  0.00000000000E+00  0.14374732972E+02  0.14374732972E+02  0.00000000000E+00 0.  1.
          2   -1    0    0  501    0  0.00000000000E+00 -0.00000000000E+00 -0.14869324125E+03  0.14869324125E+03  0.00000000000E+00 0. -1.
         23    2    1    2    0    0  0.00000000000E+00  0.00000000000E+00 -0.13431850828E+03  0.16306797422E+03  0.92464601610E+02 0.  0.
        -13    1    3    3    0    0  0.20717260290E+02  0.19871698537E+02 -0.32474382067E+01  0.28890052468E+02  0.00000000000E+00 0.  1.
         13    1    3    3    0    0 -0.20717260290E+02 -0.19871698537E+02 -0.13107107007E+03  0.13417792176E+03  0.00000000000E+00 0. -1.
<mgrwt>
<rscale>  0 0.92464602E+02</rscale>
<asrwt>0</asrwt>
<pdfrwt beam="2">  1        2 0.22875883E-01 0.92464602E+02</pdfrwt>
<pdfrwt beam="1">  1       -2 0.22114974E-02 0.92464602E+02</pdfrwt>
<totfact> 0.13417778E+05</totfact>
</mgrwt>
</event>
<event>
 5    1  0.1256986E+001  0.9130386E+02  0.7546771E-02  0.1299725E+00
          2   -1    0    0  501    0  0.00000000000E+00  0.00000000000E+00  0.92386854795E+01  0.92386854795E+01  0.00000000000E+00 0. -1.
         -2   -1    0    0    0  501 -0.00000000000E+00 -0.00000000000E+00 -0.22558388476E+03  0.22558388476E+03  0.00000000000E+00 0.  1.
         23    2    1    2    0    0  0.00000000000E+00  0.00000000000E+00 -0.21634519928E+03  0.23482257023E+03  0.91303856665E+02 0.  0.
        -11    1    3    3    0    0  0.32419967530E+02 -0.25774791578E+02 -0.58788190031E+02  0.71912762863E+02  0.00000000000E+00 0.  1.
         11    1    3    3    0    0 -0.32419967530E+02  0.25774791578E+02 -0.15755700925E+03  0.16290980737E+03  0.00000000000E+00 0. -1.
<mgrwt>
<rscale>  0 0.91303857E+02</rscale>
<asrwt>0</asrwt>
<pdfrwt beam="1">  1        2 0.14213361E-02 0.91303857E+02</pdfrwt>
<pdfrwt beam="2">  1       -2 0.34705215E-01 0.91303857E+02</pdfrwt>
<totfact> 0.58824834E+04</totfact>
</mgrwt>
</event>
<event>
 5    1  0.1256986E+001  0.9046719E+02  0.7546771E-02  0.1301724E+00
          1   -1    0    0  501    0  0.00000000000E+00  0.00000000000E+00  0.52103213333E+01  0.52103213333E+01  0.00000000000E+00 0. -1.
         -1   -1    0    0    0  501 -0.00000000000E+00 -0.00000000000E+00 -0.39269707057E+03  0.39269707057E+03  0.00000000000E+00 0.  1.
         23    2    1    2    0    0  0.00000000000E+00  0.00000000000E+00 -0.38748674924E+03  0.39790739190E+03  0.90467185748E+02 0.  0.
        -11    1    3    3    0    0  0.26210818544E+02  0.35462041529E+02 -0.14942793903E+03  0.15579882015E+03  0.00000000000E+00 0.  1.
         11    1    3    3    0    0 -0.26210818544E+02 -0.35462041529E+02 -0.23805881021E+03  0.24210857175E+03  0.00000000000E+00 0. -1.
<mgrwt>
<rscale>  0 0.90467186E+02</rscale>
<asrwt>0</asrwt>
<pdfrwt beam="1">  1        1 0.80158765E-03 0.90467186E+02</pdfrwt>
<pdfrwt beam="2">  1       -1 0.60414952E-01 0.90467186E+02</pdfrwt>
<totfact> 0.54895719E+04</totfact>
</mgrwt>
</event>
<event>
 5    1  0.1256986E+001  0.9888096E+02  0.7546771E-02  0.1282667E+00
          3   -1    0    0  501    0  0.00000000000E+00  0.00000000000E+00  0.30967797466E+03  0.30967797466E+03  0.00000000000E+00 0. -1.
         -3   -1    0    0    0  501 -0.00000000000E+00 -0.00000000000E+00 -0.78932356100E+01  0.78932356100E+01  0.00000000000E+00 0.  1.
         23    2    1    2    0    0  0.00000000000E+00  0.00000000000E+00  0.30178473905E+03  0.31757121027E+03  0.98880963126E+02 0.  0.
        -13    1    3    3    0    0  0.40427046003E+02  0.18289462665E+02  0.22092631508E+03  0.22533816185E+03  0.00000000000E+00 0. -1.
         13    1    3    3    0    0 -0.40427046003E+02 -0.18289462665E+02  0.80858423968E+02  0.92233048413E+02  0.00000000000E+00 0.  1.
<mgrwt>
<rscale>  0 0.98880963E+02</rscale>
<asrwt>0</asrwt>
<pdfrwt beam="1">  1        3 0.47642756E-01 0.98880963E+02</pdfrwt>
<pdfrwt beam="2">  1       -3 0.12143442E-02 0.98880963E+02</pdfrwt>
<totfact> 0.18775089E+04</totfact>
</mgrwt>
</event>
<event>
 5    1  0.1256986E+001  0.9097507E+02  0.7546771E-02  0.1300507E+00
         -3   -1    0    0    0  501 -0.00000000000E+00  0.00000000000E+00  0.11697789065E+03  0.11697789065E+03  0.00000000000E+00 0.  1.
          3   -1    0    0  501    0  0.00000000000E+00 -0.00000000000E+00 -0.17688092207E+02  0.17688092207E+02  0.00000000000E+00 0. -1.
         23    2    1    2    0    0  0.00000000000E+00  0.00000000000E+00  0.99289798439E+02  0.13466598285E+03  0.90975067265E+02 0.  0.
        -11    1    3    3    0    0 -0.22614355202E+02  0.19992572182E+02 -0.72725166563E+00  0.30193391638E+02  0.00000000000E+00 0. -1.
         11    1    3    3    0    0  0.22614355202E+02 -0.19992572182E+02  0.10001705010E+03  0.10447259122E+03  0.00000000000E+00 0.  1.
<mgrwt>
<rscale>  0 0.90975067E+02</rscale>
<asrwt>0</asrwt>
<pdfrwt beam="2">  1        3 0.27212450E-02 0.90975067E+02</pdfrwt>
<pdfrwt beam="1">  1       -3 0.17996598E-01 0.90975067E+02</pdfrwt>
<totfact> 0.32467699E+04</totfact>
</mgrwt>
</event>
<event>
 5    1  0.1256986E+001  0.7591755E+02  0.7546771E-02  0.1341053E+00
         -2   -1    0    0    0  501 -0.00000000000E+00  0.00000000000E+00  0.25138710591E+03  0.25138710591E+03  0.00000000000E+00 0.  1.
          2   -1    0    0  501    0  0.00000000000E+00 -0.00000000000E+00 -0.57316725269E+01  0.57316725269E+01  0.00000000000E+00 0. -1.
         23    2    1    2    0    0  0.00000000000E+00  0.00000000000E+00  0.24565543338E+03  0.25711877844E+03  0.75917549185E+02 0.  0.
        -11    1    3    3    0    0 -0.54991351642E+01  0.35228960159E+02  0.78727723251E+02  0.86425543271E+02  0.00000000000E+00 0. -1.
         11    1    3    3    0    0  0.54991351642E+01 -0.35228960159E+02  0.16692771013E+03  0.17069323517E+03  0.00000000000E+00 0.  1.
<mgrwt>
<rscale>  0 0.75917549E+02</rscale>
<asrwt>0</asrwt>
<pdfrwt beam="2">  1        2 0.88179597E-03 0.75917549E+02</pdfrwt>
<pdfrwt beam="1">  1       -2 0.38674931E-01 0.75917549E+02</pdfrwt>
<totfact> 0.89458580E+04</totfact>
</mgrwt>
</event>
<event>
 5    1  0.1256986E+001  0.9005306E+02  0.7546771E-02  0.1302723E+00
         -2   -1    0    0    0  501 -0.00000000000E+00  0.00000000000E+00  0.22469242918E+02  0.22469242918E+02  0.00000000000E+00 0.  1.
          2   -1    0    0  501    0  0.00000000000E+00 -0.00000000000E+00 -0.90229490546E+02  0.90229490546E+02  0.00000000000E+00 0. -1.
         23    2    1    2    0    0  0.00000000000E+00  0.00000000000E+00 -0.67760247628E+02  0.11269873346E+03  0.90053058614E+02 0.  0.
        -11    1    3    3    0    0  0.93159420732E+01  0.11685724408E+02  0.19274897892E+02  0.24389846666E+02  0.00000000000E+00 0.  1.
         11    1    3    3    0    0 -0.93159420732E+01 -0.11685724408E+02 -0.87035145521E+02  0.88308886798E+02  0.00000000000E+00 0. -1.
<mgrwt>
<rscale>  0 0.90053059E+02</rscale>
<asrwt>0</asrwt>
<pdfrwt beam="2">  1        2 0.13881460E-01 0.90053059E+02</pdfrwt>
<pdfrwt beam="1">  1       -2 0.34568066E-02 0.90053059E+02</pdfrwt>
<totfact> 0.12308990E+05</totfact>
</mgrwt>
</event>
<event>
 5    1  0.1256986E+001  0.9108648E+02  0.7546771E-02  0.1300242E+00
         -2   -1    0    0    0  501 -0.00000000000E+00  0.00000000000E+00  0.30508111485E+02  0.30508111485E+02  0.00000000000E+00 0.  1.
          2   -1    0    0  501    0  0.00000000000E+00 -0.00000000000E+00 -0.67988038610E+02  0.67988038610E+02  0.00000000000E+00 0. -1.
         23    2    1    2    0    0  0.00000000000E+00  0.00000000000E+00 -0.37479927124E+02  0.98496150095E+02  0.91086478944E+02 0.  0.
        -13    1    3    3    0    0  0.41083875071E+02  0.10545011877E+02 -0.80443153709E+00  0.42423215065E+02  0.00000000000E+00 0.  1.
         13    1    3    3    0    0 -0.41083875071E+02 -0.10545011877E+02 -0.36675495587E+02  0.56072935030E+02  0.00000000000E+00 0. -1.
<mgrwt>
<rscale>  0 0.91086479E+02</rscale>
<asrwt>0</asrwt>
<pdfrwt beam="2">  1        2 0.10459698E-01 0.91086479E+02</pdfrwt>
<pdfrwt beam="1">  1       -2 0.46935557E-02 0.91086479E+02</pdfrwt>
<totfact> 0.11003785E+05</totfact>
</mgrwt>
</event>
<event>
 5    1  0.1256986E+001  0.9129744E+02  0.7546771E-02  0.1299740E+00
          3   -1    0    0  501    0  0.00000000000E+00  0.00000000000E+00  0.34843625189E+02  0.34843625189E+02  0.00000000000E+00 0. -1.
         -3   -1    0    0    0  501 -0.00000000000E+00 -0.00000000000E+00 -0.59804496105E+02  0.59804496105E+02  0.00000000000E+00 0.  1.
         23    2    1    2    0    0  0.00000000000E+00  0.00000000000E+00 -0.24960870916E+02  0.94648121294E+02  0.91297435821E+02 0.  0.
        -13    1    3    3    0    0 -0.27477922828E+02  0.35717244141E+02 -0.49297462556E+01  0.45332771481E+02  0.00000000000E+00 0. -1.
         13    1    3    3    0    0  0.27477922828E+02 -0.35717244141E+02 -0.20031124660E+02  0.49315349813E+02  0.00000000000E+00 0.  1.
<mgrwt>
<rscale>  0 0.91297436E+02</rscale>
<asrwt>0</asrwt>
<pdfrwt beam="1">  1        3 0.53605577E-02 0.91297436E+02</pdfrwt>
<pdfrwt beam="2">  1       -3 0.92006917E-02 0.91297436E+02</pdfrwt>
<totfact> 0.34947860E+04</totfact>
</mgrwt>
</event>
<event>
 5    1  0.1256986E+001  0.8155164E+02  0.7546771E-02  0.1324705E+00
         -1   -1    0    0    0  501 -0.00000000000E+00  0.00000000000E+00  0.88735359321E+02  0.88735359321E+02  0.00000000000E+00 0.  1.
          1   -1    0    0  501    0  0.00000000000E+00 -0.00000000000E+00 -0.18737371691E+02  0.18737371691E+02  0.00000000000E+00 0. -1.
         23    2    1    2    0    0  0.00000000000E+00  0.00000000000E+00  0.69997987631E+02  0.10747273101E+03  0.81551637867E+02 0.  0.
        -13    1    3    3    0    0  0.30968767654E+02  0.24244040521E+02  0.20815772293E+02  0.44498701632E+02  0.00000000000E+00 0. -1.
         13    1    3    3    0    0 -0.30968767654E+02 -0.24244040521E+02  0.49182215337E+02  0.62974029379E+02  0.00000000000E+00 0.  1.
<mgrwt>
<rscale>  0 0.81551638E+02</rscale>
<asrwt>0</asrwt>
<pdfrwt beam="2">  1        1 0.28826726E-02 0.81551638E+02</pdfrwt>
<pdfrwt beam="1">  1       -1 0.13651593E-01 0.81551638E+02</pdfrwt>
<totfact> 0.11065193E+05</totfact>
</mgrwt>
</event>
<event>
 5    1  0.1256986E+001  0.9467805E+02  0.7546771E-02  0.1291903E+00
         -2   -1    0    0    0  501 -0.00000000000E+00  0.00000000000E+00  0.18297034650E+02  0.18297034650E+02  0.00000000000E+00 0.  1.
          2   -1    0    0  501    0  0.00000000000E+00 -0.00000000000E+00 -0.12247795249E+03  0.12247795249E+03  0.00000000000E+00 0. -1.
         23    2    1    2    0    0  0.00000000000E+00  0.00000000000E+00 -0.10418091783E+03  0.14077498714E+03  0.94678051110E+02 0.  0.
        -11    1    3    3    0    0  0.22078447740E+02 -0.29050971365E+02 -0.72475861949E+01  0.37201401822E+02  0.00000000000E+00 0.  1.
         11    1    3    3    0    0 -0.22078447740E+02  0.29050971365E+02 -0.96933331640E+02  0.10357358531E+03  0.00000000000E+00 0. -1.
<mgrwt>
<rscale>  0 0.94678051E+02</rscale>
<asrwt>0</asrwt>
<pdfrwt beam="2">  1        2 0.18842762E-01 0.94678051E+02</pdfrwt>
<pdfrwt beam="1">  1       -2 0.28149284E-02 0.94678051E+02</pdfrwt>
<totfact> 0.11789097E+05</totfact>
</mgrwt>
</event>
<event>
 5    1  0.1256986E+001  0.9082649E+02  0.7546771E-02  0.1300862E+00
         -1   -1    0    0    0  501 -0.00000000000E+00  0.00000000000E+00  0.22401000304E+02  0.22401000304E+02  0.00000000000E+00 0.  1.
          1   -1    0    0  501    0  0.00000000000E+00 -0.00000000000E+00 -0.92065656801E+02  0.92065656801E+02  0.00000000000E+00 0. -1.
         23    2    1    2    0    0  0.00000000000E+00  0.00000000000E+00 -0.69664656498E+02  0.11446665711E+03  0.90826489660E+02 0.  0.
        -13    1    3    3    0    0 -0.32057557486E+02 -0.32094028912E+02 -0.32114938377E+02  0.55579519166E+02  0.00000000000E+00 0.  1.
         13    1    3    3    0    0  0.32057557486E+02  0.32094028912E+02 -0.37549718121E+02  0.58887137939E+02  0.00000000000E+00 0. -1.
<mgrwt>
<rscale>  0 0.90826490E+02</rscale>
<asrwt>0</asrwt>
<pdfrwt beam="2">  1        1 0.14163947E-01 0.90826490E+02</pdfrwt>
<pdfrwt beam="1">  1       -1 0.34463078E-02 0.90826490E+02</pdfrwt>
<totfact> 0.10412916E+05</totfact>
</mgrwt>
</event>
<event>
 5    1  0.1256986E+001  0.9103851E+02  0.7546771E-02  0.1300356E+00
         -1   -1    0    0    0  501 -0.00000000000E+00  0.00000000000E+00  0.28235115593E+02  0.28235115593E+02  0.00000000000E+00 0.  1.
          1   -1    0    0  501    0  0.00000000000E+00 -0.00000000000E+00 -0.73383880751E+02  0.73383880751E+02  0.00000000000E+00 0. -1.
         23    2    1    2    0    0  0.00000000000E+00  0.00000000000E+00 -0.45148765159E+02  0.10161899634E+03  0.91038505164E+02 0.  0.
        -13    1    3    3    0    0  0.19717195342E+02 -0.36147999049E+00  0.23219265864E+02  0.30463630237E+02  0.00000000000E+00 0.  1.
         13    1    3    3    0    0 -0.19717195342E+02  0.36147999049E+00 -0.68368031022E+02  0.71155366107E+02  0.00000000000E+00 0. -1.
<mgrwt>
<rscale>  0 0.91038505E+02</rscale>
<asrwt>0</asrwt>
<pdfrwt beam="2">  1        1 0.11289828E-01 0.91038505E+02</pdfrwt>
<pdfrwt beam="1">  1       -1 0.43438639E-02 0.91038505E+02</pdfrwt>
<totfact> 0.99808048E+04</totfact>
</mgrwt>
</event>
<event>
 5    1  0.1256986E+001  0.9298960E+02  0.7546771E-02  0.1295769E+00
         -1   -1    0    0    0  501 -0.00000000000E+00  0.00000000000E+00  0.30575250385E+03  0.30575250385E+03  0.00000000000E+00 0.  1.
          1   -1    0    0  501    0  0.00000000000E+00 -0.00000000000E+00 -0.70703145115E+01  0.70703145115E+01  0.00000000000E+00 0. -1.
         23    2    1    2    0    0  0.00000000000E+00  0.00000000000E+00  0.29868218934E+03  0.31282281837E+03  0.92989598664E+02 0.  0.
        -11    1    3    3    0    0 -0.27156795590E+02  0.36327414105E+02  0.18374573543E+03  0.18926084606E+03  0.00000000000E+00 0.  1.
         11    1    3    3    0    0  0.27156795590E+02 -0.36327414105E+02  0.11493645391E+03  0.12356197230E+03  0.00000000000E+00 0. -1.
<mgrwt>
<rscale>  0 0.92989599E+02</rscale>
<asrwt>0</asrwt>
<pdfrwt beam="2">  1        1 0.10877409E-02 0.92989599E+02</pdfrwt>
<pdfrwt beam="1">  1       -1 0.47038837E-01 0.92989599E+02</pdfrwt>
<totfact> 0.57109634E+04</totfact>
</mgrwt>
</event>
<event>
 5    1  0.1256986E+001  0.8721800E+02  0.7546771E-02  0.1309732E+00
         -2   -1    0    0    0  501 -0.00000000000E+00  0.00000000000E+00  0.15837537695E+02  0.15837537695E+02  0.00000000000E+00 0.  1.
          2   -1    0    0  501    0  0.00000000000E+00 -0.00000000000E+00 -0.12007832660E+03  0.12007832660E+03  0.00000000000E+00 0. -1.
         23    2    1    2    0    0  0.00000000000E+00  0.00000000000E+00 -0.10424078890E+03  0.13591586429E+03  0.87218003275E+02 0.  0.
        -13    1    3    3    0    0  0.42121502876E+02 -0.11163277864E+02 -0.54776562291E+02  0.69995082353E+02  0.00000000000E+00 0. -1.
         13    1    3    3    0    0 -0.42121502876E+02  0.11163277864E+02 -0.49464226612E+02  0.65920781940E+02  0.00000000000E+00 0.  1.
<mgrwt>
<rscale>  0 0.87218003E+02</rscale>
<asrwt>0</asrwt>
<pdfrwt beam="2">  1        2 0.18473588E-01 0.87218003E+02</pdfrwt>
<pdfrwt beam="1">  1       -2 0.24365443E-02 0.87218003E+02</pdfrwt>
<totfact> 0.14658350E+05</totfact>
</mgrwt>
</event>
<event>
 5    1  0.1256986E+001  0.7266428E+02  0.7546771E-02  0.1351260E+00
          1   -1    0    0  501    0  0.00000000000E+00  0.00000000000E+00  0.21072654737E+02  0.21072654737E+02  0.00000000000E+00 0. -1.
         -1   -1    0    0    0  501 -0.00000000000E+00 -0.00000000000E+00 -0.62641574643E+02  0.62641574643E+02  0.00000000000E+00 0.  1.
         23    2    1    2    0    0  0.00000000000E+00  0.00000000000E+00 -0.41568919906E+02  0.83714229380E+02  0.72664276632E+02 0.  0.
        -13    1    3    3    0    0 -0.20332666463E+01  0.29072570960E+02  0.42097392393E+01  0.29446060177E+02  0.00000000000E+00 0. -1.
         13    1    3    3    0    0  0.20332666463E+01 -0.29072570960E+02 -0.45778659145E+02  0.54268169203E+02  0.00000000000E+00 0.  1.
<mgrwt>
<rscale>  0 0.72664277E+02</rscale>
<asrwt>0</asrwt>
<pdfrwt beam="1">  1        1 0.32419469E-02 0.72664277E+02</pdfrwt>
<pdfrwt beam="2">  1       -1 0.96371653E-02 0.72664277E+02</pdfrwt>
<totfact> 0.15650877E+05</totfact>
</mgrwt>
</event>
<event>
 5    1  0.1256986E+001  0.9374050E+02  0.7546771E-02  0.1294038E+00
         -2   -1    0    0    0  501 -0.00000000000E+00  0.00000000000E+00  0.10245401527E+02  0.10245401527E+02  0.00000000000E+00 0.  1.
          2   -1    0    0  501    0  0.00000000000E+00 -0.00000000000E+00 -0.21442014393E+03  0.21442014393E+03  0.00000000000E+00 0. -1.
         23    2    1    2    0    0  0.00000000000E+00  0.00000000000E+00 -0.20417474240E+03  0.22466554546E+03  0.93740502881E+02 0.  0.
        -11    1    3    3    0    0  0.38587143203E+02 -0.48078644451E+01 -0.16480233631E+03  0.16932776864E+03  0.00000000000E+00 0. -1.
         11    1    3    3    0    0 -0.38587143203E+02  0.48078644451E+01 -0.39372406096E+02  0.55337776815E+02  0.00000000000E+00 0.  1.
<mgrwt>
<rscale>  0 0.93740503E+02</rscale>
<asrwt>0</asrwt>
<pdfrwt beam="2">  1        2 0.32987712E-01 0.93740503E+02</pdfrwt>
<pdfrwt beam="1">  1       -2 0.15762157E-02 0.93740503E+02</pdfrwt>
<totfact> 0.14722337E+05</totfact>
</mgrwt>
</event>
<event>
 5    1  0.1256986E+001  0.1106330E+03  0.7546771E-02  0.1259402E+00
          2   -1    0    0  501    0  0.00000000000E+00  0.00000000000E+00  0.16002073247E+03  0.16002073247E+03  0.00000000000E+00 0. -1.
         -2   -1    0    0    0  501 -0.00000000000E+00 -0.00000000000E+00 -0.19122003374E+02  0.19122003374E+02  0.00000000000E+00 0.  1.
         23    2    1    2    0    0  0.00000000000E+00  0.00000000000E+00  0.14089872909E+03  0.17914273584E+03  0.11063303279E+03 0.  0.
        -11    1    3    3    0    0  0.25511731749E+02  0.25471018348E+02  0.25122331401E+01  0.36137688746E+02  0.00000000000E+00 0.  1.
         11    1    3    3    0    0 -0.25511731749E+02 -0.25471018348E+02  0.13838649595E+03  0.14300504709E+03  0.00000000000E+00 0. -1.
<mgrwt>
<rscale>  0 0.11063303E+03</rscale>
<asrwt>0</asrwt>
<pdfrwt beam="1">  1        2 0.24618573E-01 0.11063303E+03</pdfrwt>
<pdfrwt beam="2">  1       -2 0.29418468E-02 0.11063303E+03</pdfrwt>
<totfact> 0.84069196E+04</totfact>
</mgrwt>
</event>
<event>
 5    1  0.1256986E+001  0.9124501E+02  0.7546771E-02  0.1299864E+00
          1   -1    0    0  501    0  0.00000000000E+00  0.00000000000E+00  0.86833466349E+02  0.86833466349E+02  0.00000000000E+00 0. -1.
         -1   -1    0    0    0  501 -0.00000000000E+00 -0.00000000000E+00 -0.23970172413E+02  0.23970172413E+02  0.00000000000E+00 0.  1.
         23    2    1    2    0    0  0.00000000000E+00  0.00000000000E+00  0.62863293937E+02  0.11080363876E+03  0.91245014320E+02 0.  0.
        -11    1    3    3    0    0  0.18193491823E+02  0.26657948340E+02  0.70588900833E+02  0.77617280777E+02  0.00000000000E+00 0. -1.
         11    1    3    3    0    0 -0.18193491823E+02 -0.26657948340E+02 -0.77256068959E+01  0.33186357985E+02  0.00000000000E+00 0.  1.
<mgrwt>
<rscale>  0 0.91245014E+02</rscale>
<asrwt>0</asrwt>
<pdfrwt beam="1">  1        1 0.13358995E-01 0.91245014E+02</pdfrwt>
<pdfrwt beam="2">  1       -1 0.36877189E-02 0.91245014E+02</pdfrwt>
<totfact> 0.10185937E+05</totfact>
</mgrwt>
</event>
<event>
 5    1  0.1256986E+001  0.9128759E+02  0.7546771E-02  0.1299763E+00
         -1   -1    0    0    0  501 -0.00000000000E+00  0.00000000000E+00  0.36012401746E+02  0.36012401746E+02  0.00000000000E+00 0.  1.
          1   -1    0    0  501    0  0.00000000000E+00 -0.00000000000E+00 -0.57851075078E+02  0.57851075078E+02  0.00000000000E+00 0. -1.
         23    2    1    2    0    0  0.00000000000E+00  0.00000000000E+00 -0.21838673332E+02  0.93863476823E+02  0.91287592960E+02 0.  0.
        -11    1    3    3    0    0 -0.21980575425E+02 -0.37091078372E+02  0.44854840972E+01  0.43347587688E+02  0.00000000000E+00 0.  1.
         11    1    3    3    0    0  0.21980575425E+02  0.37091078372E+02 -0.26324157429E+02  0.50515889135E+02  0.00000000000E+00 0. -1.
<mgrwt>
<rscale>  0 0.91287593E+02</rscale>
<asrwt>0</asrwt>
<pdfrwt beam="2">  1        1 0.89001653E-02 0.91287593E+02</pdfrwt>
<pdfrwt beam="1">  1       -1 0.55403695E-02 0.91287593E+02</pdfrwt>
<totfact> 0.95518629E+04</totfact>
</mgrwt>
</event>
<event>
 5    1  0.1256986E+001  0.8993528E+02  0.7546771E-02  0.1303008E+00
          2   -1    0    0  501    0  0.00000000000E+00  0.00000000000E+00  0.38740356162E+02  0.38740356162E+02  0.00000000000E+00 0.  1.
         -2   -1    0    0    0  501 -0.00000000000E+00 -0.00000000000E+00 -0.52195927307E+02  0.52195927307E+02  0.00000000000E+00 0. -1.
         23    2    1    2    0    0  0.00000000000E+00  0.00000000000E+00 -0.13455571145E+02  0.90936283469E+02  0.89935283712E+02 0.  0.
        -13    1    3    3    0    0 -0.23314995890E+01 -0.23214712625E+02 -0.45596899725E+02  0.51219488841E+02  0.00000000000E+00 0. -1.
         13    1    3    3    0    0  0.23314995890E+01  0.23214712625E+02  0.32141328581E+02  0.39716794628E+02  0.00000000000E+00 0.  1.
<mgrwt>
<rscale>  0 0.89935284E+02</rscale>
<asrwt>0</asrwt>
<pdfrwt beam="1">  1        2 0.59600548E-02 0.89935284E+02</pdfrwt>
<pdfrwt beam="2">  1       -2 0.80301427E-02 0.89935284E+02</pdfrwt>
<totfact> 0.98434723E+04</totfact>
</mgrwt>
</event>
<event>
 5    1  0.1256986E+001  0.8908532E+02  0.7546771E-02  0.1305082E+00
         -4   -1    0    0    0  501 -0.00000000000E+00  0.00000000000E+00  0.13921341690E+02  0.13921341690E+02  0.00000000000E+00 0.  1.
          4   -1    0    0  501    0  0.00000000000E+00 -0.00000000000E+00 -0.14251848555E+03  0.14251848555E+03  0.00000000000E+00 0. -1.
         23    2    1    2    0    0  0.00000000000E+00  0.00000000000E+00 -0.12859714386E+03  0.15643982724E+03  0.89085319429E+02 0.  0.
        -13    1    3    3    0    0  0.28610623144E+02 -0.33990067375E+02 -0.69894918726E+02  0.82820239679E+02  0.00000000000E+00 0. -1.
         13    1    3    3    0    0 -0.28610623144E+02  0.33990067375E+02 -0.58702225130E+02  0.73619587557E+02  0.00000000000E+00 0.  1.
<mgrwt>
<rscale>  0 0.89085319E+02</rscale>
<asrwt>0</asrwt>
<pdfrwt beam="2">  1        4 0.21925921E-01 0.89085319E+02</pdfrwt>
<pdfrwt beam="1">  1       -4 0.21417449E-02 0.89085319E+02</pdfrwt>
<totfact> 0.24852612E+04</totfact>
</mgrwt>
</event>
<event>
 5    1  0.1256986E+001  0.8613171E+02  0.7546771E-02  0.1312499E+00
         -2   -1    0    0    0  501 -0.00000000000E+00  0.00000000000E+00  0.20365198107E+02  0.20365198107E+02  0.00000000000E+00 0.  1.
          2   -1    0    0  501    0  0.00000000000E+00 -0.00000000000E+00 -0.91070459089E+02  0.91070459089E+02  0.00000000000E+00 0. -1.
         23    2    1    2    0    0  0.00000000000E+00  0.00000000000E+00 -0.70705260981E+02  0.11143565720E+03  0.86131711723E+02 0.  0.
        -11    1    3    3    0    0 -0.42910850807E+02  0.36365045394E+01 -0.35767163607E+02  0.55980847392E+02  0.00000000000E+00 0. -1.
         11    1    3    3    0    0  0.42910850807E+02 -0.36365045394E+01 -0.34938097374E+02  0.55454809804E+02  0.00000000000E+00 0.  1.
<mgrwt>
<rscale>  0 0.86131712E+02</rscale>
<asrwt>0</asrwt>
<pdfrwt beam="2">  1        2 0.14010840E-01 0.86131712E+02</pdfrwt>
<pdfrwt beam="1">  1       -2 0.31331074E-02 0.86131712E+02</pdfrwt>
<totfact> 0.13948381E+05</totfact>
</mgrwt>
</event>
<event>
 5    1  0.1256986E+001  0.9137498E+02  0.7546771E-02  0.1299556E+00
          1   -1    0    0  501    0  0.00000000000E+00  0.00000000000E+00  0.20932327861E+03  0.20932327861E+03  0.00000000000E+00 0. -1.
         -1   -1    0    0    0  501 -0.00000000000E+00 -0.00000000000E+00 -0.99718812546E+01  0.99718812546E+01  0.00000000000E+00 0.  1.
         23    2    1    2    0    0  0.00000000000E+00  0.00000000000E+00  0.19935139735E+03  0.21929515986E+03  0.91374982968E+02 0.  0.
        -13    1    3    3    0    0 -0.21411977374E+02  0.23133983678E+02  0.20306968120E+02  0.37497025617E+02  0.00000000000E+00 0.  1.
         13    1    3    3    0    0  0.21411977374E+02 -0.23133983678E+02  0.17904442923E+03  0.18179813424E+03  0.00000000000E+00 0. -1.
<mgrwt>
<rscale>  0 0.91374983E+02</rscale>
<asrwt>0</asrwt>
<pdfrwt beam="1">  1        1 0.32203578E-01 0.91374983E+02</pdfrwt>
<pdfrwt beam="2">  1       -1 0.15341357E-02 0.91374983E+02</pdfrwt>
<totfact> 0.11876555E+05</totfact>
</mgrwt>
</event>
<event>
 5    1  0.1256986E+001  0.9181643E+02  0.7546771E-02  0.1298512E+00
         -2   -1    0    0    0  501 -0.00000000000E+00  0.00000000000E+00  0.11135522265E+03  0.11135522265E+03  0.00000000000E+00 0.  1.
          2   -1    0    0  501    0  0.00000000000E+00 -0.00000000000E+00 -0.18926496036E+02  0.18926496036E+02  0.00000000000E+00 0. -1.
         23    2    1    2    0    0  0.00000000000E+00  0.00000000000E+00  0.92428726613E+02  0.13028171869E+03  0.91816429469E+02 0.  0.
        -13    1    3    3    0    0 -0.36102999917E+02  0.21325103809E+02  0.72736625304E+02  0.83957151667E+02  0.00000000000E+00 0.  1.
         13    1    3    3    0    0  0.36102999917E+02 -0.21325103809E+02  0.19692101309E+02  0.46324567018E+02  0.00000000000E+00 0. -1.
<mgrwt>
<rscale>  0 0.91816429E+02</rscale>
<asrwt>0</asrwt>
<pdfrwt beam="2">  1        2 0.29117687E-02 0.91816429E+02</pdfrwt>
<pdfrwt beam="1">  1       -2 0.17131572E-01 0.91816429E+02</pdfrwt>
<totfact> 0.75890034E+04</totfact>
</mgrwt>
</event>
<event>
 5    1  0.1256986E+001  0.8953243E+02  0.7546771E-02  0.1303988E+00
          2   -1    0    0  501    0  0.00000000000E+00  0.00000000000E+00  0.26232888271E+03  0.26232888271E+03  0.00000000000E+00 0.  1.
         -2   -1    0    0    0  501 -0.00000000000E+00 -0.00000000000E+00 -0.76393185832E+01  0.76393185832E+01  0.00000000000E+00 0. -1.
         23    2    1    2    0    0  0.00000000000E+00  0.00000000000E+00  0.25468956412E+03  0.26996820129E+03  0.89532427837E+02 0.  0.
        -11    1    3    3    0    0 -0.25969885724E+02  0.35679617134E+02  0.15001861791E+03  0.15637472866E+03  0.00000000000E+00 0.  1.
         11    1    3    3    0    0  0.25969885724E+02 -0.35679617134E+02  0.10467094622E+03  0.11359347263E+03  0.00000000000E+00 0. -1.
<mgrwt>
<rscale>  0 0.89532428E+02</rscale>
<asrwt>0</asrwt>
<pdfrwt beam="1">  1        2 0.40358283E-01 0.89532428E+02</pdfrwt>
<pdfrwt beam="2">  1       -2 0.11752800E-02 0.89532428E+02</pdfrwt>
<totfact> 0.17940177E+05</totfact>
</mgrwt>
</event>
<event>
 5    1  0.1256986E+001  0.9695957E+02  0.7546771E-02  0.1286823E+00
          1   -1    0    0  501    0  0.00000000000E+00  0.00000000000E+00  0.17901117684E+02  0.17901117684E+02  0.00000000000E+00 0. -1.
         -1   -1    0    0    0  501 -0.00000000000E+00 -0.00000000000E+00 -0.13129288118E+03  0.13129288118E+03  0.00000000000E+00 0.  1.
         23    2    1    2    0    0  0.00000000000E+00  0.00000000000E+00 -0.11339176350E+03  0.14919399887E+03  0.96959565121E+02 0.  0.
        -13    1    3    3    0    0 -0.27516856374E+02 -0.39902914279E+02 -0.55261179968E+02  0.73506584495E+02  0.00000000000E+00 0.  1.
         13    1    3    3    0    0  0.27516856374E+02  0.39902914279E+02 -0.58130583532E+02  0.75687414373E+02  0.00000000000E+00 0. -1.
<mgrwt>
<rscale>  0 0.96959565E+02</rscale>
<asrwt>0</asrwt>
<pdfrwt beam="1">  1        1 0.27540182E-02 0.96959565E+02</pdfrwt>
<pdfrwt beam="2">  1       -1 0.20198904E-01 0.96959565E+02</pdfrwt>
<totfact> 0.65694924E+04</totfact>
</mgrwt>
</event>
<event>
 5    1  0.1256986E+001  0.8955953E+02  0.7546771E-02  0.1303922E+00
          1   -1    0    0  501    0  0.00000000000E+00  0.00000000000E+00  0.26195943020E+02  0.26195943020E+02  0.00000000000E+00 0. -1.
         -1   -1    0    0    0  501 -0.00000000000E+00 -0.00000000000E+00 -0.76547243834E+02  0.76547243834E+02  0.00000000000E+00 0.  1.
         23    2    1    2    0    0  0.00000000000E+00  0.00000000000E+00 -0.50351300814E+02  0.10274318685E+03  0.89559527418E+02 0.  0.
        -11    1    3    3    0    0  0.41156848621E+02  0.56929842779E+01 -0.60159102450E+01  0.41981989406E+02  0.00000000000E+00 0.  1.
         11    1    3    3    0    0 -0.41156848621E+02 -0.56929842779E+01 -0.44335390569E+02  0.60761197448E+02  0.00000000000E+00 0. -1.
<mgrwt>
<rscale>  0 0.89559527E+02</rscale>
<asrwt>0</asrwt>
<pdfrwt beam="1">  1        1 0.40301451E-02 0.89559527E+02</pdfrwt>
<pdfrwt beam="2">  1       -1 0.11776499E-01 0.89559527E+02</pdfrwt>
<totfact> 0.89267644E+04</totfact>
</mgrwt>
</event>
<event>
 5    1  0.1256986E+001  0.8936227E+02  0.7546771E-02  0.1304403E+00
         -1   -1    0    0    0  501 -0.00000000000E+00  0.00000000000E+00  0.17975679855E+02  0.17975679855E+02  0.00000000000E+00 0.  1.
          1   -1    0    0  501    0  0.00000000000E+00 -0.00000000000E+00 -0.11106137339E+03  0.11106137339E+03  0.00000000000E+00 0. -1.
         23    2    1    2    0    0  0.00000000000E+00  0.00000000000E+00 -0.93085693539E+02  0.12903705325E+03  0.89362267034E+02 0.  0.
        -13    1    3    3    0    0  0.38713433772E+02 -0.10608477460E+02 -0.18205045038E+02  0.44075995885E+02  0.00000000000E+00 0.  1.
         13    1    3    3    0    0 -0.38713433772E+02  0.10608477460E+02 -0.74880648501E+02  0.84961057363E+02  0.00000000000E+00 0. -1.
<mgrwt>
<rscale>  0 0.89362267E+02</rscale>
<asrwt>0</asrwt>
<pdfrwt beam="2">  1        1 0.17086365E-01 0.89362267E+02</pdfrwt>
<pdfrwt beam="1">  1       -1 0.27654892E-02 0.89362267E+02</pdfrwt>
<totfact> 0.11227047E+05</totfact>
</mgrwt>
</event>
<event>
 5    1  0.1256986E+001  0.9058927E+02  0.7546771E-02  0.1301431E+00
         -1   -1    0    0    0  501 -0.00000000000E+00  0.00000000000E+00  0.72991780081E+02  0.72991780081E+02  0.00000000000E+00 0.  1.
          1   -1    0    0  501    0  0.00000000000E+00 -0.00000000000E+00 -0.28107325737E+02  0.28107325737E+02  0.00000000000E+00 0. -1.
         23    2    1    2    0    0  0.00000000000E+00  0.00000000000E+00  0.44884454343E+02  0.10109910582E+03  0.90589265123E+02 0.  0.
        -13    1    3    3    0    0 -0.58228048550E+01  0.44888161248E+02  0.24293490275E+02  0.51371448747E+02  0.00000000000E+00 0. -1.
         13    1    3    3    0    0  0.58228048550E+01 -0.44888161248E+02  0.20590964068E+02  0.49727657072E+02  0.00000000000E+00 0.  1.
<mgrwt>
<rscale>  0 0.90589265E+02</rscale>
<asrwt>0</asrwt>
<pdfrwt beam="2">  1        1 0.43242040E-02 0.90589265E+02</pdfrwt>
<pdfrwt beam="1">  1       -1 0.11229505E-01 0.90589265E+02</pdfrwt>
<totfact> 0.87381252E+04</totfact>
</mgrwt>
</event>
<event>
 5    1  0.1256986E+001  0.9394700E+02  0.7546771E-02  0.1293565E+00
         -2   -1    0    0    0  501 -0.00000000000E+00  0.00000000000E+00  0.72543107843E+02  0.72543107843E+02  0.00000000000E+00 0.  1.
          2   -1    0    0  501    0  0.00000000000E+00 -0.00000000000E+00 -0.30416531338E+02  0.30416531338E+02  0.00000000000E+00 0. -1.
         23    2    1    2    0    0  0.00000000000E+00  0.00000000000E+00  0.42126576506E+02  0.10295963918E+03  0.93947000230E+02 0.  0.
        -13    1    3    3    0    0 -0.25291221547E+02  0.34281013121E+02  0.42752689124E+02  0.60354172807E+02  0.00000000000E+00 0.  1.
         13    1    3    3    0    0  0.25291221547E+02 -0.34281013121E+02 -0.62611261844E+00  0.42605466374E+02  0.00000000000E+00 0. -1.
<mgrwt>
<rscale>  0 0.93947000E+02</rscale>
<asrwt>0</asrwt>
<pdfrwt beam="2">  1        2 0.46794664E-02 0.93947000E+02</pdfrwt>
<pdfrwt beam="1">  1       -2 0.11160478E-01 0.93947000E+02</pdfrwt>
<totfact> 0.81220996E+04</totfact>
</mgrwt>
</event>
<event>
 5    1  0.1256986E+001  0.8423060E+02  0.7546771E-02  0.1317457E+00
          2   -1    0    0  501    0  0.00000000000E+00  0.00000000000E+00  0.56828521676E+02  0.56828521676E+02  0.00000000000E+00 0. -1.
         -2   -1    0    0    0  501 -0.00000000000E+00 -0.00000000000E+00 -0.31211416050E+02  0.31211416050E+02  0.00000000000E+00 0.  1.
         23    2    1    2    0    0  0.00000000000E+00  0.00000000000E+00  0.25617105627E+02  0.88039937726E+02  0.84230603311E+02 0.  0.
        -13    1    3    3    0    0 -0.33431825006E+02  0.23528969374E+02  0.22316544408E+01  0.40942393733E+02  0.00000000000E+00 0.  1.
         13    1    3    3    0    0  0.33431825006E+02 -0.23528969374E+02  0.23385451186E+02  0.47097543993E+02  0.00000000000E+00 0. -1.
<mgrwt>
<rscale>  0 0.84230603E+02</rscale>
<asrwt>0</asrwt>
<pdfrwt beam="1">  1        2 0.87428495E-02 0.84230603E+02</pdfrwt>
<pdfrwt beam="2">  1       -2 0.48017563E-02 0.84230603E+02</pdfrwt>
<totfact> 0.13058688E+05</totfact>
</mgrwt>
</event>
<event>
 5    1  0.1256986E+001  0.9262346E+02  0.7546771E-02  0.1296620E+00
          1   -1    0    0  501    0  0.00000000000E+00  0.00000000000E+00  0.12840785030E+02  0.12840785030E+02  0.00000000000E+00 0. -1.
         -1   -1    0    0    0  501 -0.00000000000E+00 -0.00000000000E+00 -0.16702844266E+03  0.16702844266E+03  0.00000000000E+00 0.  1.
         23    2    1    2    0    0  0.00000000000E+00  0.00000000000E+00 -0.15418765762E+03  0.17986922769E+03  0.92623459795E+02 0.  0.
        -11    1    3    3    0    0  0.24083333714E+02 -0.18148556398E+02 -0.88380321896E+01  0.31424319803E+02  0.00000000000E+00 0. -1.
         11    1    3    3    0    0 -0.24083333714E+02  0.18148556398E+02 -0.14534962544E+03  0.14844490788E+03  0.00000000000E+00 0.  1.
<mgrwt>
<rscale>  0 0.92623460E+02</rscale>
<asrwt>0</asrwt>
<pdfrwt beam="1">  1        1 0.19755054E-02 0.92623460E+02</pdfrwt>
<pdfrwt beam="2">  1       -1 0.25696683E-01 0.92623460E+02</pdfrwt>
<totfact> 0.69937754E+04</totfact>
</mgrwt>
</event>
<event>
 5    1  0.1256986E+001  0.9084999E+02  0.7546771E-02  0.1300806E+00
         -2   -1    0    0    0  501 -0.00000000000E+00  0.00000000000E+00  0.25486463248E+02  0.25486463248E+02  0.00000000000E+00 0.  1.
          2   -1    0    0  501    0  0.00000000000E+00 -0.00000000000E+00 -0.80961808095E+02  0.80961808095E+02  0.00000000000E+00 0. -1.
         23    2    1    2    0    0  0.00000000000E+00  0.00000000000E+00 -0.55475344847E+02  0.10644827134E+03  0.90849989467E+02 0.  0.
        -11    1    3    3    0    0  0.25543299911E+02 -0.90565772646E+01 -0.70451430998E+02  0.75484342030E+02  0.00000000000E+00 0. -1.
         11    1    3    3    0    0 -0.25543299911E+02  0.90565772646E+01  0.14976086151E+02  0.30963929313E+02  0.00000000000E+00 0.  1.
<mgrwt>
<rscale>  0 0.90849989E+02</rscale>
<asrwt>0</asrwt>
<pdfrwt beam="2">  1        2 0.12455663E-01 0.90849989E+02</pdfrwt>
<pdfrwt beam="1">  1       -2 0.39209944E-02 0.90849989E+02</pdfrwt>
<totfact> 0.11640458E+05</totfact>
</mgrwt>
</event>
<event>
 5    1  0.1256986E+001  0.9323512E+02  0.7546771E-02  0.1295201E+00
          2   -1    0    0  501    0  0.00000000000E+00  0.00000000000E+00  0.10360571241E+03  0.10360571241E+03  0.00000000000E+00 0. -1.
         -2   -1    0    0    0  501 -0.00000000000E+00 -0.00000000000E+00 -0.20975647429E+02  0.20975647429E+02  0.00000000000E+00 0.  1.
         23    2    1    2    0    0  0.00000000000E+00  0.00000000000E+00  0.82630064979E+02  0.12458135984E+03  0.93235119888E+02 0.  0.
        -13    1    3    3    0    0 -0.32080351658E+02 -0.28415283765E+02  0.65830671683E+02  0.78550968474E+02  0.00000000000E+00 0. -1.
         13    1    3    3    0    0  0.32080351658E+02  0.28415283765E+02  0.16799393296E+02  0.46030391364E+02  0.00000000000E+00 0.  1.
<mgrwt>
<rscale>  0 0.93235120E+02</rscale>
<asrwt>0</asrwt>
<pdfrwt beam="1">  1        2 0.15939340E-01 0.93235120E+02</pdfrwt>
<pdfrwt beam="2">  1       -2 0.32270227E-02 0.93235120E+02</pdfrwt>
<totfact> 0.11661325E+05</totfact>
</mgrwt>
</event>
<event>
 5    1  0.1256986E+001  0.9250160E+02  0.7546771E-02  0.1296904E+00
          2   -1    0    0  501    0  0.00000000000E+00  0.00000000000E+00  0.31857093685E+03  0.31857093685E+03  0.00000000000E+00 0. -1.
         -2   -1    0    0    0  501 -0.00000000000E+00 -0.00000000000E+00 -0.67147891481E+01  0.67147891481E+01  0.00000000000E+00 0.  1.
         23    2    1    2    0    0  0.00000000000E+00  0.00000000000E+00  0.31185614770E+03  0.32528572600E+03  0.92501603654E+02 0.  0.
        -11    1    3    3    0    0  0.26858614270E+02  0.32630607753E+02  0.89858730796E+02  0.99301224681E+02  0.00000000000E+00 0. -1.
         11    1    3    3    0    0 -0.26858614270E+02 -0.32630607753E+02  0.22199741691E+03  0.22598450132E+03  0.00000000000E+00 0.  1.
<mgrwt>
<rscale>  0 0.92501604E+02</rscale>
<asrwt>0</asrwt>
<pdfrwt beam="1">  1        2 0.49010902E-01 0.92501604E+02</pdfrwt>
<pdfrwt beam="2">  1       -2 0.10330447E-02 0.92501604E+02</pdfrwt>
<totfact> 0.17677651E+05</totfact>
</mgrwt>
</event>
<event>
 5    1  0.1256986E+001  0.9134770E+02  0.7546771E-02  0.1299620E+00
          1   -1    0    0  501    0  0.00000000000E+00  0.00000000000E+00  0.12107765266E+03  0.12107765266E+03  0.00000000000E+00 0. -1.
         -1   -1    0    0    0  501 -0.00000000000E+00 -0.00000000000E+00 -0.17229444757E+02  0.17229444757E+02  0.00000000000E+00 0.  1.
         23    2    1    2    0    0  0.00000000000E+00  0.00000000000E+00  0.10384820790E+03  0.13830709741E+03  0.91347703370E+02 0.  0.
        -11    1    3    3    0    0  0.42084620390E+02 -0.17492074661E+02  0.47378661314E+02  0.65740592462E+02  0.00000000000E+00 0. -1.
         11    1    3    3    0    0 -0.42084620390E+02  0.17492074661E+02  0.56469546586E+02  0.72566504952E+02  0.00000000000E+00 0.  1.
<mgrwt>
<rscale>  0 0.91347703E+02</rscale>
<asrwt>0</asrwt>
<pdfrwt beam="1">  1        1 0.18627331E-01 0.91347703E+02</pdfrwt>
<pdfrwt beam="2">  1       -1 0.26506839E-02 0.91347703E+02</pdfrwt>
<totfact> 0.10735946E+05</totfact>
</mgrwt>
</event>
<event>
 5    1  0.1256986E+001  0.9370635E+02  0.7546771E-02  0.1294117E+00
          1   -1    0    0  501    0  0.00000000000E+00  0.00000000000E+00  0.12302107313E+02  0.12302107313E+02  0.00000000000E+00 0. -1.
         -1   -1    0    0    0  501 -0.00000000000E+00 -0.00000000000E+00 -0.17844261185E+03  0.17844261185E+03  0.00000000000E+00 0.  1.
         23    2    1    2    0    0  0.00000000000E+00  0.00000000000E+00 -0.16614050453E+03  0.19074471916E+03  0.93706353257E+02 0.  0.
        -13    1    3    3    0    0  0.32938324464E+02 -0.82724142450E+01 -0.14877351548E+03  0.15260054051E+03  0.00000000000E+00 0.  1.
         13    1    3    3    0    0 -0.32938324464E+02  0.82724142450E+01 -0.17366989052E+02  0.38144178647E+02  0.00000000000E+00 0. -1.
<mgrwt>
<rscale>  0 0.93706353E+02</rscale>
<asrwt>0</asrwt>
<pdfrwt beam="1">  1        1 0.18926318E-02 0.93706353E+02</pdfrwt>
<pdfrwt beam="2">  1       -1 0.27452711E-01 0.93706353E+02</pdfrwt>
<totfact> 0.66703679E+04</totfact>
</mgrwt>
</event>
<event>
 5    1  0.1256986E+001  0.9481651E+02  0.7546771E-02  0.1291590E+00
          1   -1    0    0  501    0  0.00000000000E+00  0.00000000000E+00  0.28447909361E+02  0.28447909361E+02  0.00000000000E+00 0. -1.
         -1   -1    0    0    0  501 -0.00000000000E+00 -0.00000000000E+00 -0.79005551593E+02  0.79005551593E+02  0.00000000000E+00 0.  1.
         23    2    1    2    0    0  0.00000000000E+00  0.00000000000E+00 -0.50557642232E+02  0.10745346095E+03  0.94816512713E+02 0.  0.
        -13    1    3    3    0    0  0.93890122862E+01  0.25302715642E+02  0.18892302375E+02  0.32943892599E+02  0.00000000000E+00 0. -1.
         13    1    3    3    0    0 -0.93890122862E+01 -0.25302715642E+02 -0.69449944607E+02  0.74509568355E+02  0.00000000000E+00 0.  1.
<mgrwt>
<rscale>  0 0.94816513E+02</rscale>
<asrwt>0</asrwt>
<pdfrwt beam="1">  1        1 0.43766015E-02 0.94816513E+02</pdfrwt>
<pdfrwt beam="2">  1       -1 0.12154700E-01 0.94816513E+02</pdfrwt>
<totfact> 0.76734265E+04</totfact>
</mgrwt>
</event>
<event>
 5    1  0.1256986E+001  0.9275357E+02  0.7546771E-02  0.1296317E+00
         -1   -1    0    0    0  501 -0.00000000000E+00  0.00000000000E+00  0.19648703584E+03  0.19648703584E+03  0.00000000000E+00 0. -1.
          1   -1    0    0  501    0  0.00000000000E+00 -0.00000000000E+00 -0.10946299929E+02  0.10946299929E+02  0.00000000000E+00 0.  1.
         23    2    1    2    0    0  0.00000000000E+00  0.00000000000E+00  0.18554073591E+03  0.20743333577E+03  0.92753566540E+02 0.  0.
        -13    1    3    3    0    0  0.18937156600E+02 -0.41720349158E+02  0.76705258311E+02  0.89347076541E+02  0.00000000000E+00 0.  1.
         13    1    3    3    0    0 -0.18937156600E+02  0.41720349158E+02  0.10883547760E+03  0.11808625923E+03  0.00000000000E+00 0. -1.
<mgrwt>
<rscale>  0 0.92753567E+02</rscale>
<asrwt>0</asrwt>
<pdfrwt beam="2">  1        1 0.16840463E-02 0.92753567E+02</pdfrwt>
<pdfrwt beam="1">  1       -1 0.30228772E-01 0.92753567E+02</pdfrwt>
<totfact> 0.66723537E+04</totfact>
</mgrwt>
</event>
<event>
 5    1  0.1256986E+001  0.9105978E+02  0.7546771E-02  0.1300305E+00
         -2   -1    0    0    0  501 -0.00000000000E+00  0.00000000000E+00  0.94690456361E+01  0.94690456361E+01  0.00000000000E+00 0.  1.
          2   -1    0    0  501    0  0.00000000000E+00 -0.00000000000E+00 -0.21892079347E+03  0.21892079347E+03  0.00000000000E+00 0. -1.
         23    2    1    2    0    0  0.00000000000E+00  0.00000000000E+00 -0.20945174784E+03  0.22838983911E+03  0.91059782211E+02 0.  0.
        -11    1    3    3    0    0 -0.37775076839E+02 -0.24474567577E+02 -0.87529149189E+02  0.98424147678E+02  0.00000000000E+00 0.  1.
         11    1    3    3    0    0  0.37775076839E+02  0.24474567577E+02 -0.12192259865E+03  0.12996569143E+03  0.00000000000E+00 0. -1.
<mgrwt>
<rscale>  0 0.91059782E+02</rscale>
<asrwt>0</asrwt>
<pdfrwt beam="2">  1        2 0.33680118E-01 0.91059782E+02</pdfrwt>
<pdfrwt beam="1">  1       -2 0.14567764E-02 0.91059782E+02</pdfrwt>
<totfact> 0.16040523E+05</totfact>
</mgrwt>
</event>
<event>
 5    1  0.1256986E+001  0.9206141E+02  0.7546771E-02  0.1297935E+00
         -3   -1    0    0    0  501 -0.00000000000E+00  0.00000000000E+00  0.11752082967E+03  0.11752082967E+03  0.00000000000E+00 0.  1.
          3   -1    0    0  501    0  0.00000000000E+00 -0.00000000000E+00 -0.18029362575E+02  0.18029362575E+02  0.00000000000E+00 0. -1.
         23    2    1    2    0    0  0.00000000000E+00  0.00000000000E+00  0.99491467097E+02  0.13555019225E+03  0.92061406644E+02 0.  0.
        -11    1    3    3    0    0 -0.26231250676E+02  0.36203870371E+02  0.65876753860E+02  0.79614982516E+02  0.00000000000E+00 0.  1.
         11    1    3    3    0    0  0.26231250676E+02 -0.36203870371E+02  0.33614713237E+02  0.55935209732E+02  0.00000000000E+00 0. -1.
<mgrwt>
<rscale>  0 0.92061407E+02</rscale>
<asrwt>0</asrwt>
<pdfrwt beam="2">  1        3 0.27737482E-02 0.92061407E+02</pdfrwt>
<pdfrwt beam="1">  1       -3 0.18080127E-01 0.92061407E+02</pdfrwt>
<totfact> 0.31381834E+04</totfact>
</mgrwt>
</event>
<event>
 5    1  0.1256986E+001  0.9650583E+02  0.7546771E-02  0.1287820E+00
          2   -1    0    0  501    0  0.00000000000E+00  0.00000000000E+00  0.10359331879E+03  0.10359331879E+03  0.00000000000E+00 0. -1.
         -2   -1    0    0    0  501 -0.00000000000E+00 -0.00000000000E+00 -0.22475812580E+02  0.22475812580E+02  0.00000000000E+00 0.  1.
         23    2    1    2    0    0  0.00000000000E+00  0.00000000000E+00  0.81117506212E+02  0.12606913137E+03  0.96505834388E+02 0.  0.
        -11    1    3    3    0    0  0.41719602422E+02  0.22903995826E+02  0.50946042766E+02  0.69718129096E+02  0.00000000000E+00 0.  1.
         11    1    3    3    0    0 -0.41719602422E+02 -0.22903995826E+02  0.30171463445E+02  0.56351002276E+02  0.00000000000E+00 0. -1.
<mgrwt>
<rscale>  0 0.96505834E+02</rscale>
<asrwt>0</asrwt>
<pdfrwt beam="1">  1        2 0.15937433E-01 0.96505834E+02</pdfrwt>
<pdfrwt beam="2">  1       -2 0.34578174E-02 0.96505834E+02</pdfrwt>
<totfact> 0.10599769E+05</totfact>
</mgrwt>
</event>
<event>
 5    1  0.1256986E+001  0.9146785E+02  0.7546771E-02  0.1299336E+00
         -2   -1    0    0    0  501 -0.00000000000E+00  0.00000000000E+00  0.82576428287E+02  0.82576428287E+02  0.00000000000E+00 0.  1.
          2   -1    0    0  501    0  0.00000000000E+00 -0.00000000000E+00 -0.25329162045E+02  0.25329162045E+02  0.00000000000E+00 0. -1.
         23    2    1    2    0    0  0.00000000000E+00  0.00000000000E+00  0.57247266242E+02  0.10790559033E+03  0.91467846442E+02 0.  0.
        -11    1    3    3    0    0  0.12237548213E+02  0.38378094929E+02  0.30765377930E+01  0.40399267833E+02  0.00000000000E+00 0. -1.
         11    1    3    3    0    0 -0.12237548213E+02 -0.38378094929E+02  0.54170728449E+02  0.67506322499E+02  0.00000000000E+00 0.  1.
<mgrwt>
<rscale>  0 0.91467846E+02</rscale>
<asrwt>0</asrwt>
<pdfrwt beam="2">  1        2 0.38967942E-02 0.91467846E+02</pdfrwt>
<pdfrwt beam="1">  1       -2 0.12704066E-01 0.91467846E+02</pdfrwt>
<totfact> 0.83674178E+04</totfact>
</mgrwt>
</event>
<event>
 5    1  0.1256986E+001  0.8224557E+02  0.7546771E-02  0.1322797E+00
         -3   -1    0    0    0  501 -0.00000000000E+00  0.00000000000E+00  0.12913094634E+02  0.12913094634E+02  0.00000000000E+00 0.  1.
          3   -1    0    0  501    0  0.00000000000E+00 -0.00000000000E+00 -0.13095881739E+03  0.13095881739E+03  0.00000000000E+00 0. -1.
         23    2    1    2    0    0  0.00000000000E+00  0.00000000000E+00 -0.11804572276E+03  0.14387191202E+03  0.82245573792E+02 0.  0.
        -11    1    3    3    0    0  0.57064892772E+01 -0.39862215322E+02 -0.44437107068E+02  0.59968464336E+02  0.00000000000E+00 0.  1.
         11    1    3    3    0    0 -0.57064892772E+01  0.39862215322E+02 -0.73608615689E+02  0.83903447688E+02  0.00000000000E+00 0. -1.
<mgrwt>
<rscale>  0 0.82245574E+02</rscale>
<asrwt>0</asrwt>
<pdfrwt beam="2">  1        3 0.20147509E-01 0.82245574E+02</pdfrwt>
<pdfrwt beam="1">  1       -3 0.19866301E-02 0.82245574E+02</pdfrwt>
<totfact> 0.41811616E+04</totfact>
</mgrwt>
</event>
<event>
 5    1  0.1256986E+001  0.9423826E+02  0.7546771E-02  0.1292901E+00
          1   -1    0    0  501    0  0.00000000000E+00  0.00000000000E+00  0.53254381827E+01  0.53254381827E+01  0.00000000000E+00 0. -1.
         -1   -1    0    0    0  501 -0.00000000000E+00 -0.00000000000E+00 -0.41690697464E+03  0.41690697464E+03  0.00000000000E+00 0.  1.
         23    2    1    2    0    0  0.00000000000E+00  0.00000000000E+00 -0.41158153646E+03  0.42223241282E+03  0.94238258077E+02 0.  0.
        -13    1    3    3    0    0 -0.39949234949E+02  0.20424681609E+02 -0.27026970382E+03  0.27396865111E+03  0.00000000000E+00 0.  1.
         13    1    3    3    0    0  0.39949234949E+02 -0.20424681609E+02 -0.14131183264E+03  0.14826376171E+03  0.00000000000E+00 0. -1.
<mgrwt>
<rscale>  0 0.94238258E+02</rscale>
<asrwt>0</asrwt>
<pdfrwt beam="1">  1        1 0.81929797E-03 0.94238258E+02</pdfrwt>
<pdfrwt beam="2">  1       -1 0.64139551E-01 0.94238258E+02</pdfrwt>
<totfact> 0.47834780E+04</totfact>
</mgrwt>
</event>
<event>
 5    1  0.1256986E+001  0.9073672E+02  0.7546771E-02  0.1301077E+00
          1   -1    0    0  501    0  0.00000000000E+00  0.00000000000E+00  0.23027181660E+02  0.23027181660E+02  0.00000000000E+00 0. -1.
         -1   -1    0    0    0  501 -0.00000000000E+00 -0.00000000000E+00 -0.89385154269E+02  0.89385154269E+02  0.00000000000E+00 0.  1.
         23    2    1    2    0    0  0.00000000000E+00  0.00000000000E+00 -0.66357972609E+02  0.11241233593E+03  0.90736722115E+02 0.  0.
        -11    1    3    3    0    0 -0.28784812874E+02  0.17963364120E+02 -0.70490612151E+02  0.78231542897E+02  0.00000000000E+00 0.  1.
         11    1    3    3    0    0  0.28784812874E+02 -0.17963364120E+02  0.41326395419E+01  0.34180793032E+02  0.00000000000E+00 0. -1.
<mgrwt>
<rscale>  0 0.90736722E+02</rscale>
<asrwt>0</asrwt>
<pdfrwt beam="1">  1        1 0.35426433E-02 0.90736722E+02</pdfrwt>
<pdfrwt beam="2">  1       -1 0.13751562E-01 0.90736722E+02</pdfrwt>
<totfact> 0.84080656E+04</totfact>
</mgrwt>
</event>
<event>
 5    1  0.1256986E+001  0.9136086E+02  0.7546771E-02  0.1299589E+00
          1   -1    0    0  501    0  0.00000000000E+00  0.00000000000E+00  0.99916764657E+01  0.99916764657E+01  0.00000000000E+00 0. -1.
         -1   -1    0    0    0  501 -0.00000000000E+00 -0.00000000000E+00 -0.20884401606E+03  0.20884401606E+03  0.00000000000E+00 0.  1.
         23    2    1    2    0    0  0.00000000000E+00  0.00000000000E+00 -0.19885233960E+03  0.21883569253E+03  0.91360863400E+02 0.  0.
        -13    1    3    3    0    0  0.18534011486E+02 -0.30615043623E+02 -0.16742502512E+03  0.17120727063E+03  0.00000000000E+00 0.  1.
         13    1    3    3    0    0 -0.18534011486E+02  0.30615043623E+02 -0.31427314473E+02  0.47628421901E+02  0.00000000000E+00 0. -1.
<mgrwt>
<rscale>  0 0.91360863E+02</rscale>
<asrwt>0</asrwt>
<pdfrwt beam="1">  1        1 0.15371812E-02 0.91360863E+02</pdfrwt>
<pdfrwt beam="2">  1       -1 0.32129844E-01 0.91360863E+02</pdfrwt>
<totfact> 0.68197257E+04</totfact>
</mgrwt>
</event>
<event>
 5    1  0.1256986E+001  0.9180623E+02  0.7546771E-02  0.1298536E+00
         -1   -1    0    0    0  501 -0.00000000000E+00  0.00000000000E+00  0.67994146668E+02  0.67994146668E+02  0.00000000000E+00 0.  1.
          1   -1    0    0  501    0  0.00000000000E+00 -0.00000000000E+00 -0.30989370158E+02  0.30989370158E+02  0.00000000000E+00 0. -1.
         23    2    1    2    0    0  0.00000000000E+00  0.00000000000E+00  0.37004776510E+02  0.98983516826E+02  0.91806225926E+02 0.  0.
        -13    1    3    3    0    0  0.31062389076E+02 -0.22680200718E+02 -0.85130837239E+01  0.39392081872E+02  0.00000000000E+00 0. -1.
         13    1    3    3    0    0 -0.31062389076E+02  0.22680200718E+02  0.45517860234E+02  0.59591434955E+02  0.00000000000E+00 0.  1.
<mgrwt>
<rscale>  0 0.91806226E+02</rscale>
<asrwt>0</asrwt>
<pdfrwt beam="2">  1        1 0.47675954E-02 0.91806226E+02</pdfrwt>
<pdfrwt beam="1">  1       -1 0.10460638E-01 0.91806226E+02</pdfrwt>
<totfact> 0.85433829E+04</totfact>
</mgrwt>
</event>
<event>
 5    1  0.1256986E+001  0.9338188E+02  0.7546771E-02  0.1294863E+00
          1   -1    0    0  501    0  0.00000000000E+00  0.00000000000E+00  0.24529261708E+03  0.24529261708E+03  0.00000000000E+00 0. -1.
         -1   -1    0    0    0  501 -0.00000000000E+00 -0.00000000000E+00 -0.88875233607E+01  0.88875233607E+01  0.00000000000E+00 0.  1.
         23    2    1    2    0    0  0.00000000000E+00  0.00000000000E+00  0.23640509372E+03  0.25418014044E+03  0.93381879709E+02 0.  0.
        -11    1    3    3    0    0  0.36166667898E+02 -0.25616568749E+02  0.15818893461E+03  0.16428017377E+03  0.00000000000E+00 0. -1.
         11    1    3    3    0    0 -0.36166667898E+02  0.25616568749E+02  0.78216159108E+02  0.89899966668E+02  0.00000000000E+00 0.  1.
<mgrwt>
<rscale>  0 0.93381880E+02</rscale>
<asrwt>0</asrwt>
<pdfrwt beam="1">  1        1 0.37737321E-01 0.93381880E+02</pdfrwt>
<pdfrwt beam="2">  1       -1 0.13673115E-02 0.93381880E+02</pdfrwt>
<totfact> 0.11557632E+05</totfact>
</mgrwt>
</event>
<event>
 5    1  0.1256986E+001  0.8143475E+02  0.7546771E-02  0.1325028E+00
          1   -1    0    0  501    0  0.00000000000E+00  0.00000000000E+00  0.72922566908E+02  0.72922566908E+02  0.00000000000E+00 0. -1.
         -1   -1    0    0    0  501 -0.00000000000E+00 -0.00000000000E+00 -0.22735138207E+02  0.22735138207E+02  0.00000000000E+00 0.  1.
         23    2    1    2    0    0  0.00000000000E+00  0.00000000000E+00  0.50187428701E+02  0.95657705116E+02  0.81434750251E+02 0.  0.
        -11    1    3    3    0    0 -0.13690341117E+02 -0.37772216022E+02  0.17325090615E+02  0.43752994274E+02  0.00000000000E+00 0. -1.
         11    1    3    3    0    0  0.13690341117E+02  0.37772216022E+02  0.32862338086E+02  0.51904710842E+02  0.00000000000E+00 0.  1.
<mgrwt>
<rscale>  0 0.81434750E+02</rscale>
<asrwt>0</asrwt>
<pdfrwt beam="1">  1        1 0.11218856E-01 0.81434750E+02</pdfrwt>
<pdfrwt beam="2">  1       -1 0.34977136E-02 0.81434750E+02</pdfrwt>
<totfact> 0.13517715E+05</totfact>
</mgrwt>
</event>
<event>
 5    1  0.1256986E+001  0.9077504E+02  0.7546771E-02  0.1300986E+00
          1   -1    0    0  501    0  0.00000000000E+00  0.00000000000E+00  0.90795197724E+01  0.90795197724E+01  0.00000000000E+00 0. -1.
         -1   -1    0    0    0  501 -0.00000000000E+00 -0.00000000000E+00 -0.22688719453E+03  0.22688719453E+03  0.00000000000E+00 0.  1.
         23    2    1    2    0    0  0.00000000000E+00  0.00000000000E+00 -0.21780767475E+03  0.23596671430E+03  0.90775035529E+02 0.  0.
        -13    1    3    3    0    0  0.32526288039E+02  0.16485636527E+02 -0.17915157380E+03  0.18282511321E+03  0.00000000000E+00 0.  1.
         13    1    3    3    0    0 -0.32526288039E+02 -0.16485636527E+02 -0.38656100955E+02  0.53141601089E+02  0.00000000000E+00 0. -1.
<mgrwt>
<rscale>  0 0.90775036E+02</rscale>
<asrwt>0</asrwt>
<pdfrwt beam="1">  1        1 0.13968494E-02 0.90775036E+02</pdfrwt>
<pdfrwt beam="2">  1       -1 0.34905718E-01 0.90775036E+02</pdfrwt>
<totfact> 0.67622641E+04</totfact>
</mgrwt>
</event>
<event>
 5    1  0.1256986E+001  0.9187633E+02  0.7546771E-02  0.1298370E+00
         -2   -1    0    0    0  501 -0.00000000000E+00  0.00000000000E+00  0.30644382623E+02  0.30644382623E+02  0.00000000000E+00 0. -1.
          2   -1    0    0  501    0  0.00000000000E+00 -0.00000000000E+00 -0.68864661332E+02  0.68864661332E+02  0.00000000000E+00 0.  1.
         23    2    1    2    0    0  0.00000000000E+00  0.00000000000E+00 -0.38220278710E+02  0.99509043955E+02  0.91876330598E+02 0.  0.
        -11    1    3    3    0    0  0.25337390003E+02 -0.22563249684E+02  0.14434306316E+02  0.36870486399E+02  0.00000000000E+00 0. -1.
         11    1    3    3    0    0 -0.25337390003E+02  0.22563249684E+02 -0.52654585025E+02  0.62638557556E+02  0.00000000000E+00 0.  1.
<mgrwt>
<rscale>  0 0.91876331E+02</rscale>
<asrwt>0</asrwt>
<pdfrwt beam="2">  1        2 0.10594563E-01 0.91876331E+02</pdfrwt>
<pdfrwt beam="1">  1       -2 0.47145204E-02 0.91876331E+02</pdfrwt>
<totfact> 0.10778530E+05</totfact>
</mgrwt>
</event>
<event>
 5    1  0.1256986E+001  0.9149722E+02  0.7546771E-02  0.1299266E+00
         -1   -1    0    0    0  501 -0.00000000000E+00  0.00000000000E+00  0.22810463479E+03  0.22810463479E+03  0.00000000000E+00 0.  1.
          1   -1    0    0  501    0  0.00000000000E+00 -0.00000000000E+00 -0.91753296865E+01  0.91753296865E+01  0.00000000000E+00 0. -1.
         23    2    1    2    0    0  0.00000000000E+00  0.00000000000E+00  0.21892930511E+03  0.23727996448E+03  0.91497218040E+02 0.  0.
        -13    1    3    3    0    0 -0.80939515036E+00  0.37930951986E+02  0.17576008586E+03  0.17980828685E+03  0.00000000000E+00 0.  1.
         13    1    3    3    0    0  0.80939515036E+00 -0.37930951986E+02  0.43169219251E+02  0.57471677632E+02  0.00000000000E+00 0. -1.
<mgrwt>
<rscale>  0 0.91497218E+02</rscale>
<asrwt>0</asrwt>
<pdfrwt beam="2">  1        1 0.14115894E-02 0.91497218E+02</pdfrwt>
<pdfrwt beam="1">  1       -1 0.35093016E-01 0.91497218E+02</pdfrwt>
<totfact> 0.66127095E+04</totfact>
</mgrwt>
</event>
<event>
 5    1  0.1256986E+001  0.9200211E+02  0.7546771E-02  0.1298074E+00
         -4   -1    0    0    0  501 -0.00000000000E+00  0.00000000000E+00  0.21833291622E+03  0.21833291622E+03  0.00000000000E+00 0.  1.
          4   -1    0    0  501    0  0.00000000000E+00 -0.00000000000E+00 -0.96920664312E+01  0.96920664312E+01  0.00000000000E+00 0. -1.
         23    2    1    2    0    0  0.00000000000E+00  0.00000000000E+00  0.20864084979E+03  0.22802498266E+03  0.92002111458E+02 0.  0.
        -13    1    3    3    0    0 -0.29230328497E+02 -0.33682611352E+02  0.13226975261E+03  0.13958587990E+03  0.00000000000E+00 0.  1.
         13    1    3    3    0    0  0.29230328497E+02  0.33682611352E+02  0.76371097180E+02  0.88439102754E+02  0.00000000000E+00 0. -1.
<mgrwt>
<rscale>  0 0.92002111E+02</rscale>
<asrwt>0</asrwt>
<pdfrwt beam="2">  1        4 0.14910873E-02 0.92002111E+02</pdfrwt>
<pdfrwt beam="1">  1       -4 0.33589676E-01 0.92002111E+02</pdfrwt>
<totfact> 0.19786707E+04</totfact>
</mgrwt>
</event>
<event>
 5    1  0.1256986E+001  0.8957874E+02  0.7546771E-02  0.1303875E+00
         -2   -1    0    0    0  501 -0.00000000000E+00  0.00000000000E+00  0.29430573398E+02  0.29430573398E+02  0.00000000000E+00 0.  1.
          2   -1    0    0  501    0  0.00000000000E+00 -0.00000000000E+00 -0.68163387330E+02  0.68163387330E+02  0.00000000000E+00 0. -1.
         23    2    1    2    0    0  0.00000000000E+00  0.00000000000E+00 -0.38732813932E+02  0.97593960728E+02  0.89578737965E+02 0.  0.
        -11    1    3    3    0    0  0.22460820025E+00 -0.43369975568E+02 -0.71816741622E+01  0.43961138218E+02  0.00000000000E+00 0. -1.
         11    1    3    3    0    0 -0.22460820025E+00  0.43369975568E+02 -0.31551139770E+02  0.53632822510E+02  0.00000000000E+00 0.  1.
<mgrwt>
<rscale>  0 0.89578738E+02</rscale>
<asrwt>0</asrwt>
<pdfrwt beam="2">  1        2 0.10486675E-01 0.89578738E+02</pdfrwt>
<pdfrwt beam="1">  1       -2 0.45277806E-02 0.89578738E+02</pdfrwt>
<totfact> 0.11537380E+05</totfact>
</mgrwt>
</event>
<event>
 5    1  0.1256986E+001  0.9132249E+02  0.7546771E-02  0.1299680E+00
          4   -1    0    0  501    0  0.00000000000E+00  0.00000000000E+00  0.57565538216E+01  0.57565538216E+01  0.00000000000E+00 0. -1.
         -4   -1    0    0    0  501 -0.00000000000E+00 -0.00000000000E+00 -0.36218708530E+03  0.36218708530E+03  0.00000000000E+00 0.  1.
         23    2    1    2    0    0  0.00000000000E+00  0.00000000000E+00 -0.35643053148E+03  0.36794363912E+03  0.91322493396E+02 0.  0.
        -13    1    3    3    0    0 -0.96666726981E+01 -0.44605089789E+02 -0.17267497543E+03  0.17860488721E+03  0.00000000000E+00 0. -1.
         13    1    3    3    0    0  0.96666726981E+01  0.44605089789E+02 -0.18375555605E+03  0.18933875191E+03  0.00000000000E+00 0.  1.
<mgrwt>
<rscale>  0 0.91322493E+02</rscale>
<asrwt>0</asrwt>
<pdfrwt beam="1">  1        4 0.88562381E-03 0.91322493E+02</pdfrwt>
<pdfrwt beam="2">  1       -4 0.55721081E-01 0.91322493E+02</pdfrwt>
<totfact> 0.15863296E+04</totfact>
</mgrwt>
</event>
<event>
 5    1  0.1256986E+001  0.9290884E+02  0.7546771E-02  0.1295957E+00
         -2   -1    0    0    0  501 -0.00000000000E+00  0.00000000000E+00  0.98438661686E+02  0.98438661686E+02  0.00000000000E+00 0. -1.
          2   -1    0    0  501    0  0.00000000000E+00 -0.00000000000E+00 -0.21922412612E+02  0.21922412612E+02  0.00000000000E+00 0.  1.
         23    2    1    2    0    0  0.00000000000E+00  0.00000000000E+00  0.76516249074E+02  0.12036107430E+03  0.92908836145E+02 0.  0.
        -13    1    3    3    0    0 -0.24223147157E+02  0.25581665374E+02 -0.96783365971E+00  0.35243710978E+02  0.00000000000E+00 0.  1.
         13    1    3    3    0    0  0.24223147157E+02 -0.25581665374E+02  0.77484082733E+02  0.85117363320E+02  0.00000000000E+00 0. -1.
<mgrwt>
<rscale>  0 0.92908836E+02</rscale>
<asrwt>0</asrwt>
<pdfrwt beam="2">  1        2 0.33726789E-02 0.92908836E+02</pdfrwt>
<pdfrwt beam="1">  1       -2 0.15144409E-01 0.92908836E+02</pdfrwt>
<totfact> 0.76512903E+04</totfact>
</mgrwt>
</event>
<event>
 5    1  0.1256986E+001  0.9184796E+02  0.7546771E-02  0.1298437E+00
          2   -1    0    0  501    0  0.00000000000E+00  0.00000000000E+00  0.18070191643E+02  0.18070191643E+02  0.00000000000E+00 0. -1.
         -2   -1    0    0    0  501 -0.00000000000E+00 -0.00000000000E+00 -0.11671221019E+03  0.11671221019E+03  0.00000000000E+00 0.  1.
         23    2    1    2    0    0  0.00000000000E+00  0.00000000000E+00 -0.98642018544E+02  0.13478240183E+03  0.91847961440E+02 0.  0.
        -11    1    3    3    0    0  0.21897089412E+00 -0.26095308648E+02 -0.10477433657E+03  0.10797534295E+03  0.00000000000E+00 0.  1.
         11    1    3    3    0    0 -0.21897089412E+00  0.26095308648E+02  0.61323180215E+01  0.26807058884E+02  0.00000000000E+00 0. -1.
<mgrwt>
<rscale>  0 0.91847961E+02</rscale>
<asrwt>0</asrwt>
<pdfrwt beam="1">  1        2 0.27800296E-02 0.91847961E+02</pdfrwt>
<pdfrwt beam="2">  1       -2 0.17955724E-01 0.91847961E+02</pdfrwt>
<totfact> 0.74705432E+04</totfact>
</mgrwt>
</event>
<event>
 5    1  0.1256986E+001  0.9221913E+02  0.7546771E-02  0.1297565E+00
         -1   -1    0    0    0  501 -0.00000000000E+00  0.00000000000E+00  0.32704953701E+03  0.32704953701E+03  0.00000000000E+00 0.  1.
          1   -1    0    0  501    0  0.00000000000E+00 -0.00000000000E+00 -0.65008259401E+01  0.65008259401E+01  0.00000000000E+00 0. -1.
         23    2    1    2    0    0  0.00000000000E+00  0.00000000000E+00  0.32054871107E+03  0.33355036295E+03  0.92219132807E+02 0.  0.
        -11    1    3    3    0    0  0.35617158012E+02 -0.25686336921E+02  0.10941531398E+03  0.11789860382E+03  0.00000000000E+00 0. -1.
         11    1    3    3    0    0 -0.35617158012E+02  0.25686336921E+02  0.21113339709E+03  0.21565175913E+03  0.00000000000E+00 0.  1.
<mgrwt>
<rscale>  0 0.92219133E+02</rscale>
<asrwt>0</asrwt>
<pdfrwt beam="2">  1        1 0.10001273E-02 0.92219133E+02</pdfrwt>
<pdfrwt beam="1">  1       -1 0.50315301E-01 0.92219133E+02</pdfrwt>
<totfact> 0.56773060E+04</totfact>
</mgrwt>
</event>
<event>
 5    1  0.1256986E+001  0.9168185E+02  0.7546771E-02  0.1298829E+00
         -3   -1    0    0    0  501 -0.00000000000E+00  0.00000000000E+00  0.10250300899E+02  0.10250300899E+02  0.00000000000E+00 0.  1.
          3   -1    0    0  501    0  0.00000000000E+00 -0.00000000000E+00 -0.20500767631E+03  0.20500767631E+03  0.00000000000E+00 0. -1.
         23    2    1    2    0    0  0.00000000000E+00  0.00000000000E+00 -0.19475737541E+03  0.21525797721E+03  0.91681849214E+02 0.  0.
        -13    1    3    3    0    0 -0.29688274561E+02  0.33807336161E+02 -0.76767999678E+02  0.88981208124E+02  0.00000000000E+00 0.  1.
         13    1    3    3    0    0  0.29688274561E+02 -0.33807336161E+02 -0.11798937573E+03  0.12627676908E+03  0.00000000000E+00 0. -1.
<mgrwt>
<rscale>  0 0.91681849E+02</rscale>
<asrwt>0</asrwt>
<pdfrwt beam="2">  1        3 0.31539642E-01 0.91681849E+02</pdfrwt>
<pdfrwt beam="1">  1       -3 0.15769694E-02 0.91681849E+02</pdfrwt>
<totfact> 0.27318016E+04</totfact>
</mgrwt>
</event>
<event>
 5    1  0.1256986E+001  0.1266310E+03  0.7546771E-02  0.1232542E+00
          1   -1    0    0  501    0  0.00000000000E+00  0.00000000000E+00  0.39731778424E+02  0.39731778424E+02  0.00000000000E+00 0.  1.
         -1   -1    0    0    0  501 -0.00000000000E+00 -0.00000000000E+00 -0.10089784859E+03  0.10089784859E+03  0.00000000000E+00 0. -1.
         23    2    1    2    0    0  0.00000000000E+00  0.00000000000E+00 -0.61166070161E+02  0.14062962701E+03  0.12663097510E+03 0.  0.
        -13    1    3    3    0    0 -0.11546529739E+02  0.29606586019E+02 -0.91399834767E+02  0.96766740568E+02  0.00000000000E+00 0. -1.
         13    1    3    3    0    0  0.11546529739E+02 -0.29606586019E+02  0.30233764606E+02  0.43862886441E+02  0.00000000000E+00 0.  1.
<mgrwt>
<rscale>  0 0.12663098E+03</rscale>
<asrwt>0</asrwt>
<pdfrwt beam="1">  1        1 0.61125814E-02 0.12663098E+03</pdfrwt>
<pdfrwt beam="2">  1       -1 0.15522746E-01 0.12663098E+03</pdfrwt>
<totfact> 0.34747435E+04</totfact>
</mgrwt>
</event>
<event>
 5    1  0.1256986E+001  0.7495622E+02  0.7546771E-02  0.1344007E+00
          4   -1    0    0  501    0  0.00000000000E+00  0.00000000000E+00  0.48148418482E+02  0.48148418482E+02  0.00000000000E+00 0.  1.
         -4   -1    0    0    0  501 -0.00000000000E+00 -0.00000000000E+00 -0.29172476223E+02  0.29172476223E+02  0.00000000000E+00 0. -1.
         23    2    1    2    0    0  0.00000000000E+00  0.00000000000E+00  0.18975942258E+02  0.77320894705E+02  0.74956216376E+02 0.  0.
        -11    1    3    3    0    0 -0.25652264219E+02 -0.92343044957E+01 -0.17039000493E+02  0.32150250029E+02  0.00000000000E+00 0. -1.
         11    1    3    3    0    0  0.25652264219E+02  0.92343044957E+01  0.36014942751E+02  0.45170644676E+02  0.00000000000E+00 0.  1.
<mgrwt>
<rscale>  0 0.74956216E+02</rscale>
<asrwt>0</asrwt>
<pdfrwt beam="1">  1        4 0.74074490E-02 0.74956216E+02</pdfrwt>
<pdfrwt beam="2">  1       -4 0.44880733E-02 0.74956216E+02</pdfrwt>
<totfact> 0.47251137E+04</totfact>
</mgrwt>
</event>
<event>
 5    1  0.1256986E+001  0.9154294E+02  0.7546771E-02  0.1299158E+00
          1   -1    0    0  501    0  0.00000000000E+00  0.00000000000E+00  0.43084891180E+03  0.43084891180E+03  0.00000000000E+00 0. -1.
         -1   -1    0    0    0  501 -0.00000000000E+00 -0.00000000000E+00 -0.48625566974E+01  0.48625566974E+01  0.00000000000E+00 0.  1.
         23    2    1    2    0    0  0.00000000000E+00  0.00000000000E+00  0.42598635510E+03  0.43571146849E+03  0.91542935536E+02 0.  0.
        -13    1    3    3    0    0 -0.42851948041E+02 -0.15442616179E+02  0.19156770103E+03  0.19690847600E+03  0.00000000000E+00 0. -1.
         13    1    3    3    0    0  0.42851948041E+02  0.15442616179E+02  0.23441865407E+03  0.23880299249E+03  0.00000000000E+00 0.  1.
<mgrwt>
<rscale>  0 0.91542936E+02</rscale>
<asrwt>0</asrwt>
<pdfrwt beam="1">  1        1 0.66284418E-01 0.91542936E+02</pdfrwt>
<pdfrwt beam="2">  1       -1 0.74808598E-03 0.91542936E+02</pdfrwt>
<totfact> 0.13503702E+05</totfact>
</mgrwt>
</event>
<event>
 5    1  0.1256986E+001  0.9737795E+02  0.7546771E-02  0.1285908E+00
          3   -1    0    0  501    0  0.00000000000E+00  0.00000000000E+00  0.81043333716E+02  0.81043333716E+02  0.00000000000E+00 0. -1.
         -3   -1    0    0    0  501 -0.00000000000E+00 -0.00000000000E+00 -0.29251217958E+02  0.29251217958E+02  0.00000000000E+00 0.  1.
         23    2    1    2    0    0  0.00000000000E+00  0.00000000000E+00  0.51792115758E+02  0.11029455167E+03  0.97377948604E+02 0.  0.
        -13    1    3    3    0    0  0.79675552320E+01  0.31892661518E+02 -0.14784511064E+02  0.36044494205E+02  0.00000000000E+00 0.  1.
         13    1    3    3    0    0 -0.79675552320E+01 -0.31892661518E+02  0.66576626823E+02  0.74250057469E+02  0.00000000000E+00 0. -1.
<mgrwt>
<rscale>  0 0.97377949E+02</rscale>
<asrwt>0</asrwt>
<pdfrwt beam="1">  1        3 0.12468205E-01 0.97377949E+02</pdfrwt>
<pdfrwt beam="2">  1       -3 0.45001874E-02 0.97377949E+02</pdfrwt>
<totfact> 0.28340938E+04</totfact>
</mgrwt>
</event>
<event>
 5    1  0.1256986E+001  0.9180492E+02  0.7546771E-02  0.1298539E+00
          1   -1    0    0  501    0  0.00000000000E+00  0.00000000000E+00  0.59930355868E+02  0.59930355868E+02  0.00000000000E+00 0. -1.
         -1   -1    0    0    0  501 -0.00000000000E+00 -0.00000000000E+00 -0.35158076792E+02  0.35158076792E+02  0.00000000000E+00 0.  1.
         23    2    1    2    0    0  0.00000000000E+00  0.00000000000E+00  0.24772279075E+02  0.95088432660E+02  0.91804924787E+02 0.  0.
        -11    1    3    3    0    0  0.41395243000E+01  0.94350804191E+01  0.58717194950E+02  0.59614305219E+02  0.00000000000E+00 0. -1.
         11    1    3    3    0    0 -0.41395243000E+01 -0.94350804191E+01 -0.33944915875E+02  0.35474127441E+02  0.00000000000E+00 0.  1.
<mgrwt>
<rscale>  0 0.91804925E+02</rscale>
<asrwt>0</asrwt>
<pdfrwt beam="1">  1        1 0.92200548E-02 0.91804925E+02</pdfrwt>
<pdfrwt beam="2">  1       -1 0.54089349E-02 0.91804925E+02</pdfrwt>
<totfact> 0.94534089E+04</totfact>
</mgrwt>
</event>
<event>
 5    1  0.1256986E+001  0.9882581E+02  0.7546771E-02  0.1282785E+00
          2   -1    0    0  501    0  0.00000000000E+00  0.00000000000E+00  0.21196942939E+02  0.21196942939E+02  0.00000000000E+00 0. -1.
         -2   -1    0    0    0  501 -0.00000000000E+00 -0.00000000000E+00 -0.11518808882E+03  0.11518808882E+03  0.00000000000E+00 0.  1.
         23    2    1    2    0    0  0.00000000000E+00  0.00000000000E+00 -0.93991145882E+02  0.13638503176E+03  0.98825813349E+02 0.  0.
        -11    1    3    3    0    0 -0.29674066977E+02 -0.19418307347E+02 -0.94482581314E+02  0.10091867559E+03  0.00000000000E+00 0.  1.
         11    1    3    3    0    0  0.29674066977E+02  0.19418307347E+02  0.49143543125E+00  0.35466356170E+02  0.00000000000E+00 0. -1.
<mgrwt>
<rscale>  0 0.98825813E+02</rscale>
<asrwt>0</asrwt>
<pdfrwt beam="1">  1        2 0.32610682E-02 0.98825813E+02</pdfrwt>
<pdfrwt beam="2">  1       -2 0.17721244E-01 0.98825813E+02</pdfrwt>
<totfact> 0.62444981E+04</totfact>
</mgrwt>
</event>
<event>
 5    1  0.1256986E+001  0.9011166E+02  0.7546771E-02  0.1302582E+00
         -1   -1    0    0    0  501 -0.00000000000E+00  0.00000000000E+00  0.10563057825E+02  0.10563057825E+02  0.00000000000E+00 0.  1.
          1   -1    0    0  501    0  0.00000000000E+00 -0.00000000000E+00 -0.19218182069E+03  0.19218182069E+03  0.00000000000E+00 0. -1.
         23    2    1    2    0    0  0.00000000000E+00  0.00000000000E+00 -0.18161876287E+03  0.20274487852E+03  0.90111657071E+02 0.  0.
        -11    1    3    3    0    0  0.16602992558E+02 -0.37329586180E+02 -0.48068399250E+02  0.63085088355E+02  0.00000000000E+00 0.  1.
         11    1    3    3    0    0 -0.16602992558E+02  0.37329586180E+02 -0.13355036362E+03  0.13965979016E+03  0.00000000000E+00 0. -1.
<mgrwt>
<rscale>  0 0.90111657E+02</rscale>
<asrwt>0</asrwt>
<pdfrwt beam="2">  1        1 0.29566435E-01 0.90111657E+02</pdfrwt>
<pdfrwt beam="1">  1       -1 0.16250858E-02 0.90111657E+02</pdfrwt>
<totfact> 0.12125581E+05</totfact>
</mgrwt>
</event>
<event>
 5    1  0.1256986E+001  0.9160342E+02  0.7546771E-02  0.1299015E+00
         -4   -1    0    0    0  501 -0.00000000000E+00  0.00000000000E+00  0.16394859964E+03  0.16394859964E+03  0.00000000000E+00 0.  1.
          4   -1    0    0  501    0  0.00000000000E+00 -0.00000000000E+00 -0.12795454272E+02  0.12795454272E+02  0.00000000000E+00 0. -1.
         23    2    1    2    0    0  0.00000000000E+00  0.00000000000E+00  0.15115314537E+03  0.17674405391E+03  0.91603423729E+02 0.  0.
        -11    1    3    3    0    0 -0.23770719320E+02 -0.38773070524E+02  0.65114992710E+02  0.79425187255E+02  0.00000000000E+00 0. -1.
         11    1    3    3    0    0  0.23770719320E+02  0.38773070524E+02  0.86038152660E+02  0.97318866660E+02  0.00000000000E+00 0.  1.
<mgrwt>
<rscale>  0 0.91603424E+02</rscale>
<asrwt>0</asrwt>
<pdfrwt beam="2">  1        4 0.19685315E-02 0.91603424E+02</pdfrwt>
<pdfrwt beam="1">  1       -4 0.25222860E-01 0.91603424E+02</pdfrwt>
<totfact> 0.22118721E+04</totfact>
</mgrwt>
</event>
<event>
 5    1  0.1256986E+001  0.9174966E+02  0.7546771E-02  0.1298669E+00
         -2   -1    0    0    0  501 -0.00000000000E+00  0.00000000000E+00  0.50527450439E+02  0.50527450439E+02  0.00000000000E+00 0. -1.
          2   -1    0    0  501    0  0.00000000000E+00 -0.00000000000E+00 -0.41650630618E+02  0.41650630618E+02  0.00000000000E+00 0.  1.
         23    2    1    2    0    0  0.00000000000E+00  0.00000000000E+00  0.88768198209E+01  0.92178081056E+02  0.91749663199E+02 0.  0.
        -11    1    3    3    0    0  0.13331229441E+02  0.34764688029E+02  0.31362706213E+02  0.48681870888E+02  0.00000000000E+00 0. -1.
         11    1    3    3    0    0 -0.13331229441E+02 -0.34764688029E+02 -0.22485886392E+02  0.43496210168E+02  0.00000000000E+00 0.  1.
<mgrwt>
<rscale>  0 0.91749663E+02</rscale>
<asrwt>0</asrwt>
<pdfrwt beam="2">  1        2 0.64077893E-02 0.91749663E+02</pdfrwt>
<pdfrwt beam="1">  1       -2 0.77734539E-02 0.91749663E+02</pdfrwt>
<totfact> 0.94661294E+04</totfact>
</mgrwt>
</event>
<event>
 5    1  0.1256986E+001  0.9050782E+02  0.7546771E-02  0.1301627E+00
          2   -1    0    0  501    0  0.00000000000E+00  0.00000000000E+00  0.19430333089E+02  0.19430333089E+02  0.00000000000E+00 0.  1.
         -2   -1    0    0    0  501 -0.00000000000E+00 -0.00000000000E+00 -0.10539791261E+03  0.10539791261E+03  0.00000000000E+00 0. -1.
         23    2    1    2    0    0  0.00000000000E+00  0.00000000000E+00 -0.85967579521E+02  0.12482824570E+03  0.90507823946E+02 0.  0.
        -11    1    3    3    0    0 -0.43519971138E+02 -0.10669034366E+02 -0.51717542972E+02  0.68428944411E+02  0.00000000000E+00 0. -1.
         11    1    3    3    0    0  0.43519971138E+02  0.10669034366E+02 -0.34250036549E+02  0.56399301287E+02  0.00000000000E+00 0.  1.
<mgrwt>
<rscale>  0 0.90507824E+02</rscale>
<asrwt>0</asrwt>
<pdfrwt beam="1">  1        2 0.29892820E-02 0.90507824E+02</pdfrwt>
<pdfrwt beam="2">  1       -2 0.16215064E-01 0.90507824E+02</pdfrwt>
<totfact> 0.80006822E+04</totfact>
</mgrwt>
</event>
<event>
 5    1  0.1256986E+001  0.9141575E+02  0.7546771E-02  0.1299459E+00
          1   -1    0    0  501    0  0.00000000000E+00  0.00000000000E+00  0.28694698351E+03  0.28694698351E+03  0.00000000000E+00 0. -1.
         -1   -1    0    0    0  501 -0.00000000000E+00 -0.00000000000E+00 -0.72808217866E+01  0.72808217866E+01  0.00000000000E+00 0.  1.
         23    2    1    2    0    0  0.00000000000E+00  0.00000000000E+00  0.27966616172E+03  0.29422780529E+03  0.91415750265E+02 0.  0.
        -13    1    3    3    0    0  0.34796032854E+02 -0.27649539244E+02  0.17419028404E+03  0.17977073170E+03  0.00000000000E+00 0. -1.
         13    1    3    3    0    0 -0.34796032854E+02  0.27649539244E+02  0.10547587768E+03  0.11445707359E+03  0.00000000000E+00 0.  1.
<mgrwt>
<rscale>  0 0.91415750E+02</rscale>
<asrwt>0</asrwt>
<pdfrwt beam="1">  1        1 0.44145681E-01 0.91415750E+02</pdfrwt>
<pdfrwt beam="2">  1       -1 0.11201266E-02 0.91415750E+02</pdfrwt>
<totfact> 0.12614962E+05</totfact>
</mgrwt>
</event>
<event>
 5    1  0.1256986E+001  0.9112285E+02  0.7546771E-02  0.1300155E+00
          1   -1    0    0  501    0  0.00000000000E+00  0.00000000000E+00  0.37007869088E+02  0.37007869088E+02  0.00000000000E+00 0. -1.
         -1   -1    0    0    0  501 -0.00000000000E+00 -0.00000000000E+00 -0.56091941308E+02  0.56091941308E+02  0.00000000000E+00 0.  1.
         23    2    1    2    0    0  0.00000000000E+00  0.00000000000E+00 -0.19084072220E+02  0.93099810396E+02  0.91122845013E+02 0.  0.
        -11    1    3    3    0    0  0.19146923077E+02  0.41334199703E+02 -0.10410472826E+02  0.46727921769E+02  0.00000000000E+00 0. -1.
         11    1    3    3    0    0 -0.19146923077E+02 -0.41334199703E+02 -0.86735993940E+01  0.46371888627E+02  0.00000000000E+00 0.  1.
<mgrwt>
<rscale>  0 0.91122845E+02</rscale>
<asrwt>0</asrwt>
<pdfrwt beam="1">  1        1 0.56935184E-02 0.91122845E+02</pdfrwt>
<pdfrwt beam="2">  1       -1 0.86295294E-02 0.91122845E+02</pdfrwt>
<totfact> 0.89743741E+04</totfact>
</mgrwt>
</event>
<event>
 5    1  0.1256986E+001  0.9166340E+02  0.7546771E-02  0.1298873E+00
         -2   -1    0    0    0  501 -0.00000000000E+00  0.00000000000E+00  0.37240887147E+02  0.37240887147E+02  0.00000000000E+00 0.  1.
          2   -1    0    0  501    0  0.00000000000E+00 -0.00000000000E+00 -0.56404265674E+02  0.56404265674E+02  0.00000000000E+00 0. -1.
         23    2    1    2    0    0  0.00000000000E+00  0.00000000000E+00 -0.19163378527E+02  0.93645152821E+02  0.91663403659E+02 0.  0.
        -13    1    3    3    0    0  0.39966517498E+02  0.10105496666E+02  0.10878816401E+02  0.42635574701E+02  0.00000000000E+00 0.  1.
         13    1    3    3    0    0 -0.39966517498E+02 -0.10105496666E+02 -0.30042194929E+02  0.51009578120E+02  0.00000000000E+00 0. -1.
<mgrwt>
<rscale>  0 0.91663404E+02</rscale>
<asrwt>0</asrwt>
<pdfrwt beam="2">  1        2 0.86775794E-02 0.91663404E+02</pdfrwt>
<pdfrwt beam="1">  1       -2 0.57293672E-02 0.91663404E+02</pdfrwt>
<totfact> 0.10277245E+05</totfact>
</mgrwt>
</event>
<event>
 5    1  0.1256986E+001  0.8985639E+02  0.7546771E-02  0.1303200E+00
          3   -1    0    0  501    0  0.00000000000E+00  0.00000000000E+00  0.15501111560E+03  0.15501111560E+03  0.00000000000E+00 0. -1.
         -3   -1    0    0    0  501 -0.00000000000E+00 -0.00000000000E+00 -0.13021923414E+02  0.13021923414E+02  0.00000000000E+00 0.  1.
         23    2    1    2    0    0  0.00000000000E+00  0.00000000000E+00  0.14198919219E+03  0.16803303902E+03  0.89856393776E+02 0.  0.
        -13    1    3    3    0    0 -0.38576912670E+02  0.16850990690E+02  0.10034903622E+03  0.10882124401E+03  0.00000000000E+00 0. -1.
         13    1    3    3    0    0  0.38576912670E+02 -0.16850990690E+02  0.41640155971E+02  0.59211795004E+02  0.00000000000E+00 0.  1.
<mgrwt>
<rscale>  0 0.89856394E+02</rscale>
<asrwt>0</asrwt>
<pdfrwt beam="1">  1        3 0.23847863E-01 0.89856394E+02</pdfrwt>
<pdfrwt beam="2">  1       -3 0.20033729E-02 0.89856394E+02</pdfrwt>
<totfact> 0.31453062E+04</totfact>
</mgrwt>
</event>
<event>
 5    1  0.1256986E+001  0.8880869E+02  0.7546771E-02  0.1305763E+00
          2   -1    0    0  501    0  0.00000000000E+00  0.00000000000E+00  0.11273884730E+02  0.11273884730E+02  0.00000000000E+00 0. -1.
         -2   -1    0    0    0  501 -0.00000000000E+00 -0.00000000000E+00 -0.17489497044E+03  0.17489497044E+03  0.00000000000E+00 0.  1.
         23    2    1    2    0    0  0.00000000000E+00  0.00000000000E+00 -0.16362108572E+03  0.18616885517E+03  0.88808687337E+02 0.  0.
        -13    1    3    3    0    0 -0.11019513343E+02  0.28375489864E+02 -0.14040088272E+02  0.33521965605E+02  0.00000000000E+00 0. -1.
         13    1    3    3    0    0  0.11019513343E+02 -0.28375489864E+02 -0.14958099744E+03  0.15264688957E+03  0.00000000000E+00 0.  1.
<mgrwt>
<rscale>  0 0.88808687E+02</rscale>
<asrwt>0</asrwt>
<pdfrwt beam="1">  1        2 0.17344439E-02 0.88808687E+02</pdfrwt>
<pdfrwt beam="2">  1       -2 0.26906917E-01 0.88808687E+02</pdfrwt>
<totfact> 0.70448667E+04</totfact>
</mgrwt>
</event>
<event>
 5    1  0.1256986E+001  0.9155075E+02  0.7546771E-02  0.1299139E+00
          1   -1    0    0  501    0  0.00000000000E+00  0.00000000000E+00  0.17269075632E+02  0.17269075632E+02  0.00000000000E+00 0. -1.
         -1   -1    0    0    0  501 -0.00000000000E+00 -0.00000000000E+00 -0.12133740897E+03  0.12133740897E+03  0.00000000000E+00 0.  1.
         23    2    1    2    0    0  0.00000000000E+00  0.00000000000E+00 -0.10406833334E+03  0.13860648460E+03  0.91550748603E+02 0.  0.
        -11    1    3    3    0    0 -0.78230306882E+01 -0.43307906100E+02 -0.71101388282E+02  0.83619267848E+02  0.00000000000E+00 0.  1.
         11    1    3    3    0    0  0.78230306882E+01  0.43307906100E+02 -0.32966945054E+02  0.54987216752E+02  0.00000000000E+00 0. -1.
<mgrwt>
<rscale>  0 0.91550749E+02</rscale>
<asrwt>0</asrwt>
<pdfrwt beam="1">  1        1 0.26567809E-02 0.91550749E+02</pdfrwt>
<pdfrwt beam="2">  1       -1 0.18667293E-01 0.91550749E+02</pdfrwt>
<totfact> 0.77526704E+04</totfact>
</mgrwt>
</event>
<event>
 5    1  0.1256986E+001  0.9175463E+02  0.7546771E-02  0.1298657E+00
         -1   -1    0    0    0  501 -0.00000000000E+00  0.00000000000E+00  0.17043550470E+02  0.17043550470E+02  0.00000000000E+00 0.  1.
          1   -1    0    0  501    0  0.00000000000E+00 -0.00000000000E+00 -0.12349118301E+03  0.12349118301E+03  0.00000000000E+00 0. -1.
         23    2    1    2    0    0  0.00000000000E+00  0.00000000000E+00 -0.10644763254E+03  0.14053473348E+03  0.91754633892E+02 0.  0.
        -11    1    3    3    0    0  0.62687689181E+01  0.25709736287E+02  0.41755760610E+01  0.26790360937E+02  0.00000000000E+00 0.  1.
         11    1    3    3    0    0 -0.62687689181E+01 -0.25709736287E+02 -0.11062320860E+03  0.11374437254E+03  0.00000000000E+00 0. -1.
<mgrwt>
<rscale>  0 0.91754634E+02</rscale>
<asrwt>0</asrwt>
<pdfrwt beam="2">  1        1 0.18998643E-01 0.91754634E+02</pdfrwt>
<pdfrwt beam="1">  1       -1 0.26220848E-02 0.91754634E+02</pdfrwt>
<totfact> 0.10643939E+05</totfact>
</mgrwt>
</event>
<event>
 5    1  0.1256986E+001  0.9139872E+02  0.7546771E-02  0.1299499E+00
         -1   -1    0    0    0  501 -0.00000000000E+00  0.00000000000E+00  0.12960953604E+03  0.12960953604E+03  0.00000000000E+00 0.  1.
          1   -1    0    0  501    0  0.00000000000E+00 -0.00000000000E+00 -0.16113254344E+02  0.16113254344E+02  0.00000000000E+00 0. -1.
         23    2    1    2    0    0  0.00000000000E+00  0.00000000000E+00  0.11349628170E+03  0.14572279038E+03  0.91398718145E+02 0.  0.
        -11    1    3    3    0    0  0.28224518731E+02 -0.27278301232E+02  0.94061094961E+02  0.10192261163E+03  0.00000000000E+00 0.  1.
         11    1    3    3    0    0 -0.28224518731E+02  0.27278301232E+02  0.19435186735E+02  0.43800178757E+02  0.00000000000E+00 0. -1.
<mgrwt>
<rscale>  0 0.91398718E+02</rscale>
<asrwt>0</asrwt>
<pdfrwt beam="2">  1        1 0.24789623E-02 0.91398718E+02</pdfrwt>
<pdfrwt beam="1">  1       -1 0.19939928E-01 0.91398718E+02</pdfrwt>
<totfact> 0.76789345E+04</totfact>
</mgrwt>
</event>
<event>
 5    1  0.1256986E+001  0.9148649E+02  0.7546771E-02  0.1299291E+00
          1   -1    0    0  501    0  0.00000000000E+00  0.00000000000E+00  0.75740565026E+02  0.75740565026E+02  0.00000000000E+00 0. -1.
         -1   -1    0    0    0  501 -0.00000000000E+00 -0.00000000000E+00 -0.27626470007E+02  0.27626470007E+02  0.00000000000E+00 0.  1.
         23    2    1    2    0    0  0.00000000000E+00  0.00000000000E+00  0.48114095019E+02  0.10336703503E+03  0.91486489669E+02 0.  0.
        -13    1    3    3    0    0  0.17639221418E+02 -0.42204345658E+02  0.23707843024E+02  0.51520973841E+02  0.00000000000E+00 0.  1.
         13    1    3    3    0    0 -0.17639221418E+02  0.42204345658E+02  0.24406251995E+02  0.51846061191E+02  0.00000000000E+00 0. -1.
<mgrwt>
<rscale>  0 0.91486490E+02</rscale>
<asrwt>0</asrwt>
<pdfrwt beam="1">  1        1 0.11652395E-01 0.91486490E+02</pdfrwt>
<pdfrwt beam="2">  1       -1 0.42502262E-02 0.91486490E+02</pdfrwt>
<totfact> 0.98954381E+04</totfact>
</mgrwt>
</event>
<event>
 5    1  0.1256986E+001  0.8762795E+02  0.7546771E-02  0.1308700E+00
          3   -1    0    0  501    0  0.00000000000E+00  0.00000000000E+00  0.42543442285E+02  0.42543442285E+02  0.00000000000E+00 0. -1.
         -3   -1    0    0    0  501 -0.00000000000E+00 -0.00000000000E+00 -0.45122455994E+02  0.45122455994E+02  0.00000000000E+00 0.  1.
         23    2    1    2    0    0  0.00000000000E+00  0.00000000000E+00 -0.25790137098E+01  0.87665898279E+02  0.87627954497E+02 0.  0.
        -13    1    3    3    0    0 -0.11739269193E+02 -0.97869719335E+01  0.39790048005E+02  0.42624443469E+02  0.00000000000E+00 0. -1.
         13    1    3    3    0    0  0.11739269193E+02  0.97869719335E+01 -0.42369061715E+02  0.45041454810E+02  0.00000000000E+00 0.  1.
<mgrwt>
<rscale>  0 0.87627954E+02</rscale>
<asrwt>0</asrwt>
<pdfrwt beam="1">  1        3 0.65451449E-02 0.87627954E+02</pdfrwt>
<pdfrwt beam="2">  1       -3 0.69419164E-02 0.87627954E+02</pdfrwt>
<totfact> 0.39664794E+04</totfact>
</mgrwt>
</event>
<event>
 5    1  0.1256986E+001  0.9143672E+02  0.7546771E-02  0.1299409E+00
          1   -1    0    0  501    0  0.00000000000E+00  0.00000000000E+00  0.10388877344E+02  0.10388877344E+02  0.00000000000E+00 0. -1.
         -1   -1    0    0    0  501 -0.00000000000E+00 -0.00000000000E+00 -0.20119292083E+03  0.20119292083E+03  0.00000000000E+00 0.  1.
         23    2    1    2    0    0  0.00000000000E+00  0.00000000000E+00 -0.19080404349E+03  0.21158179818E+03  0.91436722975E+02 0.  0.
        -11    1    3    3    0    0 -0.30492081085E+02 -0.33031107616E+02 -0.76132406240E+02  0.88413598271E+02  0.00000000000E+00 0. -1.
         11    1    3    3    0    0  0.30492081085E+02  0.33031107616E+02 -0.11467163725E+03  0.12316819991E+03  0.00000000000E+00 0.  1.
<mgrwt>
<rscale>  0 0.91436723E+02</rscale>
<asrwt>0</asrwt>
<pdfrwt beam="1">  1        1 0.15982889E-02 0.91436723E+02</pdfrwt>
<pdfrwt beam="2">  1       -1 0.30952756E-01 0.91436723E+02</pdfrwt>
<totfact> 0.68793747E+04</totfact>
</mgrwt>
</event>
<event>
 5    1  0.1256986E+001  0.9000815E+02  0.7546771E-02  0.1302832E+00
         -1   -1    0    0    0  501 -0.00000000000E+00  0.00000000000E+00  0.57911640436E+02  0.57911640436E+02  0.00000000000E+00 0.  1.
          1   -1    0    0  501    0  0.00000000000E+00 -0.00000000000E+00 -0.34973393303E+02  0.34973393303E+02  0.00000000000E+00 0. -1.
         23    2    1    2    0    0  0.00000000000E+00  0.00000000000E+00  0.22938247134E+02  0.92885033739E+02  0.90008145804E+02 0.  0.
        -11    1    3    3    0    0  0.28869365355E+02 -0.30000839431E+02  0.29099560992E+02  0.50796408066E+02  0.00000000000E+00 0.  1.
         11    1    3    3    0    0 -0.28869365355E+02  0.30000839431E+02 -0.61613138584E+01  0.42088625672E+02  0.00000000000E+00 0. -1.
<mgrwt>
<rscale>  0 0.90008146E+02</rscale>
<asrwt>0</asrwt>
<pdfrwt beam="2">  1        1 0.53805220E-02 0.90008146E+02</pdfrwt>
<pdfrwt beam="1">  1       -1 0.89094832E-02 0.90008146E+02</pdfrwt>
<totfact> 0.92127600E+04</totfact>
</mgrwt>
</event>
<event>
 5    1  0.1256986E+001  0.8386742E+02  0.7546771E-02  0.1318421E+00
          3   -1    0    0  501    0  0.00000000000E+00  0.00000000000E+00  0.48017164854E+01  0.48017164854E+01  0.00000000000E+00 0. -1.
         -3   -1    0    0    0  501 -0.00000000000E+00 -0.00000000000E+00 -0.36620991824E+03  0.36620991824E+03  0.00000000000E+00 0.  1.
         23    2    1    2    0    0  0.00000000000E+00  0.00000000000E+00 -0.36140820176E+03  0.37101163473E+03  0.83867423987E+02 0.  0.
        -11    1    3    3    0    0  0.14506603278E+02 -0.39336807397E+02 -0.17724831417E+03  0.18213948180E+03  0.00000000000E+00 0.  1.
         11    1    3    3    0    0 -0.14506603278E+02  0.39336807397E+02 -0.18415988758E+03  0.18887215292E+03  0.00000000000E+00 0. -1.
<mgrwt>
<rscale>  0 0.83867424E+02</rscale>
<asrwt>0</asrwt>
<pdfrwt beam="1">  1        3 0.73872583E-03 0.83867424E+02</pdfrwt>
<pdfrwt beam="2">  1       -3 0.56339971E-01 0.83867424E+02</pdfrwt>
<totfact> 0.26864850E+04</totfact>
</mgrwt>
</event>
<event>
 5    1  0.1256986E+001  0.9173998E+02  0.7546771E-02  0.1298692E+00
          3   -1    0    0  501    0  0.00000000000E+00  0.00000000000E+00  0.70843930412E+02  0.70843930412E+02  0.00000000000E+00 0. -1.
         -3   -1    0    0    0  501 -0.00000000000E+00 -0.00000000000E+00 -0.29699879127E+02  0.29699879127E+02  0.00000000000E+00 0.  1.
         23    2    1    2    0    0  0.00000000000E+00  0.00000000000E+00  0.41144051285E+02  0.10054380954E+03  0.91739984089E+02 0.  0.
        -11    1    3    3    0    0 -0.97413796451E+01  0.29781645830E+02 -0.16142232884E+02  0.35247873528E+02  0.00000000000E+00 0.  1.
         11    1    3    3    0    0  0.97413796451E+01 -0.29781645830E+02  0.57286284169E+02  0.65295936011E+02  0.00000000000E+00 0. -1.
<mgrwt>
<rscale>  0 0.91739984E+02</rscale>
<asrwt>0</asrwt>
<pdfrwt beam="1">  1        3 0.10899066E-01 0.91739984E+02</pdfrwt>
<pdfrwt beam="2">  1       -3 0.45692122E-02 0.91739984E+02</pdfrwt>
<totfact> 0.34054045E+04</totfact>
</mgrwt>
</event>
<event>
 5    1  0.1256986E+001  0.8817997E+02  0.7546771E-02  0.1307320E+00
          3   -1    0    0  501    0  0.00000000000E+00  0.00000000000E+00  0.11649700380E+02  0.11649700380E+02  0.00000000000E+00 0. -1.
         -3   -1    0    0    0  501 -0.00000000000E+00 -0.00000000000E+00 -0.16686495578E+03  0.16686495578E+03  0.00000000000E+00 0.  1.
         23    2    1    2    0    0  0.00000000000E+00  0.00000000000E+00 -0.15521525540E+03  0.17851465616E+03  0.88179969124E+02 0.  0.
        -13    1    3    3    0    0 -0.42283838256E+02 -0.10694117306E+02 -0.90671059844E+02  0.10061574537E+03  0.00000000000E+00 0.  1.
         13    1    3    3    0    0  0.42283838256E+02  0.10694117306E+02 -0.64544195555E+02  0.77898910791E+02  0.00000000000E+00 0. -1.
<mgrwt>
<rscale>  0 0.88179969E+02</rscale>
<asrwt>0</asrwt>
<pdfrwt beam="1">  1        3 0.17922617E-02 0.88179969E+02</pdfrwt>
<pdfrwt beam="2">  1       -3 0.25671529E-01 0.88179969E+02</pdfrwt>
<totfact> 0.32439975E+04</totfact>
</mgrwt>
</event>
<event>
 5    1  0.1256986E+001  0.9031468E+02  0.7546771E-02  0.1302091E+00
          2   -1    0    0  501    0  0.00000000000E+00  0.00000000000E+00  0.38503874136E+03  0.38503874136E+03  0.00000000000E+00 0. -1.
         -2   -1    0    0    0  501 -0.00000000000E+00 -0.00000000000E+00 -0.52960523975E+01  0.52960523975E+01  0.00000000000E+00 0.  1.
         23    2    1    2    0    0  0.00000000000E+00  0.00000000000E+00  0.37974268896E+03  0.39033479376E+03  0.90314679855E+02 0.  0.
        -13    1    3    3    0    0 -0.41707624943E+02  0.16350690833E+02  0.16530298479E+03  0.17126572293E+03  0.00000000000E+00 0. -1.
         13    1    3    3    0    0  0.41707624943E+02 -0.16350690833E+02  0.21443970417E+03  0.21906907083E+03  0.00000000000E+00 0.  1.
<mgrwt>
<rscale>  0 0.90314680E+02</rscale>
<asrwt>0</asrwt>
<pdfrwt beam="1">  1        2 0.59236708E-01 0.90314680E+02</pdfrwt>
<pdfrwt beam="2">  1       -2 0.81477759E-03 0.90314680E+02</pdfrwt>
<totfact> 0.20193715E+05</totfact>
</mgrwt>
</event>
<event>
 5    1  0.1256986E+001  0.9642570E+02  0.7546771E-02  0.1287997E+00
         -1   -1    0    0    0  501 -0.00000000000E+00  0.00000000000E+00  0.31763866780E+02  0.31763866780E+02  0.00000000000E+00 0.  1.
          1   -1    0    0  501    0  0.00000000000E+00 -0.00000000000E+00 -0.73179977222E+02  0.73179977222E+02  0.00000000000E+00 0. -1.
         23    2    1    2    0    0  0.00000000000E+00  0.00000000000E+00 -0.41416110442E+02  0.10494384400E+03  0.96425702951E+02 0.  0.
        -11    1    3    3    0    0  0.32059667716E+02 -0.17793772743E+02  0.13363009210E+02  0.39025769148E+02  0.00000000000E+00 0.  1.
         11    1    3    3    0    0 -0.32059667716E+02  0.17793772743E+02 -0.54779119652E+02  0.65918074853E+02  0.00000000000E+00 0. -1.
<mgrwt>
<rscale>  0 0.96425703E+02</rscale>
<asrwt>0</asrwt>
<pdfrwt beam="2">  1        1 0.11258458E-01 0.96425703E+02</pdfrwt>
<pdfrwt beam="1">  1       -1 0.48867488E-02 0.96425703E+02</pdfrwt>
<totfact> 0.85095053E+04</totfact>
</mgrwt>
</event>
<event>
 5    1  0.1256986E+001  0.9140738E+02  0.7546771E-02  0.1299479E+00
         -3   -1    0    0    0  501 -0.00000000000E+00  0.00000000000E+00  0.51345727786E+03  0.51345727786E+03  0.00000000000E+00 0.  1.
          3   -1    0    0  501    0  0.00000000000E+00 -0.00000000000E+00 -0.40681614625E+01  0.40681614625E+01  0.00000000000E+00 0. -1.
         23    2    1    2    0    0  0.00000000000E+00  0.00000000000E+00  0.50938911640E+03  0.51752543932E+03  0.91407376298E+02 0.  0.
        -13    1    3    3    0    0  0.83973025628E+01 -0.44912502265E+02  0.26084364391E+03  0.26481513197E+03  0.00000000000E+00 0.  1.
         13    1    3    3    0    0 -0.83973025628E+01  0.44912502265E+02  0.24854547249E+03  0.25271030735E+03  0.00000000000E+00 0. -1.
<mgrwt>
<rscale>  0 0.91407376E+02</rscale>
<asrwt>0</asrwt>
<pdfrwt beam="2">  1        3 0.62587140E-03 0.91407376E+02</pdfrwt>
<pdfrwt beam="1">  1       -3 0.78993376E-01 0.91407376E+02</pdfrwt>
<totfact> 0.17356455E+04</totfact>
</mgrwt>
</event>
<event>
 5    1  0.1256986E+001  0.8175567E+02  0.7546771E-02  0.1324142E+00
          2   -1    0    0  501    0  0.00000000000E+00  0.00000000000E+00  0.28821049712E+02  0.28821049712E+02  0.00000000000E+00 0. -1.
         -2   -1    0    0    0  501 -0.00000000000E+00 -0.00000000000E+00 -0.57978364018E+02  0.57978364018E+02  0.00000000000E+00 0.  1.
         23    2    1    2    0    0  0.00000000000E+00  0.00000000000E+00 -0.29157314306E+02  0.86799413730E+02  0.81755667977E+02 0.  0.
        -13    1    3    3    0    0 -0.95529193598E+01  0.72749090105E+01  0.26906438223E+02  0.29464198399E+02  0.00000000000E+00 0. -1.
         13    1    3    3    0    0  0.95529193598E+01 -0.72749090105E+01 -0.56063752530E+02  0.57335215331E+02  0.00000000000E+00 0.  1.
<mgrwt>
<rscale>  0 0.81755668E+02</rscale>
<asrwt>0</asrwt>
<pdfrwt beam="1">  1        2 0.44340077E-02 0.81755668E+02</pdfrwt>
<pdfrwt beam="2">  1       -2 0.89197483E-02 0.81755668E+02</pdfrwt>
<totfact> 0.12056736E+05</totfact>
</mgrwt>
</event>
<event>
 5    1  0.1256986E+001  0.9079144E+02  0.7546771E-02  0.1300946E+00
          2   -1    0    0  501    0  0.00000000000E+00  0.00000000000E+00  0.60260240506E+02  0.60260240506E+02  0.00000000000E+00 0. -1.
         -2   -1    0    0    0  501 -0.00000000000E+00 -0.00000000000E+00 -0.34197864373E+02  0.34197864373E+02  0.00000000000E+00 0.  1.
         23    2    1    2    0    0  0.00000000000E+00  0.00000000000E+00  0.26062376133E+02  0.94458104879E+02  0.90791443031E+02 0.  0.
        -11    1    3    3    0    0 -0.19454118231E+02 -0.27172507202E+01 -0.29547476774E+02  0.35480974498E+02  0.00000000000E+00 0.  1.
         11    1    3    3    0    0  0.19454118231E+02  0.27172507202E+01  0.55609852907E+02  0.58977130381E+02  0.00000000000E+00 0. -1.
<mgrwt>
<rscale>  0 0.90791443E+02</rscale>
<asrwt>0</asrwt>
<pdfrwt beam="1">  1        2 0.92708062E-02 0.90791443E+02</pdfrwt>
<pdfrwt beam="2">  1       -2 0.52612099E-02 0.90791443E+02</pdfrwt>
<totfact> 0.10746788E+05</totfact>
</mgrwt>
</event>
<event>
 5    1  0.1256986E+001  0.5860685E+02  0.7546771E-02  0.1403773E+00
         -1   -1    0    0    0  501 -0.00000000000E+00  0.00000000000E+00  0.14155682463E+02  0.14155682463E+02  0.00000000000E+00 0.  1.
          1   -1    0    0  501    0  0.00000000000E+00 -0.00000000000E+00 -0.60660494233E+02  0.60660494233E+02  0.00000000000E+00 0. -1.
         23    2    1    2    0    0  0.00000000000E+00  0.00000000000E+00 -0.46504811770E+02  0.74816176695E+02  0.58606849237E+02 0.  0.
        -11    1    3    3    0    0 -0.19399680385E+00 -0.25205378127E+02 -0.42330382460E+02  0.49266723054E+02  0.00000000000E+00 0. -1.
         11    1    3    3    0    0  0.19399680385E+00  0.25205378127E+02 -0.41744293103E+01  0.25549453641E+02  0.00000000000E+00 0.  1.
<mgrwt>
<rscale>  0 0.58606849E+02</rscale>
<asrwt>0</asrwt>
<pdfrwt beam="2">  1        1 0.93323838E-02 0.58606849E+02</pdfrwt>
<pdfrwt beam="1">  1       -1 0.21777973E-02 0.58606849E+02</pdfrwt>
<totfact> 0.31607767E+05</totfact>
</mgrwt>
</event>
<event>
 5    1  0.1256986E+001  0.9668683E+02  0.7546771E-02  0.1287421E+00
         -2   -1    0    0    0  501 -0.00000000000E+00  0.00000000000E+00  0.13500032642E+02  0.13500032642E+02  0.00000000000E+00 0. -1.
          2   -1    0    0  501    0  0.00000000000E+00 -0.00000000000E+00 -0.17311704057E+03  0.17311704057E+03  0.00000000000E+00 0.  1.
         23    2    1    2    0    0  0.00000000000E+00  0.00000000000E+00 -0.15961700793E+03  0.18661707321E+03  0.96686828443E+02 0.  0.
        -13    1    3    3    0    0  0.31839911181E+01  0.47114485856E+02 -0.59827054002E+02  0.76218035710E+02  0.00000000000E+00 0. -1.
         13    1    3    3    0    0 -0.31839911181E+01 -0.47114485856E+02 -0.99789953926E+02  0.11039903750E+03  0.00000000000E+00 0.  1.
<mgrwt>
<rscale>  0 0.96686828E+02</rscale>
<asrwt>0</asrwt>
<pdfrwt beam="2">  1        2 0.26633389E-01 0.96686828E+02</pdfrwt>
<pdfrwt beam="1">  1       -2 0.20769282E-02 0.96686828E+02</pdfrwt>
<totfact> 0.12527984E+05</totfact>
</mgrwt>
</event>
<event>
 5    1  0.1256986E+001  0.9026907E+02  0.7546771E-02  0.1302201E+00
          1   -1    0    0  501    0  0.00000000000E+00  0.00000000000E+00  0.99262964875E+02  0.99262964875E+02  0.00000000000E+00 0. -1.
         -1   -1    0    0    0  501 -0.00000000000E+00 -0.00000000000E+00 -0.20522519619E+02  0.20522519619E+02  0.00000000000E+00 0.  1.
         23    2    1    2    0    0  0.00000000000E+00  0.00000000000E+00  0.78740445256E+02  0.11978548449E+03  0.90269067660E+02 0.  0.
        -11    1    3    3    0    0 -0.21689891927E+02 -0.38083257127E+02  0.25057236517E+02  0.50484165706E+02  0.00000000000E+00 0.  1.
         11    1    3    3    0    0  0.21689891927E+02  0.38083257127E+02  0.53683208739E+02  0.69301318788E+02  0.00000000000E+00 0. -1.
<mgrwt>
<rscale>  0 0.90269068E+02</rscale>
<asrwt>0</asrwt>
<pdfrwt beam="1">  1        1 0.15271225E-01 0.90269068E+02</pdfrwt>
<pdfrwt beam="2">  1       -1 0.31573108E-02 0.90269068E+02</pdfrwt>
<totfact> 0.10720507E+05</totfact>
</mgrwt>
</event>
<event>
 5    1  0.1256986E+001  0.9121730E+02  0.7546771E-02  0.1299930E+00
          2   -1    0    0  501    0  0.00000000000E+00  0.00000000000E+00  0.52689742648E+02  0.52689742648E+02  0.00000000000E+00 0. -1.
         -2   -1    0    0    0  501 -0.00000000000E+00 -0.00000000000E+00 -0.39479199221E+02  0.39479199221E+02  0.00000000000E+00 0.  1.
         23    2    1    2    0    0  0.00000000000E+00  0.00000000000E+00  0.13210543427E+02  0.92168941869E+02  0.91217297634E+02 0.  0.
        -13    1    3    3    0    0 -0.35863169737E+02 -0.14960874958E+02  0.30732283408E+02  0.49542587403E+02  0.00000000000E+00 0. -1.
         13    1    3    3    0    0  0.35863169737E+02  0.14960874958E+02 -0.17521739981E+02  0.42626354466E+02  0.00000000000E+00 0.  1.
<mgrwt>
<rscale>  0 0.91217298E+02</rscale>
<asrwt>0</asrwt>
<pdfrwt beam="1">  1        2 0.81061142E-02 0.91217298E+02</pdfrwt>
<pdfrwt beam="2">  1       -2 0.60737230E-02 0.91217298E+02</pdfrwt>
<totfact> 0.10234600E+05</totfact>
</mgrwt>
</event>
<event>
 5    1  0.1256986E+001  0.1128501E+03  0.7546771E-02  0.1255381E+00
         -2   -1    0    0    0  501 -0.00000000000E+00  0.00000000000E+00  0.10724894971E+02  0.10724894971E+02  0.00000000000E+00 0. -1.
          2   -1    0    0  501    0  0.00000000000E+00 -0.00000000000E+00 -0.29685924637E+03  0.29685924637E+03  0.00000000000E+00 0.  1.
         23    2    1    2    0    0  0.00000000000E+00  0.00000000000E+00 -0.28613435140E+03  0.30758414134E+03  0.11285006404E+03 0.  0.
        -13    1    3    3    0    0 -0.16370526512E+02 -0.38668357450E+02 -0.40338870752E+02  0.58227660950E+02  0.00000000000E+00 0. -1.
         13    1    3    3    0    0  0.16370526512E+02  0.38668357450E+02 -0.24579548065E+03  0.24935648039E+03  0.00000000000E+00 0.  1.
<mgrwt>
<rscale>  0 0.11285006E+03</rscale>
<asrwt>0</asrwt>
<pdfrwt beam="2">  1        2 0.45670653E-01 0.11285006E+03</pdfrwt>
<pdfrwt beam="1">  1       -2 0.16499839E-02 0.11285006E+03</pdfrwt>
<totfact> 0.10058111E+05</totfact>
</mgrwt>
</event>
<event>
 5    1  0.1256986E+001  0.9269602E+02  0.7546771E-02  0.1296451E+00
          2   -1    0    0  501    0  0.00000000000E+00  0.00000000000E+00  0.16743213620E+03  0.16743213620E+03  0.00000000000E+00 0. -1.
         -2   -1    0    0    0  501 -0.00000000000E+00 -0.00000000000E+00 -0.12829902687E+02  0.12829902687E+02  0.00000000000E+00 0.  1.
         23    2    1    2    0    0  0.00000000000E+00  0.00000000000E+00  0.15460223352E+03  0.18026203889E+03  0.92696019637E+02 0.  0.
        -11    1    3    3    0    0  0.15843817845E+02  0.36892017460E+02  0.12232700072E+03  0.12874759268E+03  0.00000000000E+00 0. -1.
         11    1    3    3    0    0 -0.15843817845E+02 -0.36892017460E+02  0.32275232800E+02  0.51514446211E+02  0.00000000000E+00 0.  1.
<mgrwt>
<rscale>  0 0.92696020E+02</rscale>
<asrwt>0</asrwt>
<pdfrwt beam="1">  1        2 0.25758789E-01 0.92696020E+02</pdfrwt>
<pdfrwt beam="2">  1       -2 0.19738313E-02 0.92696020E+02</pdfrwt>
<totfact> 0.13884566E+05</totfact>
</mgrwt>
</event>
<event>
 5    1  0.1256986E+001  0.9136288E+02  0.7546771E-02  0.1299584E+00
         -2   -1    0    0    0  501 -0.00000000000E+00  0.00000000000E+00  0.24328637531E+02  0.24328637531E+02  0.00000000000E+00 0. -1.
          2   -1    0    0  501    0  0.00000000000E+00 -0.00000000000E+00 -0.85775209842E+02  0.85775209842E+02  0.00000000000E+00 0.  1.
         23    2    1    2    0    0  0.00000000000E+00  0.00000000000E+00 -0.61446572311E+02  0.11010384737E+03  0.91362880633E+02 0.  0.
        -11    1    3    3    0    0  0.21638650779E+02  0.38717587123E+02 -0.43897874903E+02  0.62404376298E+02  0.00000000000E+00 0.  1.
         11    1    3    3    0    0 -0.21638650779E+02 -0.38717587123E+02 -0.17548697409E+02  0.47699471075E+02  0.00000000000E+00 0. -1.
<mgrwt>
<rscale>  0 0.91362881E+02</rscale>
<asrwt>0</asrwt>
<pdfrwt beam="2">  1        2 0.13196186E-01 0.91362881E+02</pdfrwt>
<pdfrwt beam="1">  1       -2 0.37428674E-02 0.91362881E+02</pdfrwt>
<totfact> 0.11653073E+05</totfact>
</mgrwt>
</event>
<event>
 4    1  0.1256986E+001  0.4802498E+02  0.7546771E-02  0.1456295E+00
         -2   -1    0    0    0  501 -0.00000000000E+00  0.00000000000E+00  0.16186553147E+02  0.16186553147E+02  0.00000000000E+00 0. -1.
          2   -1    0    0  501    0  0.00000000000E+00 -0.00000000000E+00 -0.35622138709E+02  0.35622138709E+02  0.00000000000E+00 0.  1.
        -13    1    1    2    0    0 -0.12068271103E+00 -0.16870558242E+02  0.87155488624E+01  0.18989236206E+02  0.00000000000E+00 0. -1.
         13    1    1    2    0    0  0.12068271103E+00  0.16870558242E+02 -0.28151134425E+02  0.32819455650E+02  0.00000000000E+00 0.  1.
<mgrwt>
<rscale>  0 0.48024979E+02</rscale>
<asrwt>0</asrwt>
<pdfrwt beam="2">  1        2 0.54803290E-02 0.48024979E+02</pdfrwt>
<pdfrwt beam="1">  1       -2 0.24902390E-02 0.48024979E+02</pdfrwt>
<totfact> 0.53605118E+05</totfact>
</mgrwt>
</event>
<event>
 5    1  0.1256986E+001  0.9121674E+02  0.7546771E-02  0.1299932E+00
          1   -1    0    0  501    0  0.00000000000E+00  0.00000000000E+00  0.22620192552E+02  0.22620192552E+02  0.00000000000E+00 0. -1.
         -1   -1    0    0    0  501 -0.00000000000E+00 -0.00000000000E+00 -0.91958705660E+02  0.91958705660E+02  0.00000000000E+00 0.  1.
         23    2    1    2    0    0  0.00000000000E+00  0.00000000000E+00 -0.69338513108E+02  0.11457889821E+03  0.91216744710E+02 0.  0.
        -13    1    3    3    0    0 -0.27143617950E+02 -0.33844986936E+02 -0.52338339337E+02  0.67982063080E+02  0.00000000000E+00 0. -1.
         13    1    3    3    0    0  0.27143617950E+02  0.33844986936E+02 -0.17000173771E+02  0.46596835132E+02  0.00000000000E+00 0.  1.
<mgrwt>
<rscale>  0 0.91216745E+02</rscale>
<asrwt>0</asrwt>
<pdfrwt beam="1">  1        1 0.34800296E-02 0.91216745E+02</pdfrwt>
<pdfrwt beam="2">  1       -1 0.14147493E-01 0.91216745E+02</pdfrwt>
<totfact> 0.82531548E+04</totfact>
</mgrwt>
</event>
<event>
 5    1  0.1256986E+001  0.9276043E+02  0.7546771E-02  0.1296301E+00
         -3   -1    0    0    0  501 -0.00000000000E+00  0.00000000000E+00  0.25099583168E+03  0.25099583168E+03  0.00000000000E+00 0.  1.
          3   -1    0    0  501    0  0.00000000000E+00 -0.00000000000E+00 -0.85703587813E+01  0.85703587813E+01  0.00000000000E+00 0. -1.
         23    2    1    2    0    0  0.00000000000E+00  0.00000000000E+00  0.24242547290E+03  0.25956619046E+03  0.92760429712E+02 0.  0.
        -11    1    3    3    0    0 -0.48294697257E+01 -0.44817330774E+02  0.90660922135E+02  0.10124880107E+03  0.00000000000E+00 0. -1.
         11    1    3    3    0    0  0.48294697257E+01  0.44817330774E+02  0.15176455076E+03  0.15831738939E+03  0.00000000000E+00 0.  1.
<mgrwt>
<rscale>  0 0.92760430E+02</rscale>
<asrwt>0</asrwt>
<pdfrwt beam="2">  1        3 0.13185169E-02 0.92760430E+02</pdfrwt>
<pdfrwt beam="1">  1       -3 0.38614738E-01 0.92760430E+02</pdfrwt>
<totfact> 0.24515279E+04</totfact>
</mgrwt>
</event>
<event>
 5    1  0.1256986E+001  0.9129526E+02  0.7546771E-02  0.1299745E+00
          2   -1    0    0  501    0  0.00000000000E+00  0.00000000000E+00  0.32855636310E+03  0.32855636310E+03  0.00000000000E+00 0. -1.
         -2   -1    0    0    0  501 -0.00000000000E+00 -0.00000000000E+00 -0.63420046211E+01  0.63420046211E+01  0.00000000000E+00 0.  1.
         23    2    1    2    0    0  0.00000000000E+00  0.00000000000E+00  0.32221435848E+03  0.33489836772E+03  0.91295256679E+02 0.  0.
        -11    1    3    3    0    0 -0.17133911901E+02 -0.41945322262E+02  0.18144060692E+03  0.18701249915E+03  0.00000000000E+00 0.  1.
         11    1    3    3    0    0  0.17133911901E+02  0.41945322262E+02  0.14077375155E+03  0.14788586857E+03  0.00000000000E+00 0. -1.
<mgrwt>
<rscale>  0 0.91295257E+02</rscale>
<asrwt>0</asrwt>
<pdfrwt beam="1">  1        2 0.50547120E-01 0.91295257E+02</pdfrwt>
<pdfrwt beam="2">  1       -2 0.97569327E-03 0.91295257E+02</pdfrwt>
<totfact> 0.18518357E+05</totfact>
</mgrwt>
</event>
<event>
 5    1  0.1256986E+001  0.9155786E+02  0.7546771E-02  0.1299122E+00
         -2   -1    0    0    0  501 -0.00000000000E+00  0.00000000000E+00  0.94113535978E+02  0.94113535978E+02  0.00000000000E+00 0.  1.
          2   -1    0    0  501    0  0.00000000000E+00 -0.00000000000E+00 -0.22267896246E+02  0.22267896246E+02  0.00000000000E+00 0. -1.
         23    2    1    2    0    0  0.00000000000E+00  0.00000000000E+00  0.71845639732E+02  0.11638143222E+03  0.91557860492E+02 0.  0.
        -11    1    3    3    0    0 -0.27082505643E+02  0.36595124992E+02  0.42024901517E+02  0.61957708419E+02  0.00000000000E+00 0. -1.
         11    1    3    3    0    0  0.27082505643E+02 -0.36595124992E+02  0.29820738215E+02  0.54423723804E+02  0.00000000000E+00 0.  1.
<mgrwt>
<rscale>  0 0.91557860E+02</rscale>
<asrwt>0</asrwt>
<pdfrwt beam="2">  1        2 0.34258302E-02 0.91557860E+02</pdfrwt>
<pdfrwt beam="1">  1       -2 0.14479005E-01 0.91557860E+02</pdfrwt>
<totfact> 0.80410207E+04</totfact>
</mgrwt>
</event>
<event>
 5    1  0.1256986E+001  0.9497213E+02  0.7546771E-02  0.1291239E+00
          4   -1    0    0  501    0  0.00000000000E+00  0.00000000000E+00  0.76305547007E+02  0.76305547007E+02  0.00000000000E+00 0. -1.
         -4   -1    0    0    0  501 -0.00000000000E+00 -0.00000000000E+00 -0.29551279867E+02  0.29551279867E+02  0.00000000000E+00 0.  1.
         23    2    1    2    0    0  0.00000000000E+00  0.00000000000E+00  0.46754267140E+02  0.10585682687E+03  0.94972134335E+02 0.  0.
        -13    1    3    3    0    0 -0.64162661334E+01  0.23177933231E+02 -0.22261205381E+02  0.32771120288E+02  0.00000000000E+00 0.  1.
         13    1    3    3    0    0  0.64162661334E+01 -0.23177933231E+02  0.69015472521E+02  0.73085706586E+02  0.00000000000E+00 0. -1.
<mgrwt>
<rscale>  0 0.94972134E+02</rscale>
<asrwt>0</asrwt>
<pdfrwt beam="1">  1        4 0.11739315E-01 0.94972134E+02</pdfrwt>
<pdfrwt beam="2">  1       -4 0.45463508E-02 0.94972134E+02</pdfrwt>
<totfact> 0.23359878E+04</totfact>
</mgrwt>
</event>
<event>
 5    1  0.1256986E+001  0.8343854E+02  0.7546771E-02  0.1319567E+00
          4   -1    0    0  501    0  0.00000000000E+00  0.00000000000E+00  0.67369424248E+01  0.67369424248E+01  0.00000000000E+00 0. -1.
         -4   -1    0    0    0  501 -0.00000000000E+00 -0.00000000000E+00 -0.25835125094E+03  0.25835125094E+03  0.00000000000E+00 0.  1.
         23    2    1    2    0    0  0.00000000000E+00  0.00000000000E+00 -0.25161430851E+03  0.26508819336E+03  0.83438540326E+02 0.  0.
        -13    1    3    3    0    0 -0.36511791068E+02  0.13243112102E+02 -0.17419918586E+03  0.17847646136E+03  0.00000000000E+00 0. -1.
         13    1    3    3    0    0  0.36511791068E+02 -0.13243112102E+02 -0.77415122652E+02  0.86611732002E+02  0.00000000000E+00 0.  1.
<mgrwt>
<rscale>  0 0.83438540E+02</rscale>
<asrwt>0</asrwt>
<pdfrwt beam="1">  1        4 0.10364529E-02 0.83438540E+02</pdfrwt>
<pdfrwt beam="2">  1       -4 0.39746336E-01 0.83438540E+02</pdfrwt>
<totfact> 0.23947535E+04</totfact>
</mgrwt>
</event>
<event>
 5    1  0.1256986E+001  0.9159079E+02  0.7546771E-02  0.1299044E+00
         -1   -1    0    0    0  501 -0.00000000000E+00  0.00000000000E+00  0.75306025318E+02  0.75306025318E+02  0.00000000000E+00 0.  1.
          1   -1    0    0  501    0  0.00000000000E+00 -0.00000000000E+00 -0.27849276651E+02  0.27849276651E+02  0.00000000000E+00 0. -1.
         23    2    1    2    0    0  0.00000000000E+00  0.00000000000E+00  0.47456748668E+02  0.10315530197E+03  0.91590792824E+02 0.  0.
        -11    1    3    3    0    0 -0.11530232902E+02 -0.41141943598E+02  0.42289941611E+02  0.60116927360E+02  0.00000000000E+00 0.  1.
         11    1    3    3    0    0  0.11530232902E+02  0.41141943598E+02  0.51668070570E+01  0.43038374609E+02  0.00000000000E+00 0. -1.
<mgrwt>
<rscale>  0 0.91590793E+02</rscale>
<asrwt>0</asrwt>
<pdfrwt beam="2">  1        1 0.42845041E-02 0.91590793E+02</pdfrwt>
<pdfrwt beam="1">  1       -1 0.11585542E-01 0.91590793E+02</pdfrwt>
<totfact> 0.84526036E+04</totfact>
</mgrwt>
</event>
<event>
 5    1  0.1256986E+001  0.1155444E+03  0.7546771E-02  0.1250634E+00
          2   -1    0    0  501    0  0.00000000000E+00  0.00000000000E+00  0.15000362863E+02  0.15000362863E+02  0.00000000000E+00 0.  1.
         -2   -1    0    0    0  501 -0.00000000000E+00 -0.00000000000E+00 -0.22250303323E+03  0.22250303323E+03  0.00000000000E+00 0. -1.
         23    2    1    2    0    0  0.00000000000E+00  0.00000000000E+00 -0.20750267037E+03  0.23750339610E+03  0.11554438518E+03 0.  0.
        -11    1    3    3    0    0  0.21874508697E+01  0.52608258869E+02 -0.15261958848E+03  0.16144705829E+03  0.00000000000E+00 0. -1.
         11    1    3    3    0    0 -0.21874508697E+01 -0.52608258869E+02 -0.54883081886E+02  0.76056337802E+02  0.00000000000E+00 0.  1.
<mgrwt>
<rscale>  0 0.11554439E+03</rscale>
<asrwt>0</asrwt>
<pdfrwt beam="1">  1        2 0.23077480E-02 0.11554439E+03</pdfrwt>
<pdfrwt beam="2">  1       -2 0.34231237E-01 0.11554439E+03</pdfrwt>
<totfact> 0.32335500E+04</totfact>
</mgrwt>
</event>
<event>
 5    1  0.1256986E+001  0.9511698E+02  0.7546771E-02  0.1290913E+00
          1   -1    0    0  501    0  0.00000000000E+00  0.00000000000E+00  0.11865210848E+03  0.11865210848E+03  0.00000000000E+00 0. -1.
         -1   -1    0    0    0  501 -0.00000000000E+00 -0.00000000000E+00 -0.19062533359E+02  0.19062533359E+02  0.00000000000E+00 0.  1.
         23    2    1    2    0    0  0.00000000000E+00  0.00000000000E+00  0.99589575125E+02  0.13771464184E+03  0.95116975899E+02 0.  0.
        -13    1    3    3    0    0 -0.14620638664E+02 -0.23389432485E+02  0.10588792112E+03  0.10942157221E+03  0.00000000000E+00 0. -1.
         13    1    3    3    0    0  0.14620638664E+02  0.23389432485E+02 -0.62983459915E+01  0.28293069631E+02  0.00000000000E+00 0.  1.
<mgrwt>
<rscale>  0 0.95116976E+02</rscale>
<asrwt>0</asrwt>
<pdfrwt beam="1">  1        1 0.18254170E-01 0.95116976E+02</pdfrwt>
<pdfrwt beam="2">  1       -1 0.29326975E-02 0.95116976E+02</pdfrwt>
<totfact> 0.95830397E+04</totfact>
</mgrwt>
</event>
<event>
 5    1  0.1256986E+001  0.9005669E+02  0.7546771E-02  0.1302714E+00
         -2   -1    0    0    0  501 -0.00000000000E+00  0.00000000000E+00  0.84255807411E+01  0.84255807411E+01  0.00000000000E+00 0.  1.
          2   -1    0    0  501    0  0.00000000000E+00 -0.00000000000E+00 -0.24064238047E+03  0.24064238047E+03  0.00000000000E+00 0. -1.
         23    2    1    2    0    0  0.00000000000E+00  0.00000000000E+00 -0.23221679973E+03  0.24906796122E+03  0.90056688956E+02 0.  0.
        -13    1    3    3    0    0 -0.41697789515E+02  0.15106009038E+02 -0.13764781614E+03  0.14461610715E+03  0.00000000000E+00 0.  1.
         13    1    3    3    0    0  0.41697789515E+02 -0.15106009038E+02 -0.94568983590E+02  0.10445185406E+03  0.00000000000E+00 0. -1.
<mgrwt>
<rscale>  0 0.90056689E+02</rscale>
<asrwt>0</asrwt>
<pdfrwt beam="2">  1        2 0.37021907E-01 0.90056689E+02</pdfrwt>
<pdfrwt beam="1">  1       -2 0.12962431E-02 0.90056689E+02</pdfrwt>
<totfact> 0.17107862E+05</totfact>
</mgrwt>
</event>
<event>
 5    1  0.1256986E+001  0.9113626E+02  0.7546771E-02  0.1300123E+00
          2   -1    0    0  501    0  0.00000000000E+00  0.00000000000E+00  0.83890293226E+02  0.83890293226E+02  0.00000000000E+00 0. -1.
         -2   -1    0    0    0  501 -0.00000000000E+00 -0.00000000000E+00 -0.24752025006E+02  0.24752025006E+02  0.00000000000E+00 0.  1.
         23    2    1    2    0    0  0.00000000000E+00  0.00000000000E+00  0.59138268220E+02  0.10864231823E+03  0.91136263598E+02 0.  0.
        -13    1    3    3    0    0  0.10106517535E+02 -0.42689992121E+02  0.14878026455E+02  0.46324213919E+02  0.00000000000E+00 0.  1.
         13    1    3    3    0    0 -0.10106517535E+02  0.42689992121E+02  0.44260241765E+02  0.62318104313E+02  0.00000000000E+00 0. -1.
<mgrwt>
<rscale>  0 0.91136264E+02</rscale>
<asrwt>0</asrwt>
<pdfrwt beam="1">  1        2 0.12906199E-01 0.91136264E+02</pdfrwt>
<pdfrwt beam="2">  1       -2 0.38080039E-02 0.91136264E+02</pdfrwt>
<totfact> 0.11658024E+05</totfact>
</mgrwt>
</event>
<event>
 5    1  0.1256986E+001  0.9019218E+02  0.7546771E-02  0.1302387E+00
          2   -1    0    0  501    0  0.00000000000E+00  0.00000000000E+00  0.12671622845E+03  0.12671622845E+03  0.00000000000E+00 0. -1.
         -2   -1    0    0    0  501 -0.00000000000E+00 -0.00000000000E+00 -0.16048911607E+02  0.16048911607E+02  0.00000000000E+00 0.  1.
         23    2    1    2    0    0  0.00000000000E+00  0.00000000000E+00  0.11066731685E+03  0.14276514006E+03  0.90192184797E+02 0.  0.
        -13    1    3    3    0    0  0.18380720079E+02 -0.27780412440E+02  0.72162460004E+01  0.34083374133E+02  0.00000000000E+00 0.  1.
         13    1    3    3    0    0 -0.18380720079E+02  0.27780412440E+02  0.10345107084E+03  0.10868176593E+03  0.00000000000E+00 0. -1.
<mgrwt>
<rscale>  0 0.90192185E+02</rscale>
<asrwt>0</asrwt>
<pdfrwt beam="1">  1        2 0.19494804E-01 0.90192185E+02</pdfrwt>
<pdfrwt beam="2">  1       -2 0.24690634E-02 0.90192185E+02</pdfrwt>
<totfact> 0.13613958E+05</totfact>
</mgrwt>
</event>
<event>
 5    1  0.1256986E+001  0.9107599E+02  0.7546771E-02  0.1300267E+00
         -1   -1    0    0    0  501 -0.00000000000E+00  0.00000000000E+00  0.70544661841E+01  0.70544661841E+01  0.00000000000E+00 0.  1.
          1   -1    0    0  501    0  0.00000000000E+00 -0.00000000000E+00 -0.29395691443E+03  0.29395691443E+03  0.00000000000E+00 0. -1.
         23    2    1    2    0    0  0.00000000000E+00  0.00000000000E+00 -0.28690244824E+03  0.30101138061E+03  0.91075992719E+02 0.  0.
        -13    1    3    3    0    0  0.30018178469E+02  0.33640320107E+02 -0.16460021800E+03  0.17066339368E+03  0.00000000000E+00 0.  1.
         13    1    3    3    0    0 -0.30018178469E+02 -0.33640320107E+02 -0.12230223024E+03  0.13034798693E+03  0.00000000000E+00 0. -1.
<mgrwt>
<rscale>  0 0.91075993E+02</rscale>
<asrwt>0</asrwt>
<pdfrwt beam="2">  1        1 0.45224143E-01 0.91075993E+02</pdfrwt>
<pdfrwt beam="1">  1       -1 0.10853024E-02 0.91075993E+02</pdfrwt>
<totfact> 0.12800166E+05</totfact>
</mgrwt>
</event>
<event>
 5    1  0.1256986E+001  0.9078759E+02  0.7546771E-02  0.1300956E+00
         -3   -1    0    0    0  501 -0.00000000000E+00  0.00000000000E+00  0.13665327420E+03  0.13665327420E+03  0.00000000000E+00 0.  1.
          3   -1    0    0  501    0  0.00000000000E+00 -0.00000000000E+00 -0.15079014475E+02  0.15079014475E+02  0.00000000000E+00 0. -1.
         23    2    1    2    0    0  0.00000000000E+00  0.00000000000E+00  0.12157425972E+03  0.15173228867E+03  0.90787591656E+02 0.  0.
        -13    1    3    3    0    0  0.33996681379E+02  0.85745561323E+01  0.12600091882E+02  0.37256672866E+02  0.00000000000E+00 0. -1.
         13    1    3    3    0    0 -0.33996681379E+02 -0.85745561323E+01  0.10897416784E+03  0.11447561580E+03  0.00000000000E+00 0.  1.
<mgrwt>
<rscale>  0 0.90787592E+02</rscale>
<asrwt>0</asrwt>
<pdfrwt beam="2">  1        3 0.23198485E-02 0.90787592E+02</pdfrwt>
<pdfrwt beam="1">  1       -3 0.21023580E-01 0.90787592E+02</pdfrwt>
<totfact> 0.31565713E+04</totfact>
</mgrwt>
</event>
<event>
 5    1  0.1256986E+001  0.9091472E+02  0.7546771E-02  0.1300652E+00
          2   -1    0    0  501    0  0.00000000000E+00  0.00000000000E+00  0.84394138391E+02  0.84394138391E+02  0.00000000000E+00 0. -1.
         -2   -1    0    0    0  501 -0.00000000000E+00 -0.00000000000E+00 -0.24484774139E+02  0.24484774139E+02  0.00000000000E+00 0.  1.
         23    2    1    2    0    0  0.00000000000E+00  0.00000000000E+00  0.59909364253E+02  0.10887891253E+03  0.90914716457E+02 0.  0.
        -11    1    3    3    0    0  0.36976951776E+01  0.45211211642E+02  0.33475854585E+02  0.56376940747E+02  0.00000000000E+00 0.  1.
         11    1    3    3    0    0 -0.36976951776E+01 -0.45211211642E+02  0.26433509668E+02  0.52501971783E+02  0.00000000000E+00 0. -1.
<mgrwt>
<rscale>  0 0.90914716E+02</rscale>
<asrwt>0</asrwt>
<pdfrwt beam="1">  1        2 0.12983713E-01 0.90914716E+02</pdfrwt>
<pdfrwt beam="2">  1       -2 0.37668884E-02 0.90914716E+02</pdfrwt>
<totfact> 0.11757349E+05</totfact>
</mgrwt>
</event>
<event>
 5    1  0.1256986E+001  0.9080565E+02  0.7546771E-02  0.1300912E+00
          4   -1    0    0  501    0  0.00000000000E+00  0.00000000000E+00  0.37532654821E+02  0.37532654821E+02  0.00000000000E+00 0. -1.
         -4   -1    0    0    0  501 -0.00000000000E+00 -0.00000000000E+00 -0.54923282026E+02  0.54923282026E+02  0.00000000000E+00 0.  1.
         23    2    1    2    0    0  0.00000000000E+00  0.00000000000E+00 -0.17390627205E+02  0.92455936847E+02  0.90805651496E+02 0.  0.
        -13    1    3    3    0    0 -0.96794513495E+01 -0.33142419730E+02 -0.38715125680E+02  0.51874586460E+02  0.00000000000E+00 0.  1.
         13    1    3    3    0    0  0.96794513495E+01  0.33142419730E+02  0.21324498475E+02  0.40581350387E+02  0.00000000000E+00 0. -1.
<mgrwt>
<rscale>  0 0.90805651E+02</rscale>
<asrwt>0</asrwt>
<pdfrwt beam="1">  1        4 0.57742546E-02 0.90805651E+02</pdfrwt>
<pdfrwt beam="2">  1       -4 0.84497356E-02 0.90805651E+02</pdfrwt>
<totfact> 0.27233876E+04</totfact>
</mgrwt>
</event>
<event>
 5    1  0.1256986E+001  0.8747950E+02  0.7546771E-02  0.1309073E+00
          2   -1    0    0  501    0  0.00000000000E+00  0.00000000000E+00  0.81905172114E+02  0.81905172114E+02  0.00000000000E+00 0. -1.
         -2   -1    0    0    0  501 -0.00000000000E+00 -0.00000000000E+00 -0.23358301370E+02  0.23358301370E+02  0.00000000000E+00 0.  1.
         23    2    1    2    0    0  0.00000000000E+00  0.00000000000E+00  0.58546870744E+02  0.10526347348E+03  0.87479499175E+02 0.  0.
        -11    1    3    3    0    0 -0.86559805199E+01 -0.22195914159E+02  0.73412827338E+02  0.77181784262E+02  0.00000000000E+00 0. -1.
         11    1    3    3    0    0  0.86559805199E+01  0.22195914159E+02 -0.14865956594E+02  0.28081689222E+02  0.00000000000E+00 0.  1.
<mgrwt>
<rscale>  0 0.87479499E+02</rscale>
<asrwt>0</asrwt>
<pdfrwt beam="1">  1        2 0.12600796E-01 0.87479499E+02</pdfrwt>
<pdfrwt beam="2">  1       -2 0.35935849E-02 0.87479499E+02</pdfrwt>
<totfact> 0.12965690E+05</totfact>
</mgrwt>
</event>
<event>
 5    1  0.1256986E+001  0.9647656E+02  0.7546771E-02  0.1287885E+00
         -3   -1    0    0    0  501 -0.00000000000E+00  0.00000000000E+00  0.72779895632E+02  0.72779895632E+02  0.00000000000E+00 0.  1.
          3   -1    0    0  501    0  0.00000000000E+00 -0.00000000000E+00 -0.31972174024E+02  0.31972174024E+02  0.00000000000E+00 0. -1.
         23    2    1    2    0    0  0.00000000000E+00  0.00000000000E+00  0.40807721607E+02  0.10475206966E+03  0.96476556502E+02 0.  0.
        -11    1    3    3    0    0  0.23304904531E+02 -0.19213561490E+02  0.61241969664E+02  0.68285125529E+02  0.00000000000E+00 0.  1.
         11    1    3    3    0    0 -0.23304904531E+02  0.19213561490E+02 -0.20434248056E+02  0.36466944126E+02  0.00000000000E+00 0. -1.
<mgrwt>
<rscale>  0 0.96476557E+02</rscale>
<asrwt>0</asrwt>
<pdfrwt beam="2">  1        3 0.49187960E-02 0.96476557E+02</pdfrwt>
<pdfrwt beam="1">  1       -3 0.11196907E-01 0.96476557E+02</pdfrwt>
<totfact> 0.29411778E+04</totfact>
</mgrwt>
</event>
<event>
 5    1  0.1256986E+001  0.9114308E+02  0.7546771E-02  0.1300107E+00
         -1   -1    0    0    0  501 -0.00000000000E+00  0.00000000000E+00  0.44570387441E+01  0.44570387441E+01  0.00000000000E+00 0.  1.
          1   -1    0    0  501    0  0.00000000000E+00 -0.00000000000E+00 -0.46595177764E+03  0.46595177764E+03  0.00000000000E+00 0. -1.
         23    2    1    2    0    0  0.00000000000E+00  0.00000000000E+00 -0.46149473890E+03  0.47040881638E+03  0.91143077101E+02 0.  0.
        -13    1    3    3    0    0  0.45378629105E+02  0.41709592396E+01 -0.23273457337E+03  0.23715395532E+03  0.00000000000E+00 0.  1.
         13    1    3    3    0    0 -0.45378629105E+02 -0.41709592396E+01 -0.22876016553E+03  0.23325486107E+03  0.00000000000E+00 0. -1.
<mgrwt>
<rscale>  0 0.91143077E+02</rscale>
<asrwt>0</asrwt>
<pdfrwt beam="2">  1        1 0.71684867E-01 0.91143077E+02</pdfrwt>
<pdfrwt beam="1">  1       -1 0.68569848E-03 0.91143077E+02</pdfrwt>
<totfact> 0.13816014E+05</totfact>
</mgrwt>
</event>
<event>
 5    1  0.1256986E+001  0.9328583E+02  0.7546771E-02  0.1295084E+00
          2   -1    0    0  501    0  0.00000000000E+00  0.00000000000E+00  0.11538530876E+02  0.11538530876E+02  0.00000000000E+00 0.  1.
         -2   -1    0    0    0  501 -0.00000000000E+00 -0.00000000000E+00 -0.18854752223E+03  0.18854752223E+03  0.00000000000E+00 0. -1.
         23    2    1    2    0    0  0.00000000000E+00  0.00000000000E+00 -0.17700899136E+03  0.20008605311E+03  0.93285827580E+02 0.  0.
        -13    1    3    3    0    0 -0.45972215305E+02  0.14920886138E+01 -0.71905564972E+02  0.85358544871E+02  0.00000000000E+00 0. -1.
         13    1    3    3    0    0  0.45972215305E+02 -0.14920886138E+01 -0.10510342639E+03  0.11472750824E+03  0.00000000000E+00 0.  1.
<mgrwt>
<rscale>  0 0.93285828E+02</rscale>
<asrwt>0</asrwt>
<pdfrwt beam="1">  1        2 0.17751587E-02 0.93285828E+02</pdfrwt>
<pdfrwt beam="2">  1       -2 0.29007309E-01 0.93285828E+02</pdfrwt>
<totfact> 0.60278512E+04</totfact>
</mgrwt>
</event>
<event>
 5    1  0.1256986E+001  0.8881350E+02  0.7546771E-02  0.1305751E+00
          1   -1    0    0  501    0  0.00000000000E+00  0.00000000000E+00  0.19529422466E+03  0.19529422466E+03  0.00000000000E+00 0. -1.
         -1   -1    0    0    0  501 -0.00000000000E+00 -0.00000000000E+00 -0.10097376493E+02  0.10097376493E+02  0.00000000000E+00 0.  1.
         23    2    1    2    0    0  0.00000000000E+00  0.00000000000E+00  0.18519684816E+03  0.20539160115E+03  0.88813497020E+02 0.  0.
        -13    1    3    3    0    0  0.95349336663E+01  0.35337790169E+02  0.34447030302E+02  0.50262036078E+02  0.00000000000E+00 0.  1.
         13    1    3    3    0    0 -0.95349336663E+01 -0.35337790169E+02  0.15074981786E+03  0.15512956507E+03  0.00000000000E+00 0. -1.
<mgrwt>
<rscale>  0 0.88813497E+02</rscale>
<asrwt>0</asrwt>
<pdfrwt beam="1">  1        1 0.30045262E-01 0.88813497E+02</pdfrwt>
<pdfrwt beam="2">  1       -1 0.15534427E-02 0.88813497E+02</pdfrwt>
<totfact> 0.12644673E+05</totfact>
</mgrwt>
</event>
<event>
 5    1  0.1256986E+001  0.9021996E+02  0.7546771E-02  0.1302320E+00
          1   -1    0    0  501    0  0.00000000000E+00  0.00000000000E+00  0.54607260637E+02  0.54607260637E+02  0.00000000000E+00 0. -1.
         -1   -1    0    0    0  501 -0.00000000000E+00 -0.00000000000E+00 -0.37264466673E+02  0.37264466673E+02  0.00000000000E+00 0.  1.
         23    2    1    2    0    0  0.00000000000E+00  0.00000000000E+00  0.17342793964E+02  0.91871727311E+02  0.90219963293E+02 0.  0.
        -13    1    3    3    0    0  0.12680503996E+02 -0.30852898580E+02 -0.22252560706E+02  0.40098291614E+02  0.00000000000E+00 0.  1.
         13    1    3    3    0    0 -0.12680503996E+02  0.30852898580E+02  0.39595354670E+02  0.51773435696E+02  0.00000000000E+00 0. -1.
<mgrwt>
<rscale>  0 0.90219963E+02</rscale>
<asrwt>0</asrwt>
<pdfrwt beam="1">  1        1 0.84011171E-02 0.90219963E+02</pdfrwt>
<pdfrwt beam="2">  1       -1 0.57329948E-02 0.90219963E+02</pdfrwt>
<totfact> 0.97840820E+04</totfact>
</mgrwt>
</event>
<event>
 5    1  0.1256986E+001  0.8856782E+02  0.7546771E-02  0.1306357E+00
         -1   -1    0    0    0  501 -0.00000000000E+00  0.00000000000E+00  0.18193651465E+02  0.18193651465E+02  0.00000000000E+00 0.  1.
          1   -1    0    0  501    0  0.00000000000E+00 -0.00000000000E+00 -0.10778840951E+03  0.10778840951E+03  0.00000000000E+00 0. -1.
         23    2    1    2    0    0  0.00000000000E+00  0.00000000000E+00 -0.89594758045E+02  0.12598206097E+03  0.88567821573E+02 0.  0.
        -13    1    3    3    0    0  0.26567161471E+02  0.15714512118E+02 -0.89965150359E+02  0.95113028754E+02  0.00000000000E+00 0. -1.
         13    1    3    3    0    0 -0.26567161471E+02 -0.15714512118E+02  0.37039231413E+00  0.30869032220E+02  0.00000000000E+00 0.  1.
<mgrwt>
<rscale>  0 0.88567822E+02</rscale>
<asrwt>0</asrwt>
<pdfrwt beam="2">  1        1 0.16582832E-01 0.88567822E+02</pdfrwt>
<pdfrwt beam="1">  1       -1 0.27990233E-02 0.88567822E+02</pdfrwt>
<totfact> 0.11444211E+05</totfact>
</mgrwt>
</event>
<event>
 5    1  0.1256986E+001  0.8895278E+02  0.7546771E-02  0.1305408E+00
         -2   -1    0    0    0  501 -0.00000000000E+00  0.00000000000E+00  0.25722122538E+02  0.25722122538E+02  0.00000000000E+00 0.  1.
          2   -1    0    0  501    0  0.00000000000E+00 -0.00000000000E+00 -0.76904592248E+02  0.76904592248E+02  0.00000000000E+00 0. -1.
         23    2    1    2    0    0  0.00000000000E+00  0.00000000000E+00 -0.51182469711E+02  0.10262671479E+03  0.88952781756E+02 0.  0.
        -11    1    3    3    0    0 -0.19978913825E+02  0.32114164520E+02 -0.52591092419E+02  0.64778851196E+02  0.00000000000E+00 0. -1.
         11    1    3    3    0    0  0.19978913825E+02 -0.32114164520E+02  0.14086227080E+01  0.37847863591E+02  0.00000000000E+00 0.  1.
<mgrwt>
<rscale>  0 0.88952782E+02</rscale>
<asrwt>0</asrwt>
<pdfrwt beam="2">  1        2 0.11831476E-01 0.88952782E+02</pdfrwt>
<pdfrwt beam="1">  1       -2 0.39572496E-02 0.88952782E+02</pdfrwt>
<totfact> 0.12163367E+05</totfact>
</mgrwt>
</event>
<event>
 5    1  0.1256986E+001  0.9062009E+02  0.7546771E-02  0.1301357E+00
          1   -1    0    0  501    0  0.00000000000E+00  0.00000000000E+00  0.29560505081E+02  0.29560505081E+02  0.00000000000E+00 0. -1.
         -1   -1    0    0    0  501 -0.00000000000E+00 -0.00000000000E+00 -0.69450788165E+02  0.69450788165E+02  0.00000000000E+00 0.  1.
         23    2    1    2    0    0  0.00000000000E+00  0.00000000000E+00 -0.39890283084E+02  0.99011293246E+02  0.90620094382E+02 0.  0.
        -11    1    3    3    0    0 -0.43638198930E+02  0.10932229718E+02 -0.25848639734E+02  0.51884084540E+02  0.00000000000E+00 0. -1.
         11    1    3    3    0    0  0.43638198930E+02 -0.10932229718E+02 -0.14041643349E+02  0.47127208706E+02  0.00000000000E+00 0.  1.
<mgrwt>
<rscale>  0 0.90620094E+02</rscale>
<asrwt>0</asrwt>
<pdfrwt beam="1">  1        1 0.45477700E-02 0.90620094E+02</pdfrwt>
<pdfrwt beam="2">  1       -1 0.10684737E-01 0.90620094E+02</pdfrwt>
<totfact> 0.88011947E+04</totfact>
</mgrwt>
</event>
<event>
 4    1  0.1256986E+001  0.1326365E+03  0.7546771E-02  0.1223595E+00
          1   -1    0    0  501    0  0.00000000000E+00  0.00000000000E+00  0.17118475931E+03  0.17118475931E+03  0.00000000000E+00 0.  1.
         -1   -1    0    0    0  501 -0.00000000000E+00 -0.00000000000E+00 -0.25692168898E+02  0.25692168898E+02  0.00000000000E+00 0. -1.
        -11    1    1    2    0    0  0.55078026901E+02 -0.29500468151E+02  0.39747254368E+02  0.74052082336E+02  0.00000000000E+00 0. -1.
         11    1    1    2    0    0 -0.55078026901E+02  0.29500468151E+02  0.10574533605E+03  0.12282484588E+03  0.00000000000E+00 0.  1.
<mgrwt>
<rscale>  0 0.13263646E+03</rscale>
<asrwt>0</asrwt>
<pdfrwt beam="1">  1        1 0.26336116E-01 0.13263646E+03</pdfrwt>
<pdfrwt beam="2">  1       -1 0.39526415E-02 0.13263646E+03</pdfrwt>
<totfact> 0.40967699E+04</totfact>
</mgrwt>
</event>
<event>
 5    1  0.1256986E+001  0.9146386E+02  0.7546771E-02  0.1299345E+00
         -2   -1    0    0    0  501 -0.00000000000E+00  0.00000000000E+00  0.10606824307E+03  0.10606824307E+03  0.00000000000E+00 0.  1.
          2   -1    0    0  501    0  0.00000000000E+00 -0.00000000000E+00 -0.19717583972E+02  0.19717583972E+02  0.00000000000E+00 0. -1.
         23    2    1    2    0    0  0.00000000000E+00  0.00000000000E+00  0.86350659102E+02  0.12578582705E+03  0.91463861489E+02 0.  0.
        -13    1    3    3    0    0  0.20501194290E+02 -0.19733906276E+01  0.99328999410E+02  0.10144182255E+03  0.00000000000E+00 0.  1.
         13    1    3    3    0    0 -0.20501194290E+02  0.19733906276E+01 -0.12978340308E+02  0.24344004499E+02  0.00000000000E+00 0. -1.
<mgrwt>
<rscale>  0 0.91463861E+02</rscale>
<asrwt>0</asrwt>
<pdfrwt beam="2">  1        2 0.30334745E-02 0.91463861E+02</pdfrwt>
<pdfrwt beam="1">  1       -2 0.16318191E-01 0.91463861E+02</pdfrwt>
<totfact> 0.77785957E+04</totfact>
</mgrwt>
</event>
<event>
 5    1  0.1256986E+001  0.9153070E+02  0.7546771E-02  0.1299187E+00
         -2   -1    0    0    0  501 -0.00000000000E+00  0.00000000000E+00  0.14264056080E+02  0.14264056080E+02  0.00000000000E+00 0.  1.
          2   -1    0    0  501    0  0.00000000000E+00 -0.00000000000E+00 -0.14683531718E+03  0.14683531718E+03  0.00000000000E+00 0. -1.
         23    2    1    2    0    0  0.00000000000E+00  0.00000000000E+00 -0.13257126110E+03  0.16109937325E+03  0.91530698646E+02 0.  0.
        -11    1    3    3    0    0  0.10700802583E+02 -0.41116780498E+02 -0.96225790350E+02  0.10518792489E+03  0.00000000000E+00 0. -1.
         11    1    3    3    0    0 -0.10700802583E+02  0.41116780498E+02 -0.36345470746E+02  0.55911448364E+02  0.00000000000E+00 0.  1.
<mgrwt>
<rscale>  0 0.91530699E+02</rscale>
<asrwt>0</asrwt>
<pdfrwt beam="2">  1        2 0.22590049E-01 0.91530699E+02</pdfrwt>
<pdfrwt beam="1">  1       -2 0.21944701E-02 0.91530699E+02</pdfrwt>
<totfact> 0.13734761E+05</totfact>
</mgrwt>
</event>
<event>
 5    1  0.1256986E+001  0.9225727E+02  0.7546771E-02  0.1297476E+00
          2   -1    0    0  501    0  0.00000000000E+00  0.00000000000E+00  0.38462723878E+02  0.38462723878E+02  0.00000000000E+00 0. -1.
         -2   -1    0    0    0  501 -0.00000000000E+00 -0.00000000000E+00 -0.55322421820E+02  0.55322421820E+02  0.00000000000E+00 0.  1.
         23    2    1    2    0    0  0.00000000000E+00  0.00000000000E+00 -0.16859697943E+02  0.93785145698E+02  0.92257271469E+02 0.  0.
        -13    1    3    3    0    0 -0.28039494645E+02 -0.23262861057E+02  0.20331410448E+02  0.41722178938E+02  0.00000000000E+00 0. -1.
         13    1    3    3    0    0  0.28039494645E+02  0.23262861057E+02 -0.37191108391E+02  0.52062966760E+02  0.00000000000E+00 0.  1.
<mgrwt>
<rscale>  0 0.92257271E+02</rscale>
<asrwt>0</asrwt>
<pdfrwt beam="1">  1        2 0.59173422E-02 0.92257271E+02</pdfrwt>
<pdfrwt beam="2">  1       -2 0.85111418E-02 0.92257271E+02</pdfrwt>
<totfact> 0.91241185E+04</totfact>
</mgrwt>
</event>
<event>
 5    1  0.1256986E+001  0.8843197E+02  0.7546771E-02  0.1306694E+00
          2   -1    0    0  501    0  0.00000000000E+00  0.00000000000E+00  0.65729055387E+02  0.65729055387E+02  0.00000000000E+00 0. -1.
         -2   -1    0    0    0  501 -0.00000000000E+00 -0.00000000000E+00 -0.29744123617E+02  0.29744123617E+02  0.00000000000E+00 0.  1.
         23    2    1    2    0    0  0.00000000000E+00  0.00000000000E+00  0.35984931770E+02  0.95473179004E+02  0.88431965910E+02 0.  0.
        -11    1    3    3    0    0 -0.38744583287E+02  0.20255306141E+02  0.10860987348E+02  0.45048653777E+02  0.00000000000E+00 0.  1.
         11    1    3    3    0    0  0.38744583287E+02 -0.20255306141E+02  0.25123944422E+02  0.50424525227E+02  0.00000000000E+00 0. -1.
<mgrwt>
<rscale>  0 0.88431966E+02</rscale>
<asrwt>0</asrwt>
<pdfrwt beam="1">  1        2 0.10112162E-01 0.88431966E+02</pdfrwt>
<pdfrwt beam="2">  1       -2 0.45760190E-02 0.88431966E+02</pdfrwt>
<totfact> 0.11842468E+05</totfact>
</mgrwt>
</event>
<event>
 5    1  0.1256986E+001  0.7347621E+02  0.7546771E-02  0.1348656E+00
          1   -1    0    0  501    0  0.00000000000E+00  0.00000000000E+00  0.10428696652E+03  0.10428696652E+03  0.00000000000E+00 0. -1.
         -1   -1    0    0    0  501 -0.00000000000E+00 -0.00000000000E+00 -0.12942060771E+02  0.12942060771E+02  0.00000000000E+00 0.  1.
         23    2    1    2    0    0  0.00000000000E+00  0.00000000000E+00  0.91344905754E+02  0.11722902730E+03  0.73476207260E+02 0.  0.
        -11    1    3    3    0    0  0.16006375145E+02  0.30916437382E+02  0.26953164429E+02  0.44028436474E+02  0.00000000000E+00 0.  1.
         11    1    3    3    0    0 -0.16006375145E+02 -0.30916437382E+02  0.64391741325E+02  0.73200590821E+02  0.00000000000E+00 0. -1.
<mgrwt>
<rscale>  0 0.73476207E+02</rscale>
<asrwt>0</asrwt>
<pdfrwt beam="1">  1        1 0.16044148E-01 0.73476207E+02</pdfrwt>
<pdfrwt beam="2">  1       -1 0.19910863E-02 0.73476207E+02</pdfrwt>
<totfact> 0.18775444E+05</totfact>
</mgrwt>
</event>
<event>
 5    1  0.1256986E+001  0.9119133E+02  0.7546771E-02  0.1299992E+00
          1   -1    0    0  501    0  0.00000000000E+00  0.00000000000E+00  0.31417950128E+03  0.31417950128E+03  0.00000000000E+00 0. -1.
         -1   -1    0    0    0  501 -0.00000000000E+00 -0.00000000000E+00 -0.66171242498E+01  0.66171242498E+01  0.00000000000E+00 0.  1.
         23    2    1    2    0    0  0.00000000000E+00  0.00000000000E+00  0.30756237703E+03  0.32079662553E+03  0.91191332849E+02 0.  0.
        -11    1    3    3    0    0  0.34475695454E+02  0.29334495025E+02  0.13455219714E+03  0.14196260046E+03  0.00000000000E+00 0.  1.
         11    1    3    3    0    0 -0.34475695454E+02 -0.29334495025E+02  0.17301017989E+03  0.17883402506E+03  0.00000000000E+00 0. -1.
<mgrwt>
<rscale>  0 0.91191333E+02</rscale>
<asrwt>0</asrwt>
<pdfrwt beam="1">  1        1 0.48335296E-01 0.91191333E+02</pdfrwt>
<pdfrwt beam="2">  1       -1 0.10180194E-02 0.91191333E+02</pdfrwt>
<totfact> 0.12919189E+05</totfact>
</mgrwt>
</event>
<event>
 5    1  0.1256986E+001  0.9109792E+02  0.7546771E-02  0.1300215E+00
          2   -1    0    0  501    0  0.00000000000E+00  0.00000000000E+00  0.33722598005E+02  0.33722598005E+02  0.00000000000E+00 0. -1.
         -2   -1    0    0    0  501 -0.00000000000E+00 -0.00000000000E+00 -0.61522771704E+02  0.61522771704E+02  0.00000000000E+00 0.  1.
         23    2    1    2    0    0  0.00000000000E+00  0.00000000000E+00 -0.27800173699E+02  0.95245369709E+02  0.91097918710E+02 0.  0.
        -13    1    3    3    0    0 -0.54822002238E+01 -0.26312356079E+02  0.24547938877E+02  0.36400493195E+02  0.00000000000E+00 0. -1.
         13    1    3    3    0    0  0.54822002238E+01  0.26312356079E+02 -0.52348112576E+02  0.58844876514E+02  0.00000000000E+00 0.  1.
<mgrwt>
<rscale>  0 0.91097919E+02</rscale>
<asrwt>0</asrwt>
<pdfrwt beam="1">  1        2 0.51880921E-02 0.91097919E+02</pdfrwt>
<pdfrwt beam="2">  1       -2 0.94650416E-02 0.91097919E+02</pdfrwt>
<totfact> 0.91478002E+04</totfact>
</mgrwt>
</event>
<event>
 5    1  0.1256986E+001  0.8463570E+02  0.7546771E-02  0.1316388E+00
          1   -1    0    0  501    0  0.00000000000E+00  0.00000000000E+00  0.10217384189E+03  0.10217384189E+03  0.00000000000E+00 0. -1.
         -1   -1    0    0    0  501 -0.00000000000E+00 -0.00000000000E+00 -0.17526996889E+02  0.17526996889E+02  0.00000000000E+00 0.  1.
         23    2    1    2    0    0  0.00000000000E+00  0.00000000000E+00  0.84646845000E+02  0.11970083878E+03  0.84635704260E+02 0.  0.
        -13    1    3    3    0    0  0.11896335141E+02  0.23754902991E+02 -0.42625245327E+01  0.26907012493E+02  0.00000000000E+00 0.  1.
         13    1    3    3    0    0 -0.11896335141E+02 -0.23754902991E+02  0.88909369532E+02  0.92793826284E+02  0.00000000000E+00 0. -1.
<mgrwt>
<rscale>  0 0.84635704E+02</rscale>
<asrwt>0</asrwt>
<pdfrwt beam="1">  1        1 0.15719052E-01 0.84635704E+02</pdfrwt>
<pdfrwt beam="2">  1       -1 0.26964611E-02 0.84635704E+02</pdfrwt>
<totfact> 0.12825221E+05</totfact>
</mgrwt>
</event>
<event>
 5    1  0.1256986E+001  0.8133685E+02  0.7546771E-02  0.1325300E+00
         -2   -1    0    0    0  501 -0.00000000000E+00  0.00000000000E+00  0.37985170908E+02  0.37985170908E+02  0.00000000000E+00 0.  1.
          2   -1    0    0  501    0  0.00000000000E+00 -0.00000000000E+00 -0.43541225777E+02  0.43541225777E+02  0.00000000000E+00 0. -1.
         23    2    1    2    0    0  0.00000000000E+00  0.00000000000E+00 -0.55560548690E+01  0.81526396685E+02  0.81336852722E+02 0.  0.
        -13    1    3    3    0    0  0.16784749623E+02  0.16905662080E+02  0.30259238411E+02  0.38511696139E+02  0.00000000000E+00 0.  1.
         13    1    3    3    0    0 -0.16784749623E+02 -0.16905662080E+02 -0.35815293280E+02  0.43014700546E+02  0.00000000000E+00 0. -1.
<mgrwt>
<rscale>  0 0.81336853E+02</rscale>
<asrwt>0</asrwt>
<pdfrwt beam="2">  1        2 0.66986501E-02 0.81336853E+02</pdfrwt>
<pdfrwt beam="1">  1       -2 0.58438725E-02 0.81336853E+02</pdfrwt>
<totfact> 0.13492098E+05</totfact>
</mgrwt>
</event>
<event>
 5    1  0.1256986E+001  0.9108151E+02  0.7546771E-02  0.1300254E+00
          2   -1    0    0  501    0  0.00000000000E+00  0.00000000000E+00  0.19906754862E+03  0.19906754862E+03  0.00000000000E+00 0. -1.
         -2   -1    0    0    0  501 -0.00000000000E+00 -0.00000000000E+00 -0.10418375031E+02  0.10418375031E+02  0.00000000000E+00 0.  1.
         23    2    1    2    0    0  0.00000000000E+00  0.00000000000E+00  0.18864917359E+03  0.20948592366E+03  0.91081510268E+02 0.  0.
        -11    1    3    3    0    0  0.42322945564E+02 -0.14653473135E+02  0.75357830151E+02  0.87662754698E+02  0.00000000000E+00 0.  1.
         11    1    3    3    0    0 -0.42322945564E+02  0.14653473135E+02  0.11329134344E+03  0.12182316896E+03  0.00000000000E+00 0. -1.
<mgrwt>
<rscale>  0 0.91081510E+02</rscale>
<asrwt>0</asrwt>
<pdfrwt beam="1">  1        2 0.30625774E-01 0.91081510E+02</pdfrwt>
<pdfrwt beam="2">  1       -2 0.16028271E-02 0.91081510E+02</pdfrwt>
<totfact> 0.15485445E+05</totfact>
</mgrwt>
</event>
<event>
 5    1  0.1256986E+001  0.1058237E+03  0.7546771E-02  0.1268505E+00
          2   -1    0    0  501    0  0.00000000000E+00  0.00000000000E+00  0.17673294408E+03  0.17673294408E+03  0.00000000000E+00 0. -1.
         -2   -1    0    0    0  501 -0.00000000000E+00 -0.00000000000E+00 -0.15841209740E+02  0.15841209740E+02  0.00000000000E+00 0.  1.
         23    2    1    2    0    0  0.00000000000E+00  0.00000000000E+00  0.16089173434E+03  0.19257415382E+03  0.10582369555E+03 0.  0.
        -13    1    3    3    0    0 -0.40232680187E+02 -0.13026365199E+02  0.22575400190E+02  0.47937495127E+02  0.00000000000E+00 0.  1.
         13    1    3    3    0    0  0.40232680187E+02  0.13026365199E+02  0.13831633415E+03  0.14463665869E+03  0.00000000000E+00 0. -1.
<mgrwt>
<rscale>  0 0.10582370E+03</rscale>
<asrwt>0</asrwt>
<pdfrwt beam="1">  1        2 0.27189682E-01 0.10582370E+03</pdfrwt>
<pdfrwt beam="2">  1       -2 0.24371093E-02 0.10582370E+03</pdfrwt>
<totfact> 0.98564822E+04</totfact>
</mgrwt>
</event>
<event>
 5    1  0.1256986E+001  0.1061963E+03  0.7546771E-02  0.1267780E+00
         -3   -1    0    0    0  501 -0.00000000000E+00  0.00000000000E+00  0.13866423595E+02  0.13866423595E+02  0.00000000000E+00 0.  1.
          3   -1    0    0  501    0  0.00000000000E+00 -0.00000000000E+00 -0.20332653543E+03  0.20332653543E+03  0.00000000000E+00 0. -1.
         23    2    1    2    0    0  0.00000000000E+00  0.00000000000E+00 -0.18946011184E+03  0.21719295903E+03  0.10619626864E+03 0.  0.
        -13    1    3    3    0    0  0.10101955771E+01 -0.41237746289E+02 -0.16310960626E+03  0.16824480934E+03  0.00000000000E+00 0. -1.
         13    1    3    3    0    0 -0.10101955771E+01  0.41237746289E+02 -0.26350505578E+02  0.48948149692E+02  0.00000000000E+00 0.  1.
<mgrwt>
<rscale>  0 0.10619627E+03</rscale>
<asrwt>0</asrwt>
<pdfrwt beam="2">  1        3 0.31281004E-01 0.10619627E+03</pdfrwt>
<pdfrwt beam="1">  1       -3 0.21332961E-02 0.10619627E+03</pdfrwt>
<totfact> 0.18248670E+04</totfact>
</mgrwt>
</event>
<event>
 5    1  0.1256986E+001  0.9036588E+02  0.7546771E-02  0.1301968E+00
          2   -1    0    0  501    0  0.00000000000E+00  0.00000000000E+00  0.26417875969E+03  0.26417875969E+03  0.00000000000E+00 0. -1.
         -2   -1    0    0    0  501 -0.00000000000E+00 -0.00000000000E+00 -0.77277149446E+01  0.77277149446E+01  0.00000000000E+00 0.  1.
         23    2    1    2    0    0  0.00000000000E+00  0.00000000000E+00  0.25645104475E+03  0.27190647464E+03  0.90365881821E+02 0.  0.
        -13    1    3    3    0    0  0.33051450895E+02 -0.28359216532E+02  0.92011132313E+02  0.10179730860E+03  0.00000000000E+00 0.  1.
         13    1    3    3    0    0 -0.33051450895E+02  0.28359216532E+02  0.16443991243E+03  0.17010916604E+03  0.00000000000E+00 0. -1.
<mgrwt>
<rscale>  0 0.90365882E+02</rscale>
<asrwt>0</asrwt>
<pdfrwt beam="1">  1        2 0.40642879E-01 0.90365882E+02</pdfrwt>
<pdfrwt beam="2">  1       -2 0.11888794E-02 0.90365882E+02</pdfrwt>
<totfact> 0.17547747E+05</totfact>
</mgrwt>
</event>
<event>
 5    1  0.1256986E+001  0.1006088E+03  0.7546771E-02  0.1279021E+00
         -1   -1    0    0    0  501 -0.00000000000E+00  0.00000000000E+00  0.85211814765E+01  0.85211814765E+01  0.00000000000E+00 0.  1.
          1   -1    0    0  501    0  0.00000000000E+00 -0.00000000000E+00 -0.29696993384E+03  0.29696993384E+03  0.00000000000E+00 0. -1.
         23    2    1    2    0    0  0.00000000000E+00  0.00000000000E+00 -0.28844875237E+03  0.30549111532E+03  0.10060884055E+03 0.  0.
        -13    1    3    3    0    0  0.94080061115E+01  0.41075792325E+02 -0.60802612885E+02  0.73977625183E+02  0.00000000000E+00 0.  1.
         13    1    3    3    0    0 -0.94080061115E+01 -0.41075792325E+02 -0.22764613948E+03  0.23151349014E+03  0.00000000000E+00 0. -1.
<mgrwt>
<rscale>  0 0.10060884E+03</rscale>
<asrwt>0</asrwt>
<pdfrwt beam="2">  1        1 0.45687689E-01 0.10060884E+03</pdfrwt>
<pdfrwt beam="1">  1       -1 0.13109508E-02 0.10060884E+03</pdfrwt>
<totfact> 0.98225264E+04</totfact>
</mgrwt>
</event>
<event>
 5    1  0.1256986E+001  0.9141547E+02  0.7546771E-02  0.1299460E+00
          1   -1    0    0  501    0  0.00000000000E+00  0.00000000000E+00  0.82214936016E+02  0.82214936016E+02  0.00000000000E+00 0. -1.
         -1   -1    0    0    0  501 -0.00000000000E+00 -0.00000000000E+00 -0.25411403453E+02  0.25411403453E+02  0.00000000000E+00 0.  1.
         23    2    1    2    0    0  0.00000000000E+00  0.00000000000E+00  0.56803532563E+02  0.10762633947E+03  0.91415467159E+02 0.  0.
        -13    1    3    3    0    0 -0.56972201809E+01  0.16772290959E+02 -0.21206097130E+02  0.27630899682E+02  0.00000000000E+00 0.  1.
         13    1    3    3    0    0  0.56972201809E+01 -0.16772290959E+02  0.78009629693E+02  0.79995439786E+02  0.00000000000E+00 0. -1.
<mgrwt>
<rscale>  0 0.91415467E+02</rscale>
<asrwt>0</asrwt>
<pdfrwt beam="1">  1        1 0.12648452E-01 0.91415467E+02</pdfrwt>
<pdfrwt beam="2">  1       -1 0.39094467E-02 0.91415467E+02</pdfrwt>
<totfact> 0.10045710E+05</totfact>
</mgrwt>
</event>
<event>
 5    1  0.1256986E+001  0.9178139E+02  0.7546771E-02  0.1298594E+00
          2   -1    0    0  501    0  0.00000000000E+00  0.00000000000E+00  0.33801691740E+03  0.33801691740E+03  0.00000000000E+00 0. -1.
         -2   -1    0    0    0  501 -0.00000000000E+00 -0.00000000000E+00 -0.62303266350E+01  0.62303266350E+01  0.00000000000E+00 0.  1.
         23    2    1    2    0    0  0.00000000000E+00  0.00000000000E+00  0.33178659077E+03  0.34424724404E+03  0.91781388170E+02 0.  0.
        -13    1    3    3    0    0  0.28899360684E+02 -0.34167020120E+02  0.12775415924E+03  0.13536500108E+03  0.00000000000E+00 0.  1.
         13    1    3    3    0    0 -0.28899360684E+02  0.34167020120E+02  0.20403243152E+03  0.20888224296E+03  0.00000000000E+00 0. -1.
<mgrwt>
<rscale>  0 0.91781388E+02</rscale>
<asrwt>0</asrwt>
<pdfrwt beam="1">  1        2 0.52002588E-01 0.91781388E+02</pdfrwt>
<pdfrwt beam="2">  1       -2 0.95851205E-03 0.91781388E+02</pdfrwt>
<totfact> 0.18450266E+05</totfact>
</mgrwt>
</event>
<event>
 5    1  0.1256986E+001  0.9200136E+02  0.7546771E-02  0.1298076E+00
          3   -1    0    0  501    0  0.00000000000E+00  0.00000000000E+00  0.12266960174E+03  0.12266960174E+03  0.00000000000E+00 0. -1.
         -3   -1    0    0    0  501 -0.00000000000E+00 -0.00000000000E+00 -0.17250098699E+02  0.17250098699E+02  0.00000000000E+00 0.  1.
         23    2    1    2    0    0  0.00000000000E+00  0.00000000000E+00  0.10541950304E+03  0.13991970044E+03  0.92001363845E+02 0.  0.
        -11    1    3    3    0    0 -0.23319841963E+02 -0.36172847412E+02  0.77409903244E+02  0.88569650780E+02  0.00000000000E+00 0. -1.
         11    1    3    3    0    0  0.23319841963E+02  0.36172847412E+02  0.28009599797E+02  0.51350049658E+02  0.00000000000E+00 0.  1.
<mgrwt>
<rscale>  0 0.92001364E+02</rscale>
<asrwt>0</asrwt>
<pdfrwt beam="1">  1        3 0.18872246E-01 0.92001364E+02</pdfrwt>
<pdfrwt beam="2">  1       -3 0.26538614E-02 0.92001364E+02</pdfrwt>
<totfact> 0.31163925E+04</totfact>
</mgrwt>
</event>
<event>
 5    1  0.1256986E+001  0.9144304E+02  0.7546771E-02  0.1299394E+00
         -4   -1    0    0    0  501 -0.00000000000E+00  0.00000000000E+00  0.18622951370E+03  0.18622951370E+03  0.00000000000E+00 0.  1.
          4   -1    0    0  501    0  0.00000000000E+00 -0.00000000000E+00 -0.11225167467E+02  0.11225167467E+02  0.00000000000E+00 0. -1.
         23    2    1    2    0    0  0.00000000000E+00  0.00000000000E+00  0.17500434624E+03  0.19745468117E+03  0.91443041913E+02 0.  0.
        -13    1    3    3    0    0 -0.80445285379E+00  0.45367308475E+02  0.99643931992E+02  0.10948859760E+03  0.00000000000E+00 0.  1.
         13    1    3    3    0    0  0.80445285379E+00 -0.45367308475E+02  0.75360414246E+02  0.87966083567E+02  0.00000000000E+00 0. -1.
<mgrwt>
<rscale>  0 0.91443042E+02</rscale>
<asrwt>0</asrwt>
<pdfrwt beam="2">  1        4 0.17269490E-02 0.91443042E+02</pdfrwt>
<pdfrwt beam="1">  1       -4 0.28650692E-01 0.91443042E+02</pdfrwt>
<totfact> 0.21325514E+04</totfact>
</mgrwt>
</event>
<event>
 5    1  0.1256986E+001  0.9185625E+02  0.7546771E-02  0.1298418E+00
         -4   -1    0    0    0  501 -0.00000000000E+00  0.00000000000E+00  0.83306953670E+02  0.83306953670E+02  0.00000000000E+00 0.  1.
          4   -1    0    0  501    0  0.00000000000E+00 -0.00000000000E+00 -0.25320725452E+02  0.25320725452E+02  0.00000000000E+00 0. -1.
         23    2    1    2    0    0  0.00000000000E+00  0.00000000000E+00  0.57986228218E+02  0.10862767912E+03  0.91856246432E+02 0.  0.
        -11    1    3    3    0    0 -0.16317556443E+02 -0.26667530529E+00 -0.21776211472E+02  0.27212812241E+02  0.00000000000E+00 0. -1.
         11    1    3    3    0    0  0.16317556443E+02  0.26667530529E+00  0.79762439690E+02  0.81414866881E+02  0.00000000000E+00 0.  1.
<mgrwt>
<rscale>  0 0.91856246E+02</rscale>
<asrwt>0</asrwt>
<pdfrwt beam="2">  1        4 0.38954963E-02 0.91856246E+02</pdfrwt>
<pdfrwt beam="1">  1       -4 0.12816454E-01 0.91856246E+02</pdfrwt>
<totfact> 0.25417328E+04</totfact>
</mgrwt>
</event>
<event>
 5    1  0.1256986E+001  0.9156781E+02  0.7546771E-02  0.1299099E+00
         -2   -1    0    0    0  501 -0.00000000000E+00  0.00000000000E+00  0.14718762719E+02  0.14718762719E+02  0.00000000000E+00 0.  1.
          2   -1    0    0  501    0  0.00000000000E+00 -0.00000000000E+00 -0.14241454266E+03  0.14241454266E+03  0.00000000000E+00 0. -1.
         23    2    1    2    0    0  0.00000000000E+00  0.00000000000E+00 -0.12769577994E+03  0.15713330538E+03  0.91567807908E+02 0.  0.
        -11    1    3    3    0    0 -0.36845353435E+02  0.25009300723E+02 -0.82099299538E+02  0.93398823210E+02  0.00000000000E+00 0. -1.
         11    1    3    3    0    0  0.36845353435E+02 -0.25009300723E+02 -0.45596480407E+02  0.63734482174E+02  0.00000000000E+00 0.  1.
<mgrwt>
<rscale>  0 0.91567808E+02</rscale>
<asrwt>0</asrwt>
<pdfrwt beam="2">  1        2 0.21909930E-01 0.91567808E+02</pdfrwt>
<pdfrwt beam="1">  1       -2 0.22644250E-02 0.91567808E+02</pdfrwt>
<totfact> 0.13578797E+05</totfact>
</mgrwt>
</event>
<event>
 5    1  0.1256986E+001  0.9186723E+02  0.7546771E-02  0.1298392E+00
         -3   -1    0    0    0  501 -0.00000000000E+00  0.00000000000E+00  0.27683729453E+02  0.27683729453E+02  0.00000000000E+00 0.  1.
          3   -1    0    0  501    0  0.00000000000E+00 -0.00000000000E+00 -0.76214327572E+02  0.76214327572E+02  0.00000000000E+00 0. -1.
         23    2    1    2    0    0  0.00000000000E+00  0.00000000000E+00 -0.48530598119E+02  0.10389805702E+03  0.91867226472E+02 0.  0.
        -13    1    3    3    0    0 -0.14801504966E+02  0.19079154880E+02 -0.68456685787E+02  0.72590746856E+02  0.00000000000E+00 0. -1.
         13    1    3    3    0    0  0.14801504966E+02 -0.19079154880E+02  0.19926087668E+02  0.31307310168E+02  0.00000000000E+00 0.  1.
<mgrwt>
<rscale>  0 0.91867226E+02</rscale>
<asrwt>0</asrwt>
<pdfrwt beam="2">  1        3 0.11725281E-01 0.91867226E+02</pdfrwt>
<pdfrwt beam="1">  1       -3 0.42590353E-02 0.91867226E+02</pdfrwt>
<totfact> 0.33684711E+04</totfact>
</mgrwt>
</event>
<event>
 5    1  0.1256986E+001  0.8703830E+02  0.7546771E-02  0.1310187E+00
          1   -1    0    0  501    0  0.00000000000E+00  0.00000000000E+00  0.24695798744E+03  0.24695798744E+03  0.00000000000E+00 0. -1.
         -1   -1    0    0    0  501 -0.00000000000E+00 -0.00000000000E+00 -0.76689815993E+01  0.76689815993E+01  0.00000000000E+00 0.  1.
         23    2    1    2    0    0  0.00000000000E+00  0.00000000000E+00  0.23928900585E+03  0.25462696904E+03  0.87038296433E+02 0.  0.
        -13    1    3    3    0    0  0.37034235365E+02 -0.77937327685E+01  0.56788689191E+02  0.68243916063E+02  0.00000000000E+00 0.  1.
         13    1    3    3    0    0 -0.37034235365E+02  0.77937327685E+01  0.18250031665E+03  0.18638305298E+03  0.00000000000E+00 0. -1.
<mgrwt>
<rscale>  0 0.87038296E+02</rscale>
<asrwt>0</asrwt>
<pdfrwt beam="1">  1        1 0.37993530E-01 0.87038296E+02</pdfrwt>
<pdfrwt beam="2">  1       -1 0.11798435E-02 0.87038296E+02</pdfrwt>
<totfact> 0.13962729E+05</totfact>
</mgrwt>
</event>
<event>
 5    1  0.1256986E+001  0.9546800E+02  0.7546771E-02  0.1290126E+00
         -2   -1    0    0    0  501 -0.00000000000E+00  0.00000000000E+00  0.24809932794E+02  0.24809932794E+02  0.00000000000E+00 0.  1.
          2   -1    0    0  501    0  0.00000000000E+00 -0.00000000000E+00 -0.91839616381E+02  0.91839616381E+02  0.00000000000E+00 0. -1.
         23    2    1    2    0    0  0.00000000000E+00  0.00000000000E+00 -0.67029683587E+02  0.11664954917E+03  0.95467999040E+02 0.  0.
        -13    1    3    3    0    0 -0.22637881329E+02  0.40928562069E+02 -0.21864457256E+02  0.51630178725E+02  0.00000000000E+00 0.  1.
         13    1    3    3    0    0  0.22637881329E+02 -0.40928562069E+02 -0.45165226331E+02  0.65019370449E+02  0.00000000000E+00 0. -1.
<mgrwt>
<rscale>  0 0.95467999E+02</rscale>
<asrwt>0</asrwt>
<pdfrwt beam="2">  1        2 0.14129172E-01 0.95467999E+02</pdfrwt>
<pdfrwt beam="1">  1       -2 0.38169127E-02 0.95467999E+02</pdfrwt>
<totfact> 0.10524940E+05</totfact>
</mgrwt>
</event>
<event>
 5    1  0.1256986E+001  0.9059319E+02  0.7546771E-02  0.1301422E+00
          1   -1    0    0  501    0  0.00000000000E+00  0.00000000000E+00  0.10205571001E+02  0.10205571001E+02  0.00000000000E+00 0. -1.
         -1   -1    0    0    0  501 -0.00000000000E+00 -0.00000000000E+00 -0.20104523695E+03  0.20104523695E+03  0.00000000000E+00 0.  1.
         23    2    1    2    0    0  0.00000000000E+00  0.00000000000E+00 -0.19083966595E+03  0.21125080796E+03  0.90593188267E+02 0.  0.
        -13    1    3    3    0    0 -0.18200979667E+02  0.41292188719E+02 -0.10458880490E+03  0.11390846597E+03  0.00000000000E+00 0.  1.
         13    1    3    3    0    0  0.18200979667E+02 -0.41292188719E+02 -0.86250861052E+02  0.97342341980E+02  0.00000000000E+00 0. -1.
<mgrwt>
<rscale>  0 0.90593188E+02</rscale>
<asrwt>0</asrwt>
<pdfrwt beam="1">  1        1 0.15700880E-02 0.90593188E+02</pdfrwt>
<pdfrwt beam="2">  1       -1 0.30930034E-01 0.90593188E+02</pdfrwt>
<totfact> 0.70489906E+04</totfact>
</mgrwt>
</event>
<event>
 5    1  0.1256986E+001  0.9130629E+02  0.7546771E-02  0.1299719E+00
          2   -1    0    0  501    0  0.00000000000E+00  0.00000000000E+00  0.39596888815E+02  0.39596888815E+02  0.00000000000E+00 0. -1.
         -2   -1    0    0    0  501 -0.00000000000E+00 -0.00000000000E+00 -0.52635690620E+02  0.52635690620E+02  0.00000000000E+00 0.  1.
         23    2    1    2    0    0  0.00000000000E+00  0.00000000000E+00 -0.13038801805E+02  0.92232579435E+02  0.91306288703E+02 0.  0.
        -13    1    3    3    0    0  0.14272786400E+02 -0.12694967591E+02 -0.48404920803E+02  0.52037592101E+02  0.00000000000E+00 0.  1.
         13    1    3    3    0    0 -0.14272786400E+02  0.12694967591E+02  0.35366118998E+02  0.40194987334E+02  0.00000000000E+00 0. -1.
<mgrwt>
<rscale>  0 0.91306289E+02</rscale>
<asrwt>0</asrwt>
<pdfrwt beam="1">  1        2 0.60918291E-02 0.91306289E+02</pdfrwt>
<pdfrwt beam="2">  1       -2 0.80977986E-02 0.91306289E+02</pdfrwt>
<totfact> 0.94747719E+04</totfact>
</mgrwt>
</event>
<event>
 5    1  0.1256986E+001  0.9185799E+02  0.7546771E-02  0.1298414E+00
         -1   -1    0    0    0  501 -0.00000000000E+00  0.00000000000E+00  0.16606008170E+02  0.16606008170E+02  0.00000000000E+00 0.  1.
          1   -1    0    0  501    0  0.00000000000E+00 -0.00000000000E+00 -0.12703067472E+03  0.12703067472E+03  0.00000000000E+00 0. -1.
         23    2    1    2    0    0  0.00000000000E+00  0.00000000000E+00 -0.11042466655E+03  0.14363668289E+03  0.91857986529E+02 0.  0.
        -13    1    3    3    0    0 -0.28536238591E+02 -0.35960786029E+02 -0.57411171322E+02  0.73508758916E+02  0.00000000000E+00 0.  1.
         13    1    3    3    0    0  0.28536238591E+02  0.35960786029E+02 -0.53013495232E+02  0.70127923978E+02  0.00000000000E+00 0. -1.
<mgrwt>
<rscale>  0 0.91857987E+02</rscale>
<asrwt>0</asrwt>
<pdfrwt beam="2">  1        1 0.19543181E-01 0.91857987E+02</pdfrwt>
<pdfrwt beam="1">  1       -1 0.25547705E-02 0.91857987E+02</pdfrwt>
<totfact> 0.10664585E+05</totfact>
</mgrwt>
</event>
<event>
 5    1  0.1256986E+001  0.9040929E+02  0.7546771E-02  0.1301864E+00
          1   -1    0    0  501    0  0.00000000000E+00  0.00000000000E+00  0.74921131312E+02  0.74921131312E+02  0.00000000000E+00 0. -1.
         -1   -1    0    0    0  501 -0.00000000000E+00 -0.00000000000E+00 -0.27274815753E+02  0.27274815753E+02  0.00000000000E+00 0.  1.
         23    2    1    2    0    0  0.00000000000E+00  0.00000000000E+00  0.47646315559E+02  0.10219594706E+03  0.90409292720E+02 0.  0.
        -13    1    3    3    0    0  0.32505804534E+02  0.33503542817E+01 -0.11483633002E+02  0.34637061497E+02  0.00000000000E+00 0.  1.
         13    1    3    3    0    0 -0.32505804534E+02 -0.33503542817E+01  0.59129948562E+02  0.67558885568E+02  0.00000000000E+00 0. -1.
<mgrwt>
<rscale>  0 0.90409293E+02</rscale>
<asrwt>0</asrwt>
<pdfrwt beam="1">  1        1 0.11526328E-01 0.90409293E+02</pdfrwt>
<pdfrwt beam="2">  1       -1 0.41961255E-02 0.90409293E+02</pdfrwt>
<totfact> 0.10205624E+05</totfact>
</mgrwt>
</event>
<event>
 5    1  0.1256986E+001  0.8689540E+02  0.7546771E-02  0.1310549E+00
          2   -1    0    0  501    0  0.00000000000E+00  0.00000000000E+00  0.39213378675E+02  0.39213378675E+02  0.00000000000E+00 0. -1.
         -2   -1    0    0    0  501 -0.00000000000E+00 -0.00000000000E+00 -0.48139246734E+02  0.48139246734E+02  0.00000000000E+00 0.  1.
         23    2    1    2    0    0  0.00000000000E+00  0.00000000000E+00 -0.89258680590E+01  0.87352625409E+02  0.86895397146E+02 0.  0.
        -11    1    3    3    0    0  0.21763006441E+01 -0.23110511972E+02 -0.41383156758E+02  0.47448895786E+02  0.00000000000E+00 0.  1.
         11    1    3    3    0    0 -0.21763006441E+01  0.23110511972E+02  0.32457288699E+02  0.39903729622E+02  0.00000000000E+00 0. -1.
<mgrwt>
<rscale>  0 0.86895397E+02</rscale>
<asrwt>0</asrwt>
<pdfrwt beam="1">  1        2 0.60328275E-02 0.86895397E+02</pdfrwt>
<pdfrwt beam="2">  1       -2 0.74060379E-02 0.86895397E+02</pdfrwt>
<totfact> 0.10901720E+05</totfact>
</mgrwt>
</event>
<event>
 5    1  0.1256986E+001  0.9048197E+02  0.7546771E-02  0.1301689E+00
         -1   -1    0    0    0  501 -0.00000000000E+00  0.00000000000E+00  0.28803527543E+02  0.28803527543E+02  0.00000000000E+00 0.  1.
          1   -1    0    0  501    0  0.00000000000E+00 -0.00000000000E+00 -0.71058889741E+02  0.71058889741E+02  0.00000000000E+00 0. -1.
         23    2    1    2    0    0  0.00000000000E+00  0.00000000000E+00 -0.42255362197E+02  0.99862417284E+02  0.90481969206E+02 0.  0.
        -11    1    3    3    0    0  0.36222642252E+02 -0.83423781650E+01 -0.49590259045E+02  0.61974743867E+02  0.00000000000E+00 0. -1.
         11    1    3    3    0    0 -0.36222642252E+02  0.83423781650E+01  0.73348968479E+01  0.37887673417E+02  0.00000000000E+00 0.  1.
<mgrwt>
<rscale>  0 0.90481969E+02</rscale>
<asrwt>0</asrwt>
<pdfrwt beam="2">  1        1 0.10932137E-01 0.90481969E+02</pdfrwt>
<pdfrwt beam="1">  1       -1 0.44313120E-02 0.90481969E+02</pdfrwt>
<totfact> 0.10100132E+05</totfact>
</mgrwt>
</event>
<event>
 5    1  0.1256986E+001  0.9175303E+02  0.7546771E-02  0.1298661E+00
          1   -1    0    0  501    0  0.00000000000E+00  0.00000000000E+00  0.34821827077E+02  0.34821827077E+02  0.00000000000E+00 0. -1.
         -1   -1    0    0    0  501 -0.00000000000E+00 -0.00000000000E+00 -0.60440669593E+02  0.60440669593E+02  0.00000000000E+00 0.  1.
         23    2    1    2    0    0  0.00000000000E+00  0.00000000000E+00 -0.25618842516E+02  0.95262496669E+02  0.91753028178E+02 0.  0.
        -13    1    3    3    0    0 -0.24747695182E+02  0.14746756245E+01 -0.52886796608E+02  0.58409214517E+02  0.00000000000E+00 0.  1.
         13    1    3    3    0    0  0.24747695182E+02 -0.14746756245E+01  0.27267954092E+02  0.36853282152E+02  0.00000000000E+00 0. -1.
<mgrwt>
<rscale>  0 0.91753028E+02</rscale>
<asrwt>0</asrwt>
<pdfrwt beam="1">  1        1 0.53572042E-02 0.91753028E+02</pdfrwt>
<pdfrwt beam="2">  1       -1 0.92985645E-02 0.91753028E+02</pdfrwt>
<totfact> 0.87173999E+04</totfact>
</mgrwt>
</event>
<event>
 5    1  0.1256986E+001  0.8860043E+02  0.7546771E-02  0.1306277E+00
          4   -1    0    0  501    0  0.00000000000E+00  0.00000000000E+00  0.27790478197E+03  0.27790478197E+03  0.00000000000E+00 0. -1.
         -4   -1    0    0    0  501 -0.00000000000E+00 -0.00000000000E+00 -0.70618034403E+01  0.70618034403E+01  0.00000000000E+00 0.  1.
         23    2    1    2    0    0  0.00000000000E+00  0.00000000000E+00  0.27084297853E+03  0.28496658542E+03  0.88600427661E+02 0.  0.
        -11    1    3    3    0    0 -0.19181306179E+02 -0.39580504472E+02  0.15243152260E+03  0.15865026922E+03  0.00000000000E+00 0. -1.
         11    1    3    3    0    0  0.19181306179E+02  0.39580504472E+02  0.11841145594E+03  0.12631631620E+03  0.00000000000E+00 0.  1.
<mgrwt>
<rscale>  0 0.88600428E+02</rscale>
<asrwt>0</asrwt>
<pdfrwt beam="1">  1        4 0.42754573E-01 0.88600428E+02</pdfrwt>
<pdfrwt beam="2">  1       -4 0.10864315E-02 0.88600428E+02</pdfrwt>
<totfact> 0.19732813E+04</totfact>
</mgrwt>
</event>
<event>
 5    1  0.1256986E+001  0.9658806E+02  0.7546771E-02  0.1287639E+00
         -1   -1    0    0    0  501 -0.00000000000E+00  0.00000000000E+00  0.88777874120E+02  0.88777874120E+02  0.00000000000E+00 0.  1.
          1   -1    0    0  501    0  0.00000000000E+00 -0.00000000000E+00 -0.26271333133E+02  0.26271333133E+02  0.00000000000E+00 0. -1.
         23    2    1    2    0    0  0.00000000000E+00  0.00000000000E+00  0.62506540986E+02  0.11504920725E+03  0.96588055284E+02 0.  0.
        -13    1    3    3    0    0  0.81574901084E+01 -0.11748370725E+02 -0.23690684900E+02  0.27673406198E+02  0.00000000000E+00 0. -1.
         13    1    3    3    0    0 -0.81574901084E+01  0.11748370725E+02  0.86197225886E+02  0.87375801055E+02  0.00000000000E+00 0.  1.
<mgrwt>
<rscale>  0 0.96588055E+02</rscale>
<asrwt>0</asrwt>
<pdfrwt beam="2">  1        1 0.40417436E-02 0.96588055E+02</pdfrwt>
<pdfrwt beam="1">  1       -1 0.13658134E-01 0.96588055E+02</pdfrwt>
<totfact> 0.71687439E+04</totfact>
</mgrwt>
</event>
<event>
 5    1  0.1256986E+001  0.1018623E+03  0.7546771E-02  0.1276428E+00
         -3   -1    0    0    0  501 -0.00000000000E+00  0.00000000000E+00  0.13799718857E+02  0.13799718857E+02  0.00000000000E+00 0.  1.
          3   -1    0    0  501    0  0.00000000000E+00 -0.00000000000E+00 -0.18797364142E+03  0.18797364142E+03  0.00000000000E+00 0. -1.
         23    2    1    2    0    0  0.00000000000E+00  0.00000000000E+00 -0.17417392256E+03  0.20177336027E+03  0.10186232678E+03 0.  0.
        -11    1    3    3    0    0 -0.45202264923E+02 -0.21650473941E+02 -0.69150135796E+02  0.85403331648E+02  0.00000000000E+00 0.  1.
         11    1    3    3    0    0  0.45202264923E+02  0.21650473941E+02 -0.10502378676E+03  0.11637002862E+03  0.00000000000E+00 0. -1.
<mgrwt>
<rscale>  0 0.10186233E+03</rscale>
<asrwt>0</asrwt>
<pdfrwt beam="2">  1        3 0.28919022E-01 0.10186233E+03</pdfrwt>
<pdfrwt beam="1">  1       -3 0.21230337E-02 0.10186233E+03</pdfrwt>
<totfact> 0.21019650E+04</totfact>
</mgrwt>
</event>
<event>
 5    1  0.1256986E+001  0.9196145E+02  0.7546771E-02  0.1298170E+00
          1   -1    0    0  501    0  0.00000000000E+00  0.00000000000E+00  0.42381128853E+02  0.42381128853E+02  0.00000000000E+00 0. -1.
         -1   -1    0    0    0  501 -0.00000000000E+00 -0.00000000000E+00 -0.49886050748E+02  0.49886050748E+02  0.00000000000E+00 0.  1.
         23    2    1    2    0    0  0.00000000000E+00  0.00000000000E+00 -0.75049218951E+01  0.92267179601E+02  0.91961451592E+02 0.  0.
        -13    1    3    3    0    0 -0.43894011231E+02 -0.10155094552E+02 -0.12970877454E+02  0.46883406758E+02  0.00000000000E+00 0.  1.
         13    1    3    3    0    0  0.43894011231E+02  0.10155094552E+02  0.54659555584E+01  0.45383772843E+02  0.00000000000E+00 0. -1.
<mgrwt>
<rscale>  0 0.91961452E+02</rscale>
<asrwt>0</asrwt>
<pdfrwt beam="1">  1        1 0.65201737E-02 0.91961452E+02</pdfrwt>
<pdfrwt beam="2">  1       -1 0.76747770E-02 0.91961452E+02</pdfrwt>
<totfact> 0.89276730E+04</totfact>
</mgrwt>
</event>
<event>
 5    1  0.1256986E+001  0.9038855E+02  0.7546771E-02  0.1301913E+00
         -2   -1    0    0    0  501 -0.00000000000E+00  0.00000000000E+00  0.70152564409E+02  0.70152564409E+02  0.00000000000E+00 0.  1.
          2   -1    0    0  501    0  0.00000000000E+00 -0.00000000000E+00 -0.29115439039E+02  0.29115439039E+02  0.00000000000E+00 0. -1.
         23    2    1    2    0    0  0.00000000000E+00  0.00000000000E+00  0.41037125369E+02  0.99268003448E+02  0.90388554862E+02 0.  0.
        -13    1    3    3    0    0  0.43458020550E+02 -0.10797623717E+02  0.13808123828E+02  0.46859924367E+02  0.00000000000E+00 0.  1.
         13    1    3    3    0    0 -0.43458020550E+02  0.10797623717E+02  0.27229001541E+02  0.52408079081E+02  0.00000000000E+00 0. -1.
<mgrwt>
<rscale>  0 0.90388555E+02</rscale>
<asrwt>0</asrwt>
<pdfrwt beam="2">  1        2 0.44792983E-02 0.90388555E+02</pdfrwt>
<pdfrwt beam="1">  1       -2 0.10792702E-01 0.90388555E+02</pdfrwt>
<totfact> 0.90053262E+04</totfact>
</mgrwt>
</event>
<event>
 5    1  0.1256986E+001  0.8934709E+02  0.7546771E-02  0.1304441E+00
          4   -1    0    0  501    0  0.00000000000E+00  0.00000000000E+00  0.28872450463E+02  0.28872450463E+02  0.00000000000E+00 0. -1.
         -4   -1    0    0    0  501 -0.00000000000E+00 -0.00000000000E+00 -0.69122136910E+02  0.69122136910E+02  0.00000000000E+00 0.  1.
         23    2    1    2    0    0  0.00000000000E+00  0.00000000000E+00 -0.40249686447E+02  0.97994587374E+02  0.89347086665E+02 0.  0.
        -13    1    3    3    0    0 -0.40802069890E+02 -0.58124268903E+01 -0.39030710110E+02  0.56762571694E+02  0.00000000000E+00 0.  1.
         13    1    3    3    0    0  0.40802069890E+02  0.58124268903E+01 -0.12189763362E+01  0.41232015679E+02  0.00000000000E+00 0. -1.
<mgrwt>
<rscale>  0 0.89347087E+02</rscale>
<asrwt>0</asrwt>
<pdfrwt beam="1">  1        4 0.44419155E-02 0.89347087E+02</pdfrwt>
<pdfrwt beam="2">  1       -4 0.10634175E-01 0.89347087E+02</pdfrwt>
<totfact> 0.28080153E+04</totfact>
</mgrwt>
</event>
<event>
 5    1  0.1256986E+001  0.9068899E+02  0.7546771E-02  0.1301192E+00
         -1   -1    0    0    0  501 -0.00000000000E+00  0.00000000000E+00  0.18618854574E+02  0.18618854574E+02  0.00000000000E+00 0.  1.
          1   -1    0    0  501    0  0.00000000000E+00 -0.00000000000E+00 -0.11043231333E+03  0.11043231333E+03  0.00000000000E+00 0. -1.
         23    2    1    2    0    0  0.00000000000E+00  0.00000000000E+00 -0.91813458754E+02  0.12905116790E+03  0.90688989015E+02 0.  0.
        -13    1    3    3    0    0  0.25808685823E+02  0.27668564961E+02 -0.10346174066E+02  0.39226025401E+02  0.00000000000E+00 0.  1.
         13    1    3    3    0    0 -0.25808685823E+02 -0.27668564961E+02 -0.81467284688E+02  0.89825142501E+02  0.00000000000E+00 0. -1.
<mgrwt>
<rscale>  0 0.90688989E+02</rscale>
<asrwt>0</asrwt>
<pdfrwt beam="2">  1        1 0.16989586E-01 0.90688989E+02</pdfrwt>
<pdfrwt beam="1">  1       -1 0.28644393E-02 0.90688989E+02</pdfrwt>
<totfact> 0.10776959E+05</totfact>
</mgrwt>
</event>
<event>
 5    1  0.1256986E+001  0.9231349E+02  0.7546771E-02  0.1297344E+00
         -1   -1    0    0    0  501 -0.00000000000E+00  0.00000000000E+00  0.31909611228E+02  0.31909611228E+02  0.00000000000E+00 0.  1.
          1   -1    0    0  501    0  0.00000000000E+00 -0.00000000000E+00 -0.66764992702E+02  0.66764992702E+02  0.00000000000E+00 0. -1.
         23    2    1    2    0    0  0.00000000000E+00  0.00000000000E+00 -0.34855381475E+02  0.98674603930E+02  0.92313486789E+02 0.  0.
        -11    1    3    3    0    0  0.28784190354E+02 -0.18925375575E+02  0.15409627737E+02  0.37737992554E+02  0.00000000000E+00 0.  1.
         11    1    3    3    0    0 -0.28784190354E+02  0.18925375575E+02 -0.50265009211E+02  0.60936611376E+02  0.00000000000E+00 0. -1.
<mgrwt>
<rscale>  0 0.92313487E+02</rscale>
<asrwt>0</asrwt>
<pdfrwt beam="2">  1        1 0.10271537E-01 0.92313487E+02</pdfrwt>
<pdfrwt beam="1">  1       -1 0.49091711E-02 0.92313487E+02</pdfrwt>
<totfact> 0.94649655E+04</totfact>
</mgrwt>
</event>
<event>
 5    1  0.1256986E+001  0.9254432E+02  0.7546771E-02  0.1296805E+00
          4   -1    0    0  501    0  0.00000000000E+00  0.00000000000E+00  0.45551430481E+02  0.45551430481E+02  0.00000000000E+00 0. -1.
         -4   -1    0    0    0  501 -0.00000000000E+00 -0.00000000000E+00 -0.47004292905E+02  0.47004292905E+02  0.00000000000E+00 0.  1.
         23    2    1    2    0    0  0.00000000000E+00  0.00000000000E+00 -0.14528624247E+01  0.92555723386E+02  0.92544319773E+02 0.  0.
        -13    1    3    3    0    0 -0.14394956975E+02 -0.32934029036E+01 -0.44584445875E+02  0.46966308168E+02  0.00000000000E+00 0.  1.
         13    1    3    3    0    0  0.14394956975E+02  0.32934029036E+01  0.43131583450E+02  0.45589415218E+02  0.00000000000E+00 0. -1.
<mgrwt>
<rscale>  0 0.92544320E+02</rscale>
<asrwt>0</asrwt>
<pdfrwt beam="1">  1        4 0.70079124E-02 0.92544320E+02</pdfrwt>
<pdfrwt beam="2">  1       -4 0.72314296E-02 0.92544320E+02</pdfrwt>
<totfact> 0.25858147E+04</totfact>
</mgrwt>
</event>
<event>
 5    1  0.1256986E+001  0.9743192E+02  0.7546771E-02  0.1285791E+00
         -3   -1    0    0    0  501 -0.00000000000E+00  0.00000000000E+00  0.12249458382E+02  0.12249458382E+02  0.00000000000E+00 0.  1.
          3   -1    0    0  501    0  0.00000000000E+00 -0.00000000000E+00 -0.19374281854E+03  0.19374281854E+03  0.00000000000E+00 0. -1.
         23    2    1    2    0    0  0.00000000000E+00  0.00000000000E+00 -0.18149336016E+03  0.20599227692E+03  0.97431916587E+02 0.  0.
        -11    1    3    3    0    0 -0.23653644484E+02  0.41419872060E+02 -0.69801633321E+02  0.84542112069E+02  0.00000000000E+00 0.  1.
         11    1    3    3    0    0  0.23653644484E+02 -0.41419872060E+02 -0.11169172684E+03  0.12145016485E+03  0.00000000000E+00 0. -1.
<mgrwt>
<rscale>  0 0.97431917E+02</rscale>
<asrwt>0</asrwt>
<pdfrwt beam="2">  1        3 0.29806584E-01 0.97431917E+02</pdfrwt>
<pdfrwt beam="1">  1       -3 0.18845323E-02 0.97431917E+02</pdfrwt>
<totfact> 0.23551203E+04</totfact>
</mgrwt>
</event>
<event>
 5    1  0.1256986E+001  0.9268092E+02  0.7546771E-02  0.1296486E+00
          2   -1    0    0  501    0  0.00000000000E+00  0.00000000000E+00  0.35184132092E+02  0.35184132092E+02  0.00000000000E+00 0. -1.
         -2   -1    0    0    0  501 -0.00000000000E+00 -0.00000000000E+00 -0.61034278803E+02  0.61034278803E+02  0.00000000000E+00 0.  1.
         23    2    1    2    0    0  0.00000000000E+00  0.00000000000E+00 -0.25850146711E+02  0.96218410895E+02  0.92680917724E+02 0.  0.
        -13    1    3    3    0    0  0.16912406444E+02  0.25060253526E+02  0.23535078740E+02  0.38313779894E+02  0.00000000000E+00 0. -1.
         13    1    3    3    0    0 -0.16912406444E+02 -0.25060253526E+02 -0.49385225451E+02  0.57904631001E+02  0.00000000000E+00 0.  1.
<mgrwt>
<rscale>  0 0.92680918E+02</rscale>
<asrwt>0</asrwt>
<pdfrwt beam="1">  1        2 0.54129434E-02 0.92680918E+02</pdfrwt>
<pdfrwt beam="2">  1       -2 0.93898890E-02 0.92680918E+02</pdfrwt>
<totfact> 0.87937818E+04</totfact>
</mgrwt>
</event>
<event>
 5    1  0.1256986E+001  0.9242190E+02  0.7546771E-02  0.1297090E+00
         -2   -1    0    0    0  501 -0.00000000000E+00  0.00000000000E+00  0.56841139290E+01  0.56841139290E+01  0.00000000000E+00 0.  1.
          2   -1    0    0  501    0  0.00000000000E+00 -0.00000000000E+00 -0.37568776191E+03  0.37568776191E+03  0.00000000000E+00 0. -1.
         23    2    1    2    0    0  0.00000000000E+00  0.00000000000E+00 -0.37000364798E+03  0.38137187584E+03  0.92421903040E+02 0.  0.
        -11    1    3    3    0    0  0.43067241483E+02  0.78945129339E+01 -0.24597542133E+03  0.24984198711E+03  0.00000000000E+00 0. -1.
         11    1    3    3    0    0 -0.43067241483E+02 -0.78945129339E+01 -0.12402822665E+03  0.13152988873E+03  0.00000000000E+00 0.  1.
<mgrwt>
<rscale>  0 0.92421903E+02</rscale>
<asrwt>0</asrwt>
<pdfrwt beam="2">  1        2 0.57798140E-01 0.92421903E+02</pdfrwt>
<pdfrwt beam="1">  1       -2 0.87447871E-03 0.92421903E+02</pdfrwt>
<totfact> 0.18824543E+05</totfact>
</mgrwt>
</event>
<event>
 5    1  0.1256986E+001  0.1075344E+03  0.7546771E-02  0.1265205E+00
          1   -1    0    0  501    0  0.00000000000E+00  0.00000000000E+00  0.29311417939E+03  0.29311417939E+03  0.00000000000E+00 0. -1.
         -1   -1    0    0    0  501 -0.00000000000E+00 -0.00000000000E+00 -0.98627466696E+01  0.98627466696E+01  0.00000000000E+00 0.  1.
         23    2    1    2    0    0  0.00000000000E+00  0.00000000000E+00  0.28325143272E+03  0.30297692606E+03  0.10753438328E+03 0.  0.
        -11    1    3    3    0    0  0.32898585922E+02 -0.31909335976E+02  0.62415274607E+02  0.77435064294E+02  0.00000000000E+00 0.  1.
         11    1    3    3    0    0 -0.32898585922E+02  0.31909335976E+02  0.22083615812E+03  0.22554186177E+03  0.00000000000E+00 0. -1.
<mgrwt>
<rscale>  0 0.10753438E+03</rscale>
<asrwt>0</asrwt>
<pdfrwt beam="1">  1        1 0.45094482E-01 0.10753438E+03</pdfrwt>
<pdfrwt beam="2">  1       -1 0.15173459E-02 0.10753438E+03</pdfrwt>
<totfact> 0.81843920E+04</totfact>
</mgrwt>
</event>
<event>
 5    1  0.1256986E+001  0.9302029E+02  0.7546771E-02  0.1295698E+00
         -2   -1    0    0    0  501 -0.00000000000E+00  0.00000000000E+00  0.71609371092E+02  0.71609371092E+02  0.00000000000E+00 0.  1.
          2   -1    0    0  501    0  0.00000000000E+00 -0.00000000000E+00 -0.30208249260E+02  0.30208249260E+02  0.00000000000E+00 0. -1.
         23    2    1    2    0    0  0.00000000000E+00  0.00000000000E+00  0.41401121832E+02  0.10181762035E+03  0.93020293083E+02 0.  0.
        -11    1    3    3    0    0 -0.30054944292E+02 -0.30441186032E+01  0.59409316365E+02  0.66648579921E+02  0.00000000000E+00 0.  1.
         11    1    3    3    0    0  0.30054944292E+02  0.30441186032E+01 -0.18008194533E+02  0.35169040431E+02  0.00000000000E+00 0. -1.
<mgrwt>
<rscale>  0 0.93020293E+02</rscale>
<asrwt>0</asrwt>
<pdfrwt beam="2">  1        2 0.46474230E-02 0.93020293E+02</pdfrwt>
<pdfrwt beam="1">  1       -2 0.11016826E-01 0.93020293E+02</pdfrwt>
<totfact> 0.83504080E+04</totfact>
</mgrwt>
</event>
<event>
 5    1  0.1256986E+001  0.9013735E+02  0.7546771E-02  0.1302519E+00
         -2   -1    0    0    0  501 -0.00000000000E+00  0.00000000000E+00  0.19169795771E+03  0.19169795771E+03  0.00000000000E+00 0.  1.
          2   -1    0    0  501    0  0.00000000000E+00 -0.00000000000E+00 -0.10595759791E+02  0.10595759791E+02  0.00000000000E+00 0. -1.
         23    2    1    2    0    0  0.00000000000E+00  0.00000000000E+00  0.18110219792E+03  0.20229371750E+03  0.90137351020E+02 0.  0.
        -11    1    3    3    0    0  0.44320968896E+02  0.80728641535E+01  0.87654241091E+02  0.98553464682E+02  0.00000000000E+00 0.  1.
         11    1    3    3    0    0 -0.44320968896E+02 -0.80728641535E+01  0.93447956827E+02  0.10374025282E+03  0.00000000000E+00 0. -1.
<mgrwt>
<rscale>  0 0.90137351E+02</rscale>
<asrwt>0</asrwt>
<pdfrwt beam="2">  1        2 0.16301170E-02 0.90137351E+02</pdfrwt>
<pdfrwt beam="1">  1       -2 0.29491991E-01 0.90137351E+02</pdfrwt>
<totfact> 0.65340463E+04</totfact>
</mgrwt>
</event>
<event>
 5    1  0.1256986E+001  0.8950760E+02  0.7546771E-02  0.1304049E+00
          3   -1    0    0  501    0  0.00000000000E+00  0.00000000000E+00  0.27232769801E+02  0.27232769801E+02  0.00000000000E+00 0. -1.
         -3   -1    0    0    0  501 -0.00000000000E+00 -0.00000000000E+00 -0.73547518258E+02  0.73547518258E+02  0.00000000000E+00 0.  1.
         23    2    1    2    0    0  0.00000000000E+00  0.00000000000E+00 -0.46314748457E+02  0.10078028806E+03  0.89507600441E+02 0.  0.
        -11    1    3    3    0    0 -0.35440185414E+02  0.13698835483E+02 -0.49783865427E+02  0.62626656407E+02  0.00000000000E+00 0.  1.
         11    1    3    3    0    0  0.35440185414E+02 -0.13698835483E+02  0.34691169703E+01  0.38153631653E+02  0.00000000000E+00 0. -1.
<mgrwt>
<rscale>  0 0.89507600E+02</rscale>
<asrwt>0</asrwt>
<pdfrwt beam="1">  1        3 0.41896569E-02 0.89507600E+02</pdfrwt>
<pdfrwt beam="2">  1       -3 0.11315003E-01 0.89507600E+02</pdfrwt>
<totfact> 0.36395468E+04</totfact>
</mgrwt>
</event>
<event>
 5    1  0.1256986E+001  0.8904563E+02  0.7546771E-02  0.1305179E+00
          1   -1    0    0  501    0  0.00000000000E+00  0.00000000000E+00  0.36132093842E+02  0.36132093842E+02  0.00000000000E+00 0. -1.
         -1   -1    0    0    0  501 -0.00000000000E+00 -0.00000000000E+00 -0.54862058579E+02  0.54862058579E+02  0.00000000000E+00 0.  1.
         23    2    1    2    0    0  0.00000000000E+00  0.00000000000E+00 -0.18729964738E+02  0.90994152421E+02  0.89045629852E+02 0.  0.
        -13    1    3    3    0    0 -0.88203096383E+01  0.37817580676E+02  0.12890332564E+02  0.40916108612E+02  0.00000000000E+00 0. -1.
         13    1    3    3    0    0  0.88203096383E+01 -0.37817580676E+02 -0.31620297302E+02  0.50078043809E+02  0.00000000000E+00 0.  1.
<mgrwt>
<rscale>  0 0.89045630E+02</rscale>
<asrwt>0</asrwt>
<pdfrwt beam="1">  1        1 0.55587837E-02 0.89045630E+02</pdfrwt>
<pdfrwt beam="2">  1       -1 0.84403167E-02 0.89045630E+02</pdfrwt>
<totfact> 0.95445834E+04</totfact>
</mgrwt>
</event>
<event>
 5    1  0.1256986E+001  0.9500499E+02  0.7546771E-02  0.1291165E+00
         -2   -1    0    0    0  501 -0.00000000000E+00  0.00000000000E+00  0.46252494069E+02  0.46252494069E+02  0.00000000000E+00 0.  1.
          2   -1    0    0  501    0  0.00000000000E+00 -0.00000000000E+00 -0.48786274662E+02  0.48786274662E+02  0.00000000000E+00 0. -1.
         23    2    1    2    0    0  0.00000000000E+00  0.00000000000E+00 -0.25337805934E+01  0.95038768731E+02  0.95004986805E+02 0.  0.
        -13    1    3    3    0    0 -0.37644788598E+02 -0.19506257662E+02  0.20161806963E+02  0.46948084695E+02  0.00000000000E+00 0.  1.
         13    1    3    3    0    0  0.37644788598E+02  0.19506257662E+02 -0.22695587556E+02  0.48090684036E+02  0.00000000000E+00 0. -1.
<mgrwt>
<rscale>  0 0.95004987E+02</rscale>
<asrwt>0</asrwt>
<pdfrwt beam="2">  1        2 0.75055807E-02 0.95004987E+02</pdfrwt>
<pdfrwt beam="1">  1       -2 0.71157683E-02 0.95004987E+02</pdfrwt>
<totfact> 0.89244876E+04</totfact>
</mgrwt>
</event>
<event>
 5    1  0.1256986E+001  0.9680762E+02  0.7546771E-02  0.1287156E+00
         -2   -1    0    0    0  501 -0.00000000000E+00  0.00000000000E+00  0.11287238895E+02  0.11287238895E+02  0.00000000000E+00 0.  1.
          2   -1    0    0  501    0  0.00000000000E+00 -0.00000000000E+00 -0.20757322638E+03  0.20757322638E+03  0.00000000000E+00 0. -1.
         23    2    1    2    0    0  0.00000000000E+00  0.00000000000E+00 -0.19628598748E+03  0.21886046527E+03  0.96807615287E+02 0.  0.
        -13    1    3    3    0    0  0.20950279905E+02  0.43450422703E+02 -0.89078676706E+02  0.10130085935E+03  0.00000000000E+00 0.  1.
         13    1    3    3    0    0 -0.20950279905E+02 -0.43450422703E+02 -0.10720731078E+03  0.11755960593E+03  0.00000000000E+00 0. -1.
<mgrwt>
<rscale>  0 0.96807615E+02</rscale>
<asrwt>0</asrwt>
<pdfrwt beam="2">  1        2 0.31934338E-01 0.96807615E+02</pdfrwt>
<pdfrwt beam="1">  1       -2 0.17364985E-02 0.96807615E+02</pdfrwt>
<totfact> 0.13334799E+05</totfact>
</mgrwt>
</event>
<event>
 5    1  0.1256986E+001  0.9140864E+02  0.7546771E-02  0.1299476E+00
          2   -1    0    0  501    0  0.00000000000E+00  0.00000000000E+00  0.14247930223E+03  0.14247930223E+03  0.00000000000E+00 0. -1.
         -2   -1    0    0    0  501 -0.00000000000E+00 -0.00000000000E+00 -0.14660971114E+02  0.14660971114E+02  0.00000000000E+00 0.  1.
         23    2    1    2    0    0  0.00000000000E+00  0.00000000000E+00  0.12781833111E+03  0.15714027334E+03  0.91408641482E+02 0.  0.
        -11    1    3    3    0    0 -0.32567452608E+02  0.28528578951E+02  0.89078883680E+02  0.99043254712E+02  0.00000000000E+00 0. -1.
         11    1    3    3    0    0  0.32567452608E+02 -0.28528578951E+02  0.38739447435E+02  0.58097018631E+02  0.00000000000E+00 0.  1.
<mgrwt>
<rscale>  0 0.91408641E+02</rscale>
<asrwt>0</asrwt>
<pdfrwt beam="1">  1        2 0.21919892E-01 0.91408641E+02</pdfrwt>
<pdfrwt beam="2">  1       -2 0.22555341E-02 0.91408641E+02</pdfrwt>
<totfact> 0.13645340E+05</totfact>
</mgrwt>
</event>
<event>
 5    1  0.1256986E+001  0.9027932E+02  0.7546771E-02  0.1302177E+00
          2   -1    0    0  501    0  0.00000000000E+00  0.00000000000E+00  0.85729039743E+02  0.85729039743E+02  0.00000000000E+00 0.  1.
         -2   -1    0    0    0  501 -0.00000000000E+00 -0.00000000000E+00 -0.23767781141E+02  0.23767781141E+02  0.00000000000E+00 0. -1.
         23    2    1    2    0    0  0.00000000000E+00  0.00000000000E+00  0.61961258602E+02  0.10949682088E+03  0.90279323304E+02 0.  0.
        -13    1    3    3    0    0 -0.27657575357E+02 -0.63799222780E+01 -0.11589868486E+02  0.30658929114E+02  0.00000000000E+00 0. -1.
         13    1    3    3    0    0  0.27657575357E+02  0.63799222780E+01  0.73551127088E+02  0.78837891770E+02  0.00000000000E+00 0.  1.
<mgrwt>
<rscale>  0 0.90279323E+02</rscale>
<asrwt>0</asrwt>
<pdfrwt beam="1">  1        2 0.13189083E-01 0.90279323E+02</pdfrwt>
<pdfrwt beam="2">  1       -2 0.36565817E-02 0.90279323E+02</pdfrwt>
<totfact> 0.12042429E+05</totfact>
</mgrwt>
</event>
<event>
 5    1  0.1256986E+001  0.9248140E+02  0.7546771E-02  0.1296951E+00
          1   -1    0    0  501    0  0.00000000000E+00  0.00000000000E+00  0.43847205584E+02  0.43847205584E+02  0.00000000000E+00 0. -1.
         -1   -1    0    0    0  501 -0.00000000000E+00 -0.00000000000E+00 -0.48764850892E+02  0.48764850892E+02  0.00000000000E+00 0.  1.
         23    2    1    2    0    0  0.00000000000E+00  0.00000000000E+00 -0.49176453082E+01  0.92612056477E+02  0.92481402290E+02 0.  0.
        -11    1    3    3    0    0 -0.99079044299E+01 -0.41242787309E+02 -0.20898646122E+02  0.47285171935E+02  0.00000000000E+00 0.  1.
         11    1    3    3    0    0  0.99079044299E+01  0.41242787309E+02  0.15981000814E+02  0.45326884541E+02  0.00000000000E+00 0. -1.
<mgrwt>
<rscale>  0 0.92481402E+02</rscale>
<asrwt>0</asrwt>
<pdfrwt beam="1">  1        1 0.67457240E-02 0.92481402E+02</pdfrwt>
<pdfrwt beam="2">  1       -1 0.75022847E-02 0.92481402E+02</pdfrwt>
<totfact> 0.88323972E+04</totfact>
</mgrwt>
</event>
<event>
 5    1  0.1256986E+001  0.8779842E+02  0.7546771E-02  0.1308272E+00
          2   -1    0    0  501    0  0.00000000000E+00  0.00000000000E+00  0.28310886474E+03  0.28310886474E+03  0.00000000000E+00 0.  1.
         -2   -1    0    0    0  501 -0.00000000000E+00 -0.00000000000E+00 -0.68070657073E+01  0.68070657073E+01  0.00000000000E+00 0. -1.
         23    2    1    2    0    0  0.00000000000E+00  0.00000000000E+00  0.27630179904E+03  0.28991593045E+03  0.87798420137E+02 0.  0.
        -13    1    3    3    0    0 -0.32131792045E+02 -0.28679619141E+02  0.16620251037E+03  0.17169230346E+03  0.00000000000E+00 0.  1.
         13    1    3    3    0    0  0.32131792045E+02  0.28679619141E+02  0.11009928866E+03  0.11822362699E+03  0.00000000000E+00 0. -1.
<mgrwt>
<rscale>  0 0.87798420E+02</rscale>
<asrwt>0</asrwt>
<pdfrwt beam="1">  1        2 0.43555201E-01 0.87798420E+02</pdfrwt>
<pdfrwt beam="2">  1       -2 0.10472411E-02 0.87798420E+02</pdfrwt>
<totfact> 0.19442550E+05</totfact>
</mgrwt>
</event>
<event>
 5    1  0.1256986E+001  0.9203393E+02  0.7546771E-02  0.1298000E+00
         -2   -1    0    0    0  501 -0.00000000000E+00  0.00000000000E+00  0.51881990286E+01  0.51881990286E+01  0.00000000000E+00 0.  1.
          2   -1    0    0  501    0  0.00000000000E+00 -0.00000000000E+00 -0.40814951296E+03  0.40814951296E+03  0.00000000000E+00 0. -1.
         23    2    1    2    0    0  0.00000000000E+00  0.00000000000E+00 -0.40296131393E+03  0.41333771199E+03  0.92033926498E+02 0.  0.
        -13    1    3    3    0    0  0.42089744951E+02  0.18468187849E+02 -0.21146304307E+03  0.21640064505E+03  0.00000000000E+00 0. -1.
         13    1    3    3    0    0 -0.42089744951E+02 -0.18468187849E+02 -0.19149827087E+03  0.19693706694E+03  0.00000000000E+00 0.  1.
<mgrwt>
<rscale>  0 0.92033926E+02</rscale>
<asrwt>0</asrwt>
<pdfrwt beam="2">  1        2 0.62792241E-01 0.92033926E+02</pdfrwt>
<pdfrwt beam="1">  1       -2 0.79818436E-03 0.92033926E+02</pdfrwt>
<totfact> 0.19612878E+05</totfact>
</mgrwt>
</event>
<event>
 5    1  0.1256986E+001  0.9195834E+02  0.7546771E-02  0.1298177E+00
         -2   -1    0    0    0  501 -0.00000000000E+00  0.00000000000E+00  0.88616474526E+02  0.88616474526E+02  0.00000000000E+00 0. -1.
          2   -1    0    0  501    0  0.00000000000E+00 -0.00000000000E+00 -0.23856558723E+02  0.23856558723E+02  0.00000000000E+00 0.  1.
         23    2    1    2    0    0  0.00000000000E+00  0.00000000000E+00  0.64759915803E+02  0.11247303325E+03  0.91958341185E+02 0.  0.
        -11    1    3    3    0    0  0.18003703576E+02  0.42011183113E+02  0.26263144497E+02  0.52714567322E+02  0.00000000000E+00 0.  1.
         11    1    3    3    0    0 -0.18003703576E+02 -0.42011183113E+02  0.38496771306E+02  0.59758465927E+02  0.00000000000E+00 0. -1.
<mgrwt>
<rscale>  0 0.91958341E+02</rscale>
<asrwt>0</asrwt>
<pdfrwt beam="2">  1        2 0.36702398E-02 0.91958341E+02</pdfrwt>
<pdfrwt beam="1">  1       -2 0.13633304E-01 0.91958341E+02</pdfrwt>
<totfact> 0.80942811E+04</totfact>
</mgrwt>
</event>
<event>
 5    1  0.1256986E+001  0.8819078E+02  0.7546771E-02  0.1307293E+00
          3   -1    0    0  501    0  0.00000000000E+00  0.00000000000E+00  0.15303507136E+02  0.15303507136E+02  0.00000000000E+00 0. -1.
         -3   -1    0    0    0  501 -0.00000000000E+00 -0.00000000000E+00 -0.12705605505E+03  0.12705605505E+03  0.00000000000E+00 0.  1.
         23    2    1    2    0    0  0.00000000000E+00  0.00000000000E+00 -0.11175254791E+03  0.14235956218E+03  0.88190776050E+02 0.  0.
        -11    1    3    3    0    0  0.18718185452E+02  0.25718110453E+02 -0.65800243852E+01  0.32482124204E+02  0.00000000000E+00 0. -1.
         11    1    3    3    0    0 -0.18718185452E+02 -0.25718110453E+02 -0.10517252353E+03  0.10987743798E+03  0.00000000000E+00 0.  1.
<mgrwt>
<rscale>  0 0.88190776E+02</rscale>
<asrwt>0</asrwt>
<pdfrwt beam="1">  1        3 0.23543857E-02 0.88190776E+02</pdfrwt>
<pdfrwt beam="2">  1       -3 0.19547085E-01 0.88190776E+02</pdfrwt>
<totfact> 0.34772902E+04</totfact>
</mgrwt>
</event>
<event>
 5    1  0.1256986E+001  0.9103022E+02  0.7546771E-02  0.1300376E+00
         -2   -1    0    0    0  501 -0.00000000000E+00  0.00000000000E+00  0.44536258682E+02  0.44536258682E+02  0.00000000000E+00 0.  1.
          2   -1    0    0  501    0  0.00000000000E+00 -0.00000000000E+00 -0.46515480083E+02  0.46515480083E+02  0.00000000000E+00 0. -1.
         23    2    1    2    0    0  0.00000000000E+00  0.00000000000E+00 -0.19792214007E+01  0.91051738765E+02  0.91030224732E+02 0.  0.
        -11    1    3    3    0    0  0.28889883567E+02  0.30122506818E+02  0.17170524045E+02  0.45131116599E+02  0.00000000000E+00 0.  1.
         11    1    3    3    0    0 -0.28889883567E+02 -0.30122506818E+02 -0.19149745446E+02  0.45920622166E+02  0.00000000000E+00 0. -1.
<mgrwt>
<rscale>  0 0.91030225E+02</rscale>
<asrwt>0</asrwt>
<pdfrwt beam="2">  1        2 0.71562277E-02 0.91030225E+02</pdfrwt>
<pdfrwt beam="1">  1       -2 0.68517321E-02 0.91030225E+02</pdfrwt>
<totfact> 0.99650814E+04</totfact>
</mgrwt>
</event>
<event>
 5    1  0.1256986E+001  0.9164961E+02  0.7546771E-02  0.1298905E+00
         -1   -1    0    0    0  501 -0.00000000000E+00  0.00000000000E+00  0.10305462013E+03  0.10305462013E+03  0.00000000000E+00 0.  1.
          1   -1    0    0  501    0  0.00000000000E+00 -0.00000000000E+00 -0.20376696753E+02  0.20376696753E+02  0.00000000000E+00 0. -1.
         23    2    1    2    0    0  0.00000000000E+00  0.00000000000E+00  0.82677923376E+02  0.12343131688E+03  0.91649609783E+02 0.  0.
        -11    1    3    3    0    0  0.15531585521E+02 -0.39587389138E+02  0.64333771694E+02  0.77118257941E+02  0.00000000000E+00 0.  1.
         11    1    3    3    0    0 -0.15531585521E+02  0.39587389138E+02  0.18344151682E+02  0.46313058941E+02  0.00000000000E+00 0. -1.
<mgrwt>
<rscale>  0 0.91649610E+02</rscale>
<asrwt>0</asrwt>
<pdfrwt beam="2">  1        1 0.31348765E-02 0.91649610E+02</pdfrwt>
<pdfrwt beam="1">  1       -1 0.15854557E-01 0.91649610E+02</pdfrwt>
<totfact> 0.79840829E+04</totfact>
</mgrwt>
</event>
<event>
 5    1  0.1256986E+001  0.9165067E+02  0.7546771E-02  0.1298903E+00
          2   -1    0    0  501    0  0.00000000000E+00  0.00000000000E+00  0.30203676071E+03  0.30203676071E+03  0.00000000000E+00 0. -1.
         -2   -1    0    0    0  501 -0.00000000000E+00 -0.00000000000E+00 -0.69526685361E+01  0.69526685361E+01  0.00000000000E+00 0.  1.
         23    2    1    2    0    0  0.00000000000E+00  0.00000000000E+00  0.29508409217E+03  0.30898942924E+03  0.91650673384E+02 0.  0.
        -11    1    3    3    0    0  0.16337929431E+02 -0.40464736546E+02  0.10038622831E+03  0.10946103269E+03  0.00000000000E+00 0.  1.
         11    1    3    3    0    0 -0.16337929431E+02  0.40464736546E+02  0.19469786386E+03  0.19952839656E+03  0.00000000000E+00 0. -1.
<mgrwt>
<rscale>  0 0.91650673E+02</rscale>
<asrwt>0</asrwt>
<pdfrwt beam="1">  1        2 0.46467184E-01 0.91650673E+02</pdfrwt>
<pdfrwt beam="2">  1       -2 0.10696415E-02 0.91650673E+02</pdfrwt>
<totfact> 0.17763743E+05</totfact>
</mgrwt>
</event>
<event>
 5    1  0.1256986E+001  0.9105357E+02  0.7546771E-02  0.1300320E+00
          1   -1    0    0  501    0  0.00000000000E+00  0.00000000000E+00  0.28994660538E+02  0.28994660538E+02  0.00000000000E+00 0. -1.
         -1   -1    0    0    0  501 -0.00000000000E+00 -0.00000000000E+00 -0.71485172705E+02  0.71485172705E+02  0.00000000000E+00 0.  1.
         23    2    1    2    0    0  0.00000000000E+00  0.00000000000E+00 -0.42490512167E+02  0.10047983324E+03  0.91053573594E+02 0.  0.
        -11    1    3    3    0    0 -0.42145811759E+01 -0.39191858181E+02  0.38929183860E+01  0.39609585402E+02  0.00000000000E+00 0. -1.
         11    1    3    3    0    0  0.42145811759E+01  0.39191858181E+02 -0.46383430553E+02  0.60870247840E+02  0.00000000000E+00 0.  1.
<mgrwt>
<rscale>  0 0.91053574E+02</rscale>
<asrwt>0</asrwt>
<pdfrwt beam="1">  1        1 0.44607171E-02 0.91053574E+02</pdfrwt>
<pdfrwt beam="2">  1       -1 0.10997719E-01 0.91053574E+02</pdfrwt>
<totfact> 0.86543492E+04</totfact>
</mgrwt>
</event>
<event>
 5    1  0.1256986E+001  0.8896047E+02  0.7546771E-02  0.1305389E+00
         -3   -1    0    0    0  501 -0.00000000000E+00  0.00000000000E+00  0.19595930874E+02  0.19595930874E+02  0.00000000000E+00 0.  1.
          3   -1    0    0  501    0  0.00000000000E+00 -0.00000000000E+00 -0.10096439129E+03  0.10096439129E+03  0.00000000000E+00 0. -1.
         23    2    1    2    0    0  0.00000000000E+00  0.00000000000E+00 -0.81368460413E+02  0.12056032216E+03  0.88960468353E+02 0.  0.
        -13    1    3    3    0    0 -0.14745758620E+02  0.18336034322E+02  0.10471106718E+02  0.25754448700E+02  0.00000000000E+00 0.  1.
         13    1    3    3    0    0  0.14745758620E+02 -0.18336034322E+02 -0.91839567131E+02  0.94805873461E+02  0.00000000000E+00 0. -1.
<mgrwt>
<rscale>  0 0.88960468E+02</rscale>
<asrwt>0</asrwt>
<pdfrwt beam="2">  1        3 0.15532983E-01 0.88960468E+02</pdfrwt>
<pdfrwt beam="1">  1       -3 0.30147586E-02 0.88960468E+02</pdfrwt>
<totfact> 0.35496252E+04</totfact>
</mgrwt>
</event>
<event>
 5    1  0.1256986E+001  0.9293246E+02  0.7546771E-02  0.1295902E+00
          1   -1    0    0  501    0  0.00000000000E+00  0.00000000000E+00  0.26997393364E+03  0.26997393364E+03  0.00000000000E+00 0. -1.
         -1   -1    0    0    0  501 -0.00000000000E+00 -0.00000000000E+00 -0.79974781408E+01  0.79974781408E+01  0.00000000000E+00 0.  1.
         23    2    1    2    0    0  0.00000000000E+00  0.00000000000E+00  0.26197645550E+03  0.27797141178E+03  0.92932462206E+02 0.  0.
        -11    1    3    3    0    0  0.31842261314E+02 -0.24153242076E+02  0.60091808592E+02  0.72168789433E+02  0.00000000000E+00 0.  1.
         11    1    3    3    0    0 -0.31842261314E+02  0.24153242076E+02  0.20188464691E+03  0.20580262235E+03  0.00000000000E+00 0. -1.
<mgrwt>
<rscale>  0 0.92932462E+02</rscale>
<asrwt>0</asrwt>
<pdfrwt beam="1">  1        1 0.41534444E-01 0.92932462E+02</pdfrwt>
<pdfrwt beam="2">  1       -1 0.12303815E-02 0.92932462E+02</pdfrwt>
<totfact> 0.11930075E+05</totfact>
</mgrwt>
</event>
<event>
 5    1  0.1256986E+001  0.9113001E+02  0.7546771E-02  0.1300138E+00
          2   -1    0    0  501    0  0.00000000000E+00  0.00000000000E+00  0.60629659895E+02  0.60629659895E+02  0.00000000000E+00 0. -1.
         -2   -1    0    0    0  501 -0.00000000000E+00 -0.00000000000E+00 -0.34243469202E+02  0.34243469202E+02  0.00000000000E+00 0.  1.
         23    2    1    2    0    0  0.00000000000E+00  0.00000000000E+00  0.26386190693E+02  0.94873129097E+02  0.91130014624E+02 0.  0.
        -11    1    3    3    0    0 -0.21634329130E+02  0.53525333474E+01  0.54568124376E+02  0.58943820779E+02  0.00000000000E+00 0. -1.
         11    1    3    3    0    0  0.21634329130E+02 -0.53525333474E+01 -0.28181933683E+02  0.35929308318E+02  0.00000000000E+00 0.  1.
<mgrwt>
<rscale>  0 0.91130015E+02</rscale>
<asrwt>0</asrwt>
<pdfrwt beam="1">  1        2 0.93276400E-02 0.91130015E+02</pdfrwt>
<pdfrwt beam="2">  1       -2 0.52682260E-02 0.91130015E+02</pdfrwt>
<totfact> 0.10652141E+05</totfact>
</mgrwt>
</event>
<event>
 5    1  0.1256986E+001  0.8974348E+02  0.7546771E-02  0.1303474E+00
         -4   -1    0    0    0  501 -0.00000000000E+00  0.00000000000E+00  0.14413668656E+02  0.14413668656E+02  0.00000000000E+00 0.  1.
          4   -1    0    0  501    0  0.00000000000E+00 -0.00000000000E+00 -0.13969190474E+03  0.13969190474E+03  0.00000000000E+00 0. -1.
         23    2    1    2    0    0  0.00000000000E+00  0.00000000000E+00 -0.12527823608E+03  0.15410557339E+03  0.89743475057E+02 0.  0.
        -11    1    3    3    0    0 -0.13777580463E+02 -0.38342933457E+02 -0.94923471018E+02  0.10329795554E+03  0.00000000000E+00 0. -1.
         11    1    3    3    0    0  0.13777580463E+02  0.38342933457E+02 -0.30354765062E+02  0.50807617849E+02  0.00000000000E+00 0.  1.
<mgrwt>
<rscale>  0 0.89743475E+02</rscale>
<asrwt>0</asrwt>
<pdfrwt beam="2">  1        4 0.21491062E-01 0.89743475E+02</pdfrwt>
<pdfrwt beam="1">  1       -4 0.22174875E-02 0.89743475E+02</pdfrwt>
<totfact> 0.24487727E+04</totfact>
</mgrwt>
</event>
<event>
 5    1  0.1256986E+001  0.9066549E+02  0.7546771E-02  0.1301248E+00
          2   -1    0    0  501    0  0.00000000000E+00  0.00000000000E+00  0.25453942998E+02  0.25453942998E+02  0.00000000000E+00 0. -1.
         -2   -1    0    0    0  501 -0.00000000000E+00 -0.00000000000E+00 -0.80736318652E+02  0.80736318652E+02  0.00000000000E+00 0.  1.
         23    2    1    2    0    0  0.00000000000E+00  0.00000000000E+00 -0.55282375655E+02  0.10619026165E+03  0.90665487432E+02 0.  0.
        -13    1    3    3    0    0 -0.13400695541E+02 -0.37321932639E+02 -0.19126615701E+01  0.39700926578E+02  0.00000000000E+00 0. -1.
         13    1    3    3    0    0  0.13400695541E+02  0.37321932639E+02 -0.53369714084E+02  0.66489335072E+02  0.00000000000E+00 0.  1.
<mgrwt>
<rscale>  0 0.90665487E+02</rscale>
<asrwt>0</asrwt>
<pdfrwt beam="1">  1        2 0.39159913E-02 0.90665487E+02</pdfrwt>
<pdfrwt beam="2">  1       -2 0.12420972E-01 0.90665487E+02</pdfrwt>
<totfact> 0.86044396E+04</totfact>
</mgrwt>
</event>
<event>
 5    1  0.1256986E+001  0.9292923E+02  0.7546771E-02  0.1295909E+00
         -1   -1    0    0    0  501 -0.00000000000E+00  0.00000000000E+00  0.14817657680E+03  0.14817657680E+03  0.00000000000E+00 0.  1.
          1   -1    0    0  501    0  0.00000000000E+00 -0.00000000000E+00 -0.14570186973E+02  0.14570186973E+02  0.00000000000E+00 0. -1.
         23    2    1    2    0    0  0.00000000000E+00  0.00000000000E+00  0.13360638983E+03  0.16274676378E+03  0.92929229611E+02 0.  0.
        -13    1    3    3    0    0  0.40971475116E+02 -0.40875046949E+01  0.29095715343E+02  0.50417557647E+02  0.00000000000E+00 0. -1.
         13    1    3    3    0    0 -0.40971475116E+02  0.40875046949E+01  0.10451067449E+03  0.11232920613E+03  0.00000000000E+00 0.  1.
<mgrwt>
<rscale>  0 0.92929230E+02</rscale>
<asrwt>0</asrwt>
<pdfrwt beam="2">  1        1 0.22415673E-02 0.92929230E+02</pdfrwt>
<pdfrwt beam="1">  1       -1 0.22796395E-01 0.92929230E+02</pdfrwt>
<totfact> 0.71382138E+04</totfact>
</mgrwt>
</event>
<event>
 5    1  0.1256986E+001  0.9951905E+02  0.7546771E-02  0.1281311E+00
          1   -1    0    0  501    0  0.00000000000E+00  0.00000000000E+00  0.17643156546E+03  0.17643156546E+03  0.00000000000E+00 0. -1.
         -1   -1    0    0    0  501 -0.00000000000E+00 -0.00000000000E+00 -0.14033827718E+02  0.14033827718E+02  0.00000000000E+00 0.  1.
         23    2    1    2    0    0  0.00000000000E+00  0.00000000000E+00  0.16239773774E+03  0.19046539317E+03  0.99519047294E+02 0.  0.
        -13    1    3    3    0    0  0.28938655770E+02 -0.39262864150E+02  0.10004740338E+03  0.11130364424E+03  0.00000000000E+00 0. -1.
         13    1    3    3    0    0 -0.28938655770E+02  0.39262864150E+02  0.62350334363E+02  0.79161748933E+02  0.00000000000E+00 0.  1.
<mgrwt>
<rscale>  0 0.99519047E+02</rscale>
<asrwt>0</asrwt>
<pdfrwt beam="1">  1        1 0.27143316E-01 0.99519047E+02</pdfrwt>
<pdfrwt beam="2">  1       -1 0.21590505E-02 0.99519047E+02</pdfrwt>
<totfact> 0.91223972E+04</totfact>
</mgrwt>
</event>
<event>
 5    1  0.1256986E+001  0.7455303E+02  0.7546771E-02  0.1345261E+00
         -1   -1    0    0    0  501 -0.00000000000E+00  0.00000000000E+00  0.35070956840E+02  0.35070956840E+02  0.00000000000E+00 0.  1.
          1   -1    0    0  501    0  0.00000000000E+00 -0.00000000000E+00 -0.39620772601E+02  0.39620772601E+02  0.00000000000E+00 0. -1.
         23    2    1    2    0    0  0.00000000000E+00  0.00000000000E+00 -0.45498157605E+01  0.74691729441E+02  0.74553025582E+02 0.  0.
        -13    1    3    3    0    0  0.71581100984E+01  0.98531162667E+01 -0.37571349037E+02  0.39495932813E+02  0.00000000000E+00 0. -1.
         13    1    3    3    0    0 -0.71581100984E+01 -0.98531162667E+01  0.33021533276E+02  0.35195796628E+02  0.00000000000E+00 0.  1.
<mgrwt>
<rscale>  0 0.74553026E+02</rscale>
<asrwt>0</asrwt>
<pdfrwt beam="2">  1        1 0.60955034E-02 0.74553026E+02</pdfrwt>
<pdfrwt beam="1">  1       -1 0.53955319E-02 0.74553026E+02</pdfrwt>
<totfact> 0.15835421E+05</totfact>
</mgrwt>
</event>
<event>
 5    1  0.1256986E+001  0.9157613E+02  0.7546771E-02  0.1299079E+00
          1   -1    0    0  501    0  0.00000000000E+00  0.00000000000E+00  0.20270094251E+03  0.20270094251E+03  0.00000000000E+00 0. -1.
         -1   -1    0    0    0  501 -0.00000000000E+00 -0.00000000000E+00 -0.10343054221E+02  0.10343054221E+02  0.00000000000E+00 0.  1.
         23    2    1    2    0    0  0.00000000000E+00  0.00000000000E+00  0.19235788829E+03  0.21304399673E+03  0.91576128746E+02 0.  0.
        -11    1    3    3    0    0  0.18964115754E+02 -0.39072582445E+02  0.62446545132E+02  0.76064941886E+02  0.00000000000E+00 0.  1.
         11    1    3    3    0    0 -0.18964115754E+02  0.39072582445E+02  0.12991134316E+03  0.13697905485E+03  0.00000000000E+00 0. -1.
<mgrwt>
<rscale>  0 0.91576129E+02</rscale>
<asrwt>0</asrwt>
<pdfrwt beam="1">  1        1 0.31184757E-01 0.91576129E+02</pdfrwt>
<pdfrwt beam="2">  1       -1 0.15912393E-02 0.91576129E+02</pdfrwt>
<totfact> 0.11733049E+05</totfact>
</mgrwt>
</event>
<event>
 5    1  0.1256986E+001  0.9060482E+02  0.7546771E-02  0.1301394E+00
         -2   -1    0    0    0  501 -0.00000000000E+00  0.00000000000E+00  0.81811231131E+02  0.81811231131E+02  0.00000000000E+00 0.  1.
          2   -1    0    0  501    0  0.00000000000E+00 -0.00000000000E+00 -0.25085900060E+02  0.25085900060E+02  0.00000000000E+00 0. -1.
         23    2    1    2    0    0  0.00000000000E+00  0.00000000000E+00  0.56725331071E+02  0.10689713119E+03  0.90604820357E+02 0.  0.
        -11    1    3    3    0    0 -0.38717373757E+02  0.74809490582E+01  0.54673086198E+02  0.67410280995E+02  0.00000000000E+00 0. -1.
         11    1    3    3    0    0  0.38717373757E+02 -0.74809490582E+01  0.20522448736E+01  0.39486850197E+02  0.00000000000E+00 0.  1.
<mgrwt>
<rscale>  0 0.90604820E+02</rscale>
<asrwt>0</asrwt>
<pdfrwt beam="2">  1        2 0.38593693E-02 0.90604820E+02</pdfrwt>
<pdfrwt beam="1">  1       -2 0.12586343E-01 0.90604820E+02</pdfrwt>
<totfact> 0.85871406E+04</totfact>
</mgrwt>
</event>
<event>
 5    1  0.1256986E+001  0.9008678E+02  0.7546771E-02  0.1302642E+00
          1   -1    0    0  501    0  0.00000000000E+00  0.00000000000E+00  0.74742992569E+02  0.74742992569E+02  0.00000000000E+00 0. -1.
         -1   -1    0    0    0  501 -0.00000000000E+00 -0.00000000000E+00 -0.27145114303E+02  0.27145114303E+02  0.00000000000E+00 0.  1.
         23    2    1    2    0    0  0.00000000000E+00  0.00000000000E+00  0.47597878266E+02  0.10188810687E+03  0.90086782086E+02 0.  0.
        -11    1    3    3    0    0  0.95374522605E+01  0.10073291703E+02 -0.24669013847E+02  0.28301845267E+02  0.00000000000E+00 0.  1.
         11    1    3    3    0    0 -0.95374522605E+01 -0.10073291703E+02  0.72266892113E+02  0.73586261605E+02  0.00000000000E+00 0. -1.
<mgrwt>
<rscale>  0 0.90086782E+02</rscale>
<asrwt>0</asrwt>
<pdfrwt beam="1">  1        1 0.11498922E-01 0.90086782E+02</pdfrwt>
<pdfrwt beam="2">  1       -1 0.41761715E-02 0.90086782E+02</pdfrwt>
<totfact> 0.10302404E+05</totfact>
</mgrwt>
</event>
<event>
 5    1  0.1256986E+001  0.7818684E+02  0.7546771E-02  0.1334277E+00
          2   -1    0    0  501    0  0.00000000000E+00  0.00000000000E+00  0.10331707246E+03  0.10331707246E+03  0.00000000000E+00 0. -1.
         -2   -1    0    0    0  501 -0.00000000000E+00 -0.00000000000E+00 -0.14792285940E+02  0.14792285940E+02  0.00000000000E+00 0.  1.
         23    2    1    2    0    0  0.00000000000E+00  0.00000000000E+00  0.88524786517E+02  0.11810935840E+03  0.78186844884E+02 0.  0.
        -11    1    3    3    0    0 -0.34606879021E+02 -0.17381034580E+02  0.52335188585E+02  0.65105363857E+02  0.00000000000E+00 0. -1.
         11    1    3    3    0    0  0.34606879021E+02  0.17381034580E+02  0.36189597932E+02  0.53003994539E+02  0.00000000000E+00 0.  1.
<mgrwt>
<rscale>  0 0.78186845E+02</rscale>
<asrwt>0</asrwt>
<pdfrwt beam="1">  1        2 0.15894934E-01 0.78186845E+02</pdfrwt>
<pdfrwt beam="2">  1       -2 0.22757364E-02 0.78186845E+02</pdfrwt>
<totfact> 0.18815931E+05</totfact>
</mgrwt>
</event>
<event>
 5    1  0.1256986E+001  0.9206999E+02  0.7546771E-02  0.1297915E+00
         -1   -1    0    0    0  501 -0.00000000000E+00  0.00000000000E+00  0.84582468500E+01  0.84582468500E+01  0.00000000000E+00 0.  1.
          1   -1    0    0  501    0  0.00000000000E+00 -0.00000000000E+00 -0.25055083851E+03  0.25055083851E+03  0.00000000000E+00 0. -1.
         23    2    1    2    0    0  0.00000000000E+00  0.00000000000E+00 -0.24209259166E+03  0.25900908536E+03  0.92069991650E+02 0.  0.
        -11    1    3    3    0    0 -0.38924744504E+02  0.26827102787E+01 -0.52316764763E+02  0.65263899243E+02  0.00000000000E+00 0.  1.
         11    1    3    3    0    0  0.38924744504E+02 -0.26827102787E+01 -0.18977582690E+03  0.19374518612E+03  0.00000000000E+00 0. -1.
<mgrwt>
<rscale>  0 0.92069992E+02</rscale>
<asrwt>0</asrwt>
<pdfrwt beam="2">  1        1 0.38546287E-01 0.92069992E+02</pdfrwt>
<pdfrwt beam="1">  1       -1 0.13012686E-02 0.92069992E+02</pdfrwt>
<totfact> 0.12053888E+05</totfact>
</mgrwt>
</event>
<event>
 5    1  0.1256986E+001  0.9095037E+02  0.7546771E-02  0.1300566E+00
         -2   -1    0    0    0  501 -0.00000000000E+00  0.00000000000E+00  0.15184907504E+02  0.15184907504E+02  0.00000000000E+00 0.  1.
          2   -1    0    0  501    0  0.00000000000E+00 -0.00000000000E+00 -0.13618735583E+03  0.13618735583E+03  0.00000000000E+00 0. -1.
         23    2    1    2    0    0  0.00000000000E+00  0.00000000000E+00 -0.12100244832E+03  0.15137226333E+03  0.90950368916E+02 0.  0.
        -11    1    3    3    0    0  0.43017074940E+02 -0.12734563499E+02 -0.72884014837E+02  0.85584563226E+02  0.00000000000E+00 0. -1.
         11    1    3    3    0    0 -0.43017074940E+02  0.12734563499E+02 -0.48118433487E+02  0.65787700106E+02  0.00000000000E+00 0.  1.
<mgrwt>
<rscale>  0 0.90950369E+02</rscale>
<asrwt>0</asrwt>
<pdfrwt beam="2">  1        2 0.20951900E-01 0.90950369E+02</pdfrwt>
<pdfrwt beam="1">  1       -2 0.23361397E-02 0.90950369E+02</pdfrwt>
<totfact> 0.13626171E+05</totfact>
</mgrwt>
</event>
<event>
 5    1  0.1256986E+001  0.8828331E+02  0.7546771E-02  0.1307063E+00
         -1   -1    0    0    0  501 -0.00000000000E+00  0.00000000000E+00  0.14015802835E+02  0.14015802835E+02  0.00000000000E+00 0.  1.
          1   -1    0    0  501    0  0.00000000000E+00 -0.00000000000E+00 -0.13902063264E+03  0.13902063264E+03  0.00000000000E+00 0. -1.
         23    2    1    2    0    0  0.00000000000E+00  0.00000000000E+00 -0.12500482981E+03  0.15303643548E+03  0.88283311609E+02 0.  0.
        -11    1    3    3    0    0 -0.40438070185E+02 -0.12964465130E+02 -0.41616379413E+02  0.59457866694E+02  0.00000000000E+00 0.  1.
         11    1    3    3    0    0  0.40438070185E+02  0.12964465130E+02 -0.83388450397E+02  0.93578568786E+02  0.00000000000E+00 0. -1.
<mgrwt>
<rscale>  0 0.88283312E+02</rscale>
<asrwt>0</asrwt>
<pdfrwt beam="2">  1        1 0.21387790E-01 0.88283312E+02</pdfrwt>
<pdfrwt beam="1">  1       -1 0.21562773E-02 0.88283312E+02</pdfrwt>
<totfact> 0.12063225E+05</totfact>
</mgrwt>
</event>
<event>
 5    1  0.1256986E+001  0.9582205E+02  0.7546771E-02  0.1289335E+00
          1   -1    0    0  501    0  0.00000000000E+00  0.00000000000E+00  0.12515675776E+03  0.12515675776E+03  0.00000000000E+00 0. -1.
         -1   -1    0    0    0  501 -0.00000000000E+00 -0.00000000000E+00 -0.18340729116E+02  0.18340729116E+02  0.00000000000E+00 0.  1.
         23    2    1    2    0    0  0.00000000000E+00  0.00000000000E+00  0.10681602864E+03  0.14349748688E+03  0.95822047381E+02 0.  0.
        -13    1    3    3    0    0 -0.35450925924E+02  0.31797401588E+02  0.61278772802E+02  0.77607544045E+02  0.00000000000E+00 0.  1.
         13    1    3    3    0    0  0.35450925924E+02 -0.31797401588E+02  0.45537255842E+02  0.65889942830E+02  0.00000000000E+00 0. -1.
<mgrwt>
<rscale>  0 0.95822047E+02</rscale>
<asrwt>0</asrwt>
<pdfrwt beam="1">  1        1 0.19254885E-01 0.95822047E+02</pdfrwt>
<pdfrwt beam="2">  1       -1 0.28216507E-02 0.95822047E+02</pdfrwt>
<totfact> 0.94815412E+04</totfact>
</mgrwt>
</event>
<event>
 5    1  0.1256986E+001  0.9033595E+02  0.7546771E-02  0.1302040E+00
         -2   -1    0    0    0  501 -0.00000000000E+00  0.00000000000E+00  0.41503705495E+02  0.41503705495E+02  0.00000000000E+00 0. -1.
          2   -1    0    0  501    0  0.00000000000E+00 -0.00000000000E+00 -0.49155754732E+02  0.49155754732E+02  0.00000000000E+00 0.  1.
         23    2    1    2    0    0  0.00000000000E+00  0.00000000000E+00 -0.76520492369E+01  0.90659460227E+02  0.90335950048E+02 0.  0.
        -13    1    3    3    0    0 -0.30769007521E+02  0.13054196862E+01  0.29333337046E+02  0.42530937053E+02  0.00000000000E+00 0. -1.
         13    1    3    3    0    0  0.30769007521E+02 -0.13054196862E+01 -0.36985386283E+02  0.48128523174E+02  0.00000000000E+00 0.  1.
<mgrwt>
<rscale>  0 0.90335950E+02</rscale>
<asrwt>0</asrwt>
<pdfrwt beam="2">  1        2 0.75624238E-02 0.90335950E+02</pdfrwt>
<pdfrwt beam="1">  1       -2 0.63851855E-02 0.90335950E+02</pdfrwt>
<totfact> 0.10332197E+05</totfact>
</mgrwt>
</event>
<event>
 5    1  0.1256986E+001  0.9248322E+02  0.7546771E-02  0.1296947E+00
         -2   -1    0    0    0  501 -0.00000000000E+00  0.00000000000E+00  0.24458133049E+02  0.24458133049E+02  0.00000000000E+00 0.  1.
          2   -1    0    0  501    0  0.00000000000E+00 -0.00000000000E+00 -0.87426392146E+02  0.87426392146E+02  0.00000000000E+00 0. -1.
         23    2    1    2    0    0  0.00000000000E+00  0.00000000000E+00 -0.62968259097E+02  0.11188452520E+03  0.92483216448E+02 0.  0.
        -11    1    3    3    0    0  0.36791497057E+02 -0.26179133587E+02 -0.43541052127E+02  0.62727860726E+02  0.00000000000E+00 0. -1.
         11    1    3    3    0    0 -0.36791497057E+02  0.26179133587E+02 -0.19427206970E+02  0.49156664469E+02  0.00000000000E+00 0.  1.
<mgrwt>
<rscale>  0 0.92483216E+02</rscale>
<asrwt>0</asrwt>
<pdfrwt beam="2">  1        2 0.13450214E-01 0.92483216E+02</pdfrwt>
<pdfrwt beam="1">  1       -2 0.37627898E-02 0.92483216E+02</pdfrwt>
<totfact> 0.11328713E+05</totfact>
</mgrwt>
</event>
<event>
 5    1  0.1256986E+001  0.1008309E+03  0.7546771E-02  0.1278558E+00
         -2   -1    0    0    0  501 -0.00000000000E+00  0.00000000000E+00  0.18568583805E+02  0.18568583805E+02  0.00000000000E+00 0.  1.
          2   -1    0    0  501    0  0.00000000000E+00 -0.00000000000E+00 -0.13688272997E+03  0.13688272997E+03  0.00000000000E+00 0. -1.
         23    2    1    2    0    0  0.00000000000E+00  0.00000000000E+00 -0.11831414617E+03  0.15545131378E+03  0.10083091675E+03 0.  0.
        -11    1    3    3    0    0  0.49659504343E+02 -0.63366059393E+01 -0.49971383223E+02  0.70734419398E+02  0.00000000000E+00 0.  1.
         11    1    3    3    0    0 -0.49659504343E+02  0.63366059393E+01 -0.68342762944E+02  0.84716894379E+02  0.00000000000E+00 0. -1.
<mgrwt>
<rscale>  0 0.10083092E+03</rscale>
<asrwt>0</asrwt>
<pdfrwt beam="2">  1        2 0.21058881E-01 0.10083092E+03</pdfrwt>
<pdfrwt beam="1">  1       -2 0.28567053E-02 0.10083092E+03</pdfrwt>
<totfact> 0.10287613E+05</totfact>
</mgrwt>
</event>
<event>
 5    1  0.1256986E+001  0.9011904E+02  0.7546771E-02  0.1302564E+00
         -3   -1    0    0    0  501 -0.00000000000E+00  0.00000000000E+00  0.81668196986E+02  0.81668196986E+02  0.00000000000E+00 0.  1.
          3   -1    0    0  501    0  0.00000000000E+00 -0.00000000000E+00 -0.24861090331E+02  0.24861090331E+02  0.00000000000E+00 0. -1.
         23    2    1    2    0    0  0.00000000000E+00  0.00000000000E+00  0.56807106656E+02  0.10652928732E+03  0.90119041771E+02 0.  0.
        -13    1    3    3    0    0 -0.21221574690E+02  0.39688542154E+02  0.25807027510E+02  0.51880037390E+02  0.00000000000E+00 0.  1.
         13    1    3    3    0    0  0.21221574690E+02 -0.39688542154E+02  0.31000079145E+02  0.54649249928E+02  0.00000000000E+00 0. -1.
<mgrwt>
<rscale>  0 0.90119042E+02</rscale>
<asrwt>0</asrwt>
<pdfrwt beam="2">  1        3 0.38247832E-02 0.90119042E+02</pdfrwt>
<pdfrwt beam="1">  1       -3 0.12564338E-01 0.90119042E+02</pdfrwt>
<totfact> 0.35295642E+04</totfact>
</mgrwt>
</event>
<event>
 5    1  0.1256986E+001  0.9024373E+02  0.7546771E-02  0.1302263E+00
          3   -1    0    0  501    0  0.00000000000E+00  0.00000000000E+00  0.34662219943E+02  0.34662219943E+02  0.00000000000E+00 0. -1.
         -3   -1    0    0    0  501 -0.00000000000E+00 -0.00000000000E+00 -0.58737809274E+02  0.58737809274E+02  0.00000000000E+00 0.  1.
         23    2    1    2    0    0  0.00000000000E+00  0.00000000000E+00 -0.24075589331E+02  0.93400029217E+02  0.90243733612E+02 0.  0.
        -13    1    3    3    0    0 -0.39895140520E+01  0.17997120468E+02  0.30587233992E+02  0.35712623130E+02  0.00000000000E+00 0. -1.
         13    1    3    3    0    0  0.39895140520E+01 -0.17997120468E+02 -0.54662823323E+02  0.57687406088E+02  0.00000000000E+00 0.  1.
<mgrwt>
<rscale>  0 0.90243734E+02</rscale>
<asrwt>0</asrwt>
<pdfrwt beam="1">  1        3 0.53326493E-02 0.90243734E+02</pdfrwt>
<pdfrwt beam="2">  1       -3 0.90365859E-02 0.90243734E+02</pdfrwt>
<totfact> 0.36166675E+04</totfact>
</mgrwt>
</event>
<event>
 5    1  0.1256986E+001  0.9285246E+02  0.7546771E-02  0.1296087E+00
         -2   -1    0    0    0  501 -0.00000000000E+00  0.00000000000E+00  0.29544367542E+02  0.29544367542E+02  0.00000000000E+00 0.  1.
          2   -1    0    0  501    0  0.00000000000E+00 -0.00000000000E+00 -0.72954501868E+02  0.72954501868E+02  0.00000000000E+00 0. -1.
         23    2    1    2    0    0  0.00000000000E+00  0.00000000000E+00 -0.43410134327E+02  0.10249886941E+03  0.92852455369E+02 0.  0.
        -13    1    3    3    0    0  0.13064581002E+02 -0.95774222867E+01  0.26323451397E+02  0.30908484076E+02  0.00000000000E+00 0.  1.
         13    1    3    3    0    0 -0.13064581002E+02  0.95774222867E+01 -0.69733585723E+02  0.71590385334E+02  0.00000000000E+00 0. -1.
<mgrwt>
<rscale>  0 0.92852455E+02</rscale>
<asrwt>0</asrwt>
<pdfrwt beam="2">  1        2 0.11223769E-01 0.92852455E+02</pdfrwt>
<pdfrwt beam="1">  1       -2 0.45452874E-02 0.92852455E+02</pdfrwt>
<totfact> 0.10633956E+05</totfact>
</mgrwt>
</event>
<event>
 5    1  0.1256986E+001  0.9113452E+02  0.7546771E-02  0.1300127E+00
          4   -1    0    0  501    0  0.00000000000E+00  0.00000000000E+00  0.24385469209E+02  0.24385469209E+02  0.00000000000E+00 0. -1.
         -4   -1    0    0    0  501 -0.00000000000E+00 -0.00000000000E+00 -0.85148053180E+02  0.85148053180E+02  0.00000000000E+00 0.  1.
         23    2    1    2    0    0  0.00000000000E+00  0.00000000000E+00 -0.60762583971E+02  0.10953352239E+03  0.91134520990E+02 0.  0.
        -13    1    3    3    0    0 -0.34463415909E+02 -0.82112706123E+01  0.40612146742E+01  0.35660138332E+02  0.00000000000E+00 0. -1.
         13    1    3    3    0    0  0.34463415909E+02  0.82112706123E+01 -0.64823798646E+02  0.73873384057E+02  0.00000000000E+00 0.  1.
<mgrwt>
<rscale>  0 0.91134521E+02</rscale>
<asrwt>0</asrwt>
<pdfrwt beam="1">  1        4 0.37516106E-02 0.91134521E+02</pdfrwt>
<pdfrwt beam="2">  1       -4 0.13099701E-01 0.91134521E+02</pdfrwt>
<totfact> 0.25913048E+04</totfact>
</mgrwt>
</event>
<event>
 5    1  0.1256986E+001  0.9122228E+02  0.7546771E-02  0.1299918E+00
         -1   -1    0    0    0  501 -0.00000000000E+00  0.00000000000E+00  0.12932845848E+03  0.12932845848E+03  0.00000000000E+00 0.  1.
          1   -1    0    0  501    0  0.00000000000E+00 -0.00000000000E+00 -0.16085988812E+02  0.16085988812E+02  0.00000000000E+00 0. -1.
         23    2    1    2    0    0  0.00000000000E+00  0.00000000000E+00  0.11324246966E+03  0.14541444729E+03  0.91222280965E+02 0.  0.
        -11    1    3    3    0    0 -0.11560587443E+02  0.30276668468E+02  0.10778191006E+03  0.11254894034E+03  0.00000000000E+00 0.  1.
         11    1    3    3    0    0  0.11560587443E+02 -0.30276668468E+02  0.54605596002E+01  0.32865506944E+02  0.00000000000E+00 0. -1.
<mgrwt>
<rscale>  0 0.91222281E+02</rscale>
<asrwt>0</asrwt>
<pdfrwt beam="2">  1        1 0.24747676E-02 0.91222281E+02</pdfrwt>
<pdfrwt beam="1">  1       -1 0.19896685E-01 0.91222281E+02</pdfrwt>
<totfact> 0.77210724E+04</totfact>
</mgrwt>
</event>
<event>
 5    1  0.1256986E+001  0.9079077E+02  0.7546771E-02  0.1300948E+00
          1   -1    0    0  501    0  0.00000000000E+00  0.00000000000E+00  0.41367820066E+02  0.41367820066E+02  0.00000000000E+00 0. -1.
         -1   -1    0    0    0  501 -0.00000000000E+00 -0.00000000000E+00 -0.49815070477E+02  0.49815070477E+02  0.00000000000E+00 0.  1.
         23    2    1    2    0    0  0.00000000000E+00  0.00000000000E+00 -0.84472504117E+01  0.91182890543E+02  0.90790767638E+02 0.  0.
        -11    1    3    3    0    0  0.30444161548E+02 -0.18718373007E+02  0.23888631908E+02  0.42987104983E+02  0.00000000000E+00 0. -1.
         11    1    3    3    0    0 -0.30444161548E+02  0.18718373007E+02 -0.32335882319E+02  0.48195785560E+02  0.00000000000E+00 0.  1.
<mgrwt>
<rscale>  0 0.90790768E+02</rscale>
<asrwt>0</asrwt>
<pdfrwt beam="1">  1        1 0.63642800E-02 0.90790768E+02</pdfrwt>
<pdfrwt beam="2">  1       -1 0.76638570E-02 0.90790768E+02</pdfrwt>
<totfact> 0.92223601E+04</totfact>
</mgrwt>
</event>
<event>
 4    1  0.1256986E+001  0.1499409E+03  0.7546771E-02  0.1200546E+00
         -2   -1    0    0    0  501 -0.00000000000E+00  0.00000000000E+00  0.27250971673E+02  0.27250971673E+02  0.00000000000E+00 0.  1.
          2   -1    0    0  501    0  0.00000000000E+00 -0.00000000000E+00 -0.20625215887E+03  0.20625215887E+03  0.00000000000E+00 0. -1.
        -11    1    1    2    0    0 -0.45119796685E+02  0.36740547722E+02 -0.15879498442E+02  0.60314362888E+02  0.00000000000E+00 0.  1.
         11    1    1    2    0    0  0.45119796685E+02 -0.36740547722E+02 -0.16312168876E+03  0.17318876766E+03  0.00000000000E+00 0. -1.
<mgrwt>
<rscale>  0 0.14994094E+03</rscale>
<asrwt>0</asrwt>
<pdfrwt beam="2">  1        2 0.31731103E-01 0.14994094E+03</pdfrwt>
<pdfrwt beam="1">  1       -2 0.41924570E-02 0.14994094E+03</pdfrwt>
<totfact> 0.39250293E+04</totfact>
</mgrwt>
</event>
<event>
 5    1  0.1256986E+001  0.9412812E+02  0.7546771E-02  0.1293152E+00
          2   -1    0    0  501    0  0.00000000000E+00  0.00000000000E+00  0.91519224834E+02  0.91519224834E+02  0.00000000000E+00 0. -1.
         -2   -1    0    0    0  501 -0.00000000000E+00 -0.00000000000E+00 -0.24202845959E+02  0.24202845959E+02  0.00000000000E+00 0.  1.
         23    2    1    2    0    0  0.00000000000E+00  0.00000000000E+00  0.67316378875E+02  0.11572207079E+03  0.94128119092E+02 0.  0.
        -11    1    3    3    0    0  0.39621017986E+02  0.16262385981E+02  0.96693926029E+01  0.43906576015E+02  0.00000000000E+00 0.  1.
         11    1    3    3    0    0 -0.39621017986E+02 -0.16262385981E+02  0.57646986272E+02  0.71815494778E+02  0.00000000000E+00 0. -1.
<mgrwt>
<rscale>  0 0.94128119E+02</rscale>
<asrwt>0</asrwt>
<pdfrwt beam="1">  1        2 0.14079881E-01 0.94128119E+02</pdfrwt>
<pdfrwt beam="2">  1       -2 0.37235148E-02 0.94128119E+02</pdfrwt>
<totfact> 0.10935380E+05</totfact>
</mgrwt>
</event>
<event>
 5    1  0.1256986E+001  0.9215746E+02  0.7546771E-02  0.1297710E+00
          2   -1    0    0  501    0  0.00000000000E+00  0.00000000000E+00  0.24984557590E+03  0.24984557590E+03  0.00000000000E+00 0.  1.
         -2   -1    0    0    0  501 -0.00000000000E+00 -0.00000000000E+00 -0.84982462821E+01  0.84982462821E+01  0.00000000000E+00 0. -1.
         23    2    1    2    0    0  0.00000000000E+00  0.00000000000E+00  0.24134732962E+03  0.25834382218E+03  0.92157457354E+02 0.  0.
        -11    1    3    3    0    0 -0.20865749198E+02 -0.31497883460E+02  0.19461634134E+03  0.19824988391E+03  0.00000000000E+00 0.  1.
         11    1    3    3    0    0  0.20865749198E+02  0.31497883460E+02  0.46730988276E+02  0.60093938275E+02  0.00000000000E+00 0. -1.
<mgrwt>
<rscale>  0 0.92157457E+02</rscale>
<asrwt>0</asrwt>
<pdfrwt beam="1">  1        2 0.38437775E-01 0.92157457E+02</pdfrwt>
<pdfrwt beam="2">  1       -2 0.13074227E-02 0.92157457E+02</pdfrwt>
<totfact> 0.16307610E+05</totfact>
</mgrwt>
</event>
<event>
 5    1  0.1256986E+001  0.9206916E+02  0.7546771E-02  0.1297917E+00
         -1   -1    0    0    0  501 -0.00000000000E+00  0.00000000000E+00  0.41705137080E+01  0.41705137080E+01  0.00000000000E+00 0.  1.
          1   -1    0    0  501    0  0.00000000000E+00 -0.00000000000E+00 -0.50813466343E+03  0.50813466343E+03  0.00000000000E+00 0. -1.
         23    2    1    2    0    0  0.00000000000E+00  0.00000000000E+00 -0.50396414972E+03  0.51230517714E+03  0.92069160512E+02 0.  0.
        -11    1    3    3    0    0  0.45423603283E+02  0.66429294870E+01 -0.23290816922E+03  0.23738923214E+03  0.00000000000E+00 0.  1.
         11    1    3    3    0    0 -0.45423603283E+02 -0.66429294870E+01 -0.27105598050E+03  0.27491594500E+03  0.00000000000E+00 0. -1.
<mgrwt>
<rscale>  0 0.92069161E+02</rscale>
<asrwt>0</asrwt>
<pdfrwt beam="2">  1        1 0.78174537E-01 0.92069161E+02</pdfrwt>
<pdfrwt beam="1">  1       -1 0.64161771E-03 0.92069161E+02</pdfrwt>
<totfact> 0.13596845E+05</totfact>
</mgrwt>
</event>
<event>
 5    1  0.1256986E+001  0.9407629E+02  0.7546771E-02  0.1293270E+00
         -1   -1    0    0    0  501 -0.00000000000E+00  0.00000000000E+00  0.19477453271E+02  0.19477453271E+02  0.00000000000E+00 0.  1.
          1   -1    0    0  501    0  0.00000000000E+00 -0.00000000000E+00 -0.11359735107E+03  0.11359735107E+03  0.00000000000E+00 0. -1.
         23    2    1    2    0    0  0.00000000000E+00  0.00000000000E+00 -0.94119897794E+02  0.13307480434E+03  0.94076290257E+02 0.  0.
        -11    1    3    3    0    0 -0.30241614008E+02  0.16124803315E+02 -0.92634149218E+02  0.98770694546E+02  0.00000000000E+00 0. -1.
         11    1    3    3    0    0  0.30241614008E+02 -0.16124803315E+02 -0.14857485766E+01  0.34304109792E+02  0.00000000000E+00 0.  1.
<mgrwt>
<rscale>  0 0.94076290E+02</rscale>
<asrwt>0</asrwt>
<pdfrwt beam="2">  1        1 0.17476515E-01 0.94076290E+02</pdfrwt>
<pdfrwt beam="1">  1       -1 0.29965313E-02 0.94076290E+02</pdfrwt>
<totfact> 0.98001054E+04</totfact>
</mgrwt>
</event>
<event>
 5    1  0.1256986E+001  0.8827990E+02  0.7546771E-02  0.1307071E+00
          1   -1    0    0  501    0  0.00000000000E+00  0.00000000000E+00  0.39985593970E+02  0.39985593970E+02  0.00000000000E+00 0. -1.
         -1   -1    0    0    0  501 -0.00000000000E+00 -0.00000000000E+00 -0.48725926050E+02  0.48725926050E+02  0.00000000000E+00 0.  1.
         23    2    1    2    0    0  0.00000000000E+00  0.00000000000E+00 -0.87403320805E+01  0.88711520020E+02  0.88279897934E+02 0.  0.
        -13    1    3    3    0    0  0.28591068609E+02  0.35861652189E+01 -0.37970532644E+02  0.47666247330E+02  0.00000000000E+00 0.  1.
         13    1    3    3    0    0 -0.28591068609E+02 -0.35861652189E+01  0.29230200564E+02  0.41045272690E+02  0.00000000000E+00 0. -1.
<mgrwt>
<rscale>  0 0.88279898E+02</rscale>
<asrwt>0</asrwt>
<pdfrwt beam="1">  1        1 0.61516299E-02 0.88279898E+02</pdfrwt>
<pdfrwt beam="2">  1       -1 0.74962963E-02 0.88279898E+02</pdfrwt>
<totfact> 0.99283814E+04</totfact>
</mgrwt>
</event>
<event>
 5    1  0.1256986E+001  0.8923780E+02  0.7546771E-02  0.1304708E+00
          2   -1    0    0  501    0  0.00000000000E+00  0.00000000000E+00  0.16624570651E+03  0.16624570651E+03  0.00000000000E+00 0. -1.
         -2   -1    0    0    0  501 -0.00000000000E+00 -0.00000000000E+00 -0.11975323554E+02  0.11975323554E+02  0.00000000000E+00 0.  1.
         23    2    1    2    0    0  0.00000000000E+00  0.00000000000E+00  0.15427038296E+03  0.17822103007E+03  0.89237797483E+02 0.  0.
        -11    1    3    3    0    0  0.18117018878E+02 -0.39473240327E+02  0.97549422612E+02  0.10678133230E+03  0.00000000000E+00 0. -1.
         11    1    3    3    0    0 -0.18117018878E+02  0.39473240327E+02  0.56720960347E+02  0.71439697771E+02  0.00000000000E+00 0.  1.
<mgrwt>
<rscale>  0 0.89237797E+02</rscale>
<asrwt>0</asrwt>
<pdfrwt beam="1">  1        2 0.25576261E-01 0.89237797E+02</pdfrwt>
<pdfrwt beam="2">  1       -2 0.18423576E-02 0.89237797E+02</pdfrwt>
<totfact> 0.15350179E+05</totfact>
</mgrwt>
</event>
<event>
 5    1  0.1256986E+001  0.9518636E+02  0.7546771E-02  0.1290757E+00
         -1   -1    0    0    0  501 -0.00000000000E+00  0.00000000000E+00  0.37739553787E+02  0.37739553787E+02  0.00000000000E+00 0.  1.
          1   -1    0    0  501    0  0.00000000000E+00 -0.00000000000E+00 -0.60019542643E+02  0.60019542643E+02  0.00000000000E+00 0. -1.
         23    2    1    2    0    0  0.00000000000E+00  0.00000000000E+00 -0.22279988856E+02  0.97759096430E+02  0.95186359482E+02 0.  0.
        -13    1    3    3    0    0  0.15145014962E+01  0.14444726025E+02  0.35407930878E+02  0.38270947124E+02  0.00000000000E+00 0.  1.
         13    1    3    3    0    0 -0.15145014962E+01 -0.14444726025E+02 -0.57687919734E+02  0.59488149306E+02  0.00000000000E+00 0. -1.
<mgrwt>
<rscale>  0 0.95186359E+02</rscale>
<asrwt>0</asrwt>
<pdfrwt beam="2">  1        1 0.92337757E-02 0.95186359E+02</pdfrwt>
<pdfrwt beam="1">  1       -1 0.58060853E-02 0.95186359E+02</pdfrwt>
<totfact> 0.85489655E+04</totfact>
</mgrwt>
</event>
<event>
 5    1  0.1256986E+001  0.9005578E+02  0.7546771E-02  0.1302717E+00
         -1   -1    0    0    0  501 -0.00000000000E+00  0.00000000000E+00  0.45290486293E+02  0.45290486293E+02  0.00000000000E+00 0.  1.
          1   -1    0    0  501    0  0.00000000000E+00 -0.00000000000E+00 -0.44766818934E+02  0.44766818934E+02  0.00000000000E+00 0. -1.
         23    2    1    2    0    0  0.00000000000E+00  0.00000000000E+00  0.52366735862E+00  0.90057305226E+02  0.90055782697E+02 0.  0.
        -13    1    3    3    0    0  0.23821386591E-01  0.31344016600E+02  0.32589815247E+02  0.45216634129E+02  0.00000000000E+00 0.  1.
         13    1    3    3    0    0 -0.23821386591E-01 -0.31344016600E+02 -0.32066147889E+02  0.44840671098E+02  0.00000000000E+00 0. -1.
<mgrwt>
<rscale>  0 0.90055783E+02</rscale>
<asrwt>0</asrwt>
<pdfrwt beam="2">  1        1 0.68872029E-02 0.90055783E+02</pdfrwt>
<pdfrwt beam="1">  1       -1 0.69677671E-02 0.90055783E+02</pdfrwt>
<totfact> 0.95475280E+04</totfact>
</mgrwt>
</event>
<event>
 5    1  0.1256986E+001  0.7275548E+02  0.7546771E-02  0.1350966E+00
         -2   -1    0    0    0  501 -0.00000000000E+00  0.00000000000E+00  0.47729878899E+02  0.47729878899E+02  0.00000000000E+00 0.  1.
          2   -1    0    0  501    0  0.00000000000E+00 -0.00000000000E+00 -0.27725610264E+02  0.27725610264E+02  0.00000000000E+00 0. -1.
         23    2    1    2    0    0  0.00000000000E+00  0.00000000000E+00  0.20004268635E+02  0.75455489163E+02  0.72755481452E+02 0.  0.
        -13    1    3    3    0    0 -0.20637160181E+02  0.32729184486E+01 -0.20881059229E+02  0.29540193128E+02  0.00000000000E+00 0. -1.
         13    1    3    3    0    0  0.20637160181E+02 -0.32729184486E+01  0.40885327863E+02  0.45915296035E+02  0.00000000000E+00 0.  1.
<mgrwt>
<rscale>  0 0.72755481E+02</rscale>
<asrwt>0</asrwt>
<pdfrwt beam="2">  1        2 0.42654785E-02 0.72755481E+02</pdfrwt>
<pdfrwt beam="1">  1       -2 0.73430583E-02 0.72755481E+02</pdfrwt>
<totfact> 0.16690438E+05</totfact>
</mgrwt>
</event>
<event>
 5    1  0.1256986E+001  0.9343688E+02  0.7546771E-02  0.1294736E+00
          2   -1    0    0  501    0  0.00000000000E+00  0.00000000000E+00  0.67419811059E+02  0.67419811059E+02  0.00000000000E+00 0. -1.
         -2   -1    0    0    0  501 -0.00000000000E+00 -0.00000000000E+00 -0.32373461598E+02  0.32373461598E+02  0.00000000000E+00 0.  1.
         23    2    1    2    0    0  0.00000000000E+00  0.00000000000E+00  0.35046349461E+02  0.99793272657E+02  0.93436880604E+02 0.  0.
        -13    1    3    3    0    0 -0.15058522808E+02 -0.21261751675E+02  0.58939993997E+02  0.64441788350E+02  0.00000000000E+00 0. -1.
         13    1    3    3    0    0  0.15058522808E+02  0.21261751675E+02 -0.23893644536E+02  0.35351484306E+02  0.00000000000E+00 0.  1.
<mgrwt>
<rscale>  0 0.93436881E+02</rscale>
<asrwt>0</asrwt>
<pdfrwt beam="1">  1        2 0.10372279E-01 0.93436881E+02</pdfrwt>
<pdfrwt beam="2">  1       -2 0.49805326E-02 0.93436881E+02</pdfrwt>
<totfact> 0.10219635E+05</totfact>
</mgrwt>
</event>
<event>
 5    1  0.1256986E+001  0.9109923E+02  0.7546771E-02  0.1300211E+00
         -2   -1    0    0    0  501 -0.00000000000E+00  0.00000000000E+00  0.11157694349E+02  0.11157694349E+02  0.00000000000E+00 0.  1.
          2   -1    0    0  501    0  0.00000000000E+00 -0.00000000000E+00 -0.18594947022E+03  0.18594947022E+03  0.00000000000E+00 0. -1.
         23    2    1    2    0    0  0.00000000000E+00  0.00000000000E+00 -0.17479177587E+03  0.19710716457E+03  0.91099228385E+02 0.  0.
        -13    1    3    3    0    0  0.31685705727E+02  0.20933738357E+02 -0.32978303107E+02  0.50296857008E+02  0.00000000000E+00 0.  1.
         13    1    3    3    0    0 -0.31685705727E+02 -0.20933738357E+02 -0.14181347276E+03  0.14681030756E+03  0.00000000000E+00 0. -1.
<mgrwt>
<rscale>  0 0.91099228E+02</rscale>
<asrwt>0</asrwt>
<pdfrwt beam="2">  1        2 0.28607611E-01 0.91099228E+02</pdfrwt>
<pdfrwt beam="1">  1       -2 0.17165684E-02 0.91099228E+02</pdfrwt>
<totfact> 0.15102849E+05</totfact>
</mgrwt>
</event>
<event>
 5    1  0.1256986E+001  0.8871613E+02  0.7546771E-02  0.1305991E+00
          2   -1    0    0  501    0  0.00000000000E+00  0.00000000000E+00  0.42804718427E+02  0.42804718427E+02  0.00000000000E+00 0.  1.
         -2   -1    0    0    0  501 -0.00000000000E+00 -0.00000000000E+00 -0.45967784252E+02  0.45967784252E+02  0.00000000000E+00 0. -1.
         23    2    1    2    0    0  0.00000000000E+00  0.00000000000E+00 -0.31630658252E+01  0.88772502680E+02  0.88716132956E+02 0.  0.
        -11    1    3    3    0    0  0.16563830301E+02 -0.11287449158E+02 -0.41177765084E+02  0.45797110390E+02  0.00000000000E+00 0. -1.
         11    1    3    3    0    0 -0.16563830301E+02  0.11287449158E+02  0.38014699259E+02  0.42975392290E+02  0.00000000000E+00 0.  1.
<mgrwt>
<rscale>  0 0.88716133E+02</rscale>
<asrwt>0</asrwt>
<pdfrwt beam="1">  1        2 0.65853413E-02 0.88716133E+02</pdfrwt>
<pdfrwt beam="2">  1       -2 0.70719668E-02 0.88716133E+02</pdfrwt>
<totfact> 0.10501119E+05</totfact>
</mgrwt>
</event>
<event>
 5    1  0.1256986E+001  0.9238984E+02  0.7546771E-02  0.1297165E+00
         -2   -1    0    0    0  501 -0.00000000000E+00  0.00000000000E+00  0.71467737031E+01  0.71467737031E+01  0.00000000000E+00 0. -1.
          2   -1    0    0  501    0  0.00000000000E+00 -0.00000000000E+00 -0.29859218228E+03  0.29859218228E+03  0.00000000000E+00 0.  1.
         23    2    1    2    0    0  0.00000000000E+00  0.00000000000E+00 -0.29144540858E+03  0.30573895598E+03  0.92389842651E+02 0.  0.
        -13    1    3    3    0    0  0.21489048214E+02  0.33530356228E+02 -0.22318313113E+03  0.22670856624E+03  0.00000000000E+00 0.  1.
         13    1    3    3    0    0 -0.21489048214E+02 -0.33530356228E+02 -0.68262277444E+02  0.79030389748E+02  0.00000000000E+00 0. -1.
<mgrwt>
<rscale>  0 0.92389843E+02</rscale>
<asrwt>0</asrwt>
<pdfrwt beam="2">  1        2 0.45937255E-01 0.92389843E+02</pdfrwt>
<pdfrwt beam="1">  1       -2 0.10995037E-02 0.92389843E+02</pdfrwt>
<totfact> 0.17312271E+05</totfact>
</mgrwt>
</event>
