<event>
 4    1  0.3704929E-001  0.3976627E+02  0.7818608E-02  0.1509939E+00
          2   -1    0    0  501    0  0.00000000000E+00  0.00000000000E+00  0.45407073012E+01  0.45407080456E+01  0.26000000000E-02 0.  1.
         -2   -1    0    0    0  501 -0.00000000000E+00 -0.00000000000E+00 -0.87065521879E+02  0.87065521918E+02  0.26000000000E-02 0. -1.
        -13    1    1    2    0    0 -0.12610660600E+02 -0.69412065985E+01 -0.72857980748E+02  0.74266450305E+02  0.10570000000E+00 0.  1.
         13    1    1    2    0    0  0.12610660600E+02  0.69412065985E+01 -0.96668338300E+01  0.17339779658E+02  0.10570000000E+00 0. -1.
<mgrwt>
<rscale>  0 0.39766271E+02</rscale>
<asrwt>0</asrwt>
<pdfrwt beam="1">  1        2 0.69857048E-03 0.39766271E+02</pdfrwt>
<pdfrwt beam="2">  1       -2 0.13394694E-01 0.39766271E+02</pdfrwt>
<totfact> 0.63418748E+05</totfact>
</mgrwt>
</event>
<event>
 4    1  0.3704929E-001  0.2788971E+02  0.7818608E-02  0.1622659E+00
          2   -1    0    0  501    0  0.00000000000E+00  0.00000000000E+00  0.62509825475E+01  0.62509830883E+01  0.26000000000E-02 0. -1.
         -2   -1    0    0    0  501 -0.00000000000E+00 -0.00000000000E+00 -0.31108554083E+02  0.31108554191E+02  0.26000000000E-02 0.  1.
        -13    1    1    2    0    0 -0.13587494885E+02 -0.76624343493E+00 -0.83567613218E+01  0.15970403205E+02  0.10570000000E+00 0. -1.
         13    1    1    2    0    0  0.13587494885E+02  0.76624343493E+00 -0.16500810213E+02  0.21389134074E+02  0.10570000000E+00 0.  1.
<mgrwt>
<rscale>  0 0.27889714E+02</rscale>
<asrwt>0</asrwt>
<pdfrwt beam="1">  1        2 0.96168969E-03 0.27889714E+02</pdfrwt>
<pdfrwt beam="2">  1       -2 0.47859314E-02 0.27889714E+02</pdfrwt>
<totfact> 0.17111135E+06</totfact>
</mgrwt>
</event>
<event>
 4    1  0.3704929E-001  0.2436795E+02  0.7818608E-02  0.1670250E+00
         -2   -1    0    0    0  501 -0.00000000000E+00  0.00000000000E+00  0.30462142571E+01  0.30462153667E+01  0.26000000000E-02 0. -1.
          2   -1    0    0  501    0  0.00000000000E+00 -0.00000000000E+00 -0.48732355919E+02  0.48732355988E+02  0.26000000000E-02 0.  1.
        -13    1    1    2    0    0 -0.74589874085E+01 -0.76488207426E+01 -0.10399076108E+02  0.14909490545E+02  0.10570000000E+00 0. -1.
         13    1    1    2    0    0  0.74589874085E+01  0.76488207426E+01 -0.35287065553E+02  0.36869080810E+02  0.10570000000E+00 0.  1.
<mgrwt>
<rscale>  0 0.24367948E+02</rscale>
<asrwt>0</asrwt>
<pdfrwt beam="2">  1        2 0.74972850E-02 0.24367948E+02</pdfrwt>
<pdfrwt beam="1">  1       -2 0.46864847E-03 0.24367948E+02</pdfrwt>
<totfact> 0.29486418E+06</totfact>
</mgrwt>
</event>
<event>
 4    1  0.3704929E-001  0.3559893E+02  0.7818608E-02  0.1543345E+00
          2   -1    0    0  501    0  0.00000000000E+00  0.00000000000E+00  0.61320019293E+01  0.61320024805E+01  0.26000000000E-02 0.  1.
         -2   -1    0    0    0  501 -0.00000000000E+00 -0.00000000000E+00 -0.51666805536E+02  0.51666805601E+02  0.26000000000E-02 0. -1.
        -13    1    1    2    0    0  0.11208482941E+02  0.73383228504E+01 -0.41794064584E+02  0.43888906105E+02  0.10570000000E+00 0. -1.
         13    1    1    2    0    0 -0.11208482941E+02 -0.73383228504E+01 -0.37407390222E+01  0.13909901977E+02  0.10570000000E+00 0.  1.
<mgrwt>
<rscale>  0 0.35598931E+02</rscale>
<asrwt>0</asrwt>
<pdfrwt beam="1">  1        2 0.94338499E-03 0.35598931E+02</pdfrwt>
<pdfrwt beam="2">  1       -2 0.79487391E-02 0.35598931E+02</pdfrwt>
<totfact> 0.90938968E+05</totfact>
</mgrwt>
</event>
<event>
 4    1  0.3704929E-001  0.2331048E+02  0.7818608E-02  0.1686526E+00
          2   -1    0    0  501    0  0.00000000000E+00  0.00000000000E+00  0.24432616827E+01  0.24432630661E+01  0.26000000000E-02 0.  1.
         -2   -1    0    0    0  501 -0.00000000000E+00 -0.00000000000E+00 -0.55599674478E+02  0.55599674539E+02  0.26000000000E-02 0. -1.
        -13    1    1    2    0    0  0.11035729584E+02 -0.84151277614E+00 -0.35671951727E+02  0.37349628963E+02  0.10570000000E+00 0. -1.
         13    1    1    2    0    0 -0.11035729584E+02  0.84151277614E+00 -0.17484461068E+02  0.20693308642E+02  0.10570000000E+00 0.  1.
<mgrwt>
<rscale>  0 0.23310478E+02</rscale>
<asrwt>0</asrwt>
<pdfrwt beam="1">  1        2 0.37588656E-03 0.23310478E+02</pdfrwt>
<pdfrwt beam="2">  1       -2 0.85537953E-02 0.23310478E+02</pdfrwt>
<totfact> 0.23774219E+06</totfact>
</mgrwt>
</event>
<event>
 4    1  0.3704929E-001  0.2612588E+02  0.7818608E-02  0.1645338E+00
          2   -1    0    0  501    0  0.00000000000E+00  0.00000000000E+00  0.14585364432E+01  0.14585387606E+01  0.26000000000E-02 0.  1.
         -2   -1    0    0    0  501 -0.00000000000E+00 -0.00000000000E+00 -0.11699420681E+03  0.11699420684E+03  0.26000000000E-02 0. -1.
        -13    1    1    2    0    0 -0.52292748673E+01  0.11752349406E+02 -0.68073162408E+02  0.69277915997E+02  0.10570000000E+00 0. -1.
         13    1    1    2    0    0  0.52292748673E+01 -0.11752349406E+02 -0.47462507958E+02  0.49174829602E+02  0.10570000000E+00 0.  1.
<mgrwt>
<rscale>  0 0.26125884E+02</rscale>
<asrwt>0</asrwt>
<pdfrwt beam="1">  1        2 0.22439049E-03 0.26125884E+02</pdfrwt>
<pdfrwt beam="2">  1       -2 0.17999102E-01 0.26125884E+02</pdfrwt>
<totfact> 0.15738382E+06</totfact>
</mgrwt>
</event>
<event>
 4    1  0.3704929E-001  0.1480299E+03  0.7818608E-02  0.1202915E+00
         -2   -1    0    0    0  501 -0.00000000000E+00  0.00000000000E+00  0.13888316580E+03  0.13888316583E+03  0.26000000000E-02 0.  1.
          2   -1    0    0  501    0  0.00000000000E+00 -0.00000000000E+00 -0.39444784034E+02  0.39444784120E+02  0.26000000000E-02 0. -1.
        -13    1    1    2    0    0 -0.40344352096E+02  0.33760006332E+02  0.11244100456E+03  0.12413861386E+03  0.10570000000E+00 0.  1.
         13    1    1    2    0    0  0.40344352096E+02 -0.33760006332E+02 -0.13002622786E+02  0.54189336086E+02  0.10570000000E+00 0. -1.
<mgrwt>
<rscale>  0 0.14802995E+03</rscale>
<asrwt>0</asrwt>
<pdfrwt beam="2">  1        2 0.60684284E-02 0.14802995E+03</pdfrwt>
<pdfrwt beam="1">  1       -2 0.21366640E-01 0.14802995E+03</pdfrwt>
<totfact> 0.21263633E+04</totfact>
</mgrwt>
</event>
<event>
 4    1  0.3704929E-001  0.2192947E+02  0.7818608E-02  0.1709475E+00
          2   -1    0    0  501    0  0.00000000000E+00  0.00000000000E+00  0.12096855210E+03  0.12096855213E+03  0.26000000000E-02 0.  1.
         -2   -1    0    0    0  501 -0.00000000000E+00 -0.00000000000E+00 -0.99385496890E+00  0.99385836979E+00  0.26000000000E-02 0. -1.
        -13    1    1    2    0    0  0.64664566147E+01  0.88525281548E+01  0.58993749913E+02  0.60003800023E+02  0.10570000000E+00 0. -1.
         13    1    1    2    0    0 -0.64664566147E+01 -0.88525281548E+01  0.60980947216E+02  0.61958610473E+02  0.10570000000E+00 0.  1.
<mgrwt>
<rscale>  0 0.21929469E+02</rscale>
<asrwt>0</asrwt>
<pdfrwt beam="1">  1        2 0.18610534E-01 0.21929469E+02</pdfrwt>
<pdfrwt beam="2">  1       -2 0.15290113E-03 0.21929469E+02</pdfrwt>
<totfact> 0.45001477E+06</totfact>
</mgrwt>
</event>
<event>
 4    1  0.3704929E-001  0.6986761E+02  0.7818608E-02  0.1360544E+00
          2   -1    0    0  501    0  0.00000000000E+00  0.00000000000E+00  0.49984316915E+02  0.49984316982E+02  0.26000000000E-02 0. -1.
         -2   -1    0    0    0  501 -0.00000000000E+00 -0.00000000000E+00 -0.24415074183E+02  0.24415074322E+02  0.26000000000E-02 0.  1.
        -13    1    1    2    0    0 -0.69947358296E+00  0.32498980295E+02  0.26408479740E+02  0.41881881025E+02  0.10570000000E+00 0. -1.
         13    1    1    2    0    0  0.69947358296E+00 -0.32498980295E+02 -0.83923700868E+00  0.32517510279E+02  0.10570000000E+00 0.  1.
<mgrwt>
<rscale>  0 0.69867612E+02</rscale>
<asrwt>0</asrwt>
<pdfrwt beam="1">  1        2 0.76898948E-02 0.69867612E+02</pdfrwt>
<pdfrwt beam="2">  1       -2 0.37561653E-02 0.69867612E+02</pdfrwt>
<totfact> 0.21188250E+05</totfact>
</mgrwt>
</event>
<event>
 4    1  0.3704929E-001  0.3677168E+02  0.7818608E-02  0.1533408E+00
          2   -1    0    0  501    0  0.00000000000E+00  0.00000000000E+00  0.42578030563E+02  0.42578030642E+02  0.26000000000E-02 0.  1.
         -2   -1    0    0    0  501 -0.00000000000E+00 -0.00000000000E+00 -0.79392865910E+01  0.79392870168E+01  0.26000000000E-02 0. -1.
        -13    1    1    2    0    0  0.14389783547E+02  0.11371285041E+02  0.19087286648E+02  0.26470883591E+02  0.10570000000E+00 0.  1.
         13    1    1    2    0    0 -0.14389783547E+02 -0.11371285041E+02  0.15551457324E+02  0.24046434068E+02  0.10570000000E+00 0. -1.
<mgrwt>
<rscale>  0 0.36771685E+02</rscale>
<asrwt>0</asrwt>
<pdfrwt beam="1">  1        2 0.65504663E-02 0.36771685E+02</pdfrwt>
<pdfrwt beam="2">  1       -2 0.12214287E-02 0.36771685E+02</pdfrwt>
<totfact> 0.10819439E+06</totfact>
</mgrwt>
</event>
<event>
 4    1  0.3704929E-001  0.3344377E+02  0.7818608E-02  0.1562871E+00
         -2   -1    0    0    0  501 -0.00000000000E+00  0.00000000000E+00  0.40846054439E+02  0.40846054522E+02  0.26000000000E-02 0. -1.
          2   -1    0    0  501    0  0.00000000000E+00 -0.00000000000E+00 -0.68457401752E+01  0.68457406689E+01  0.26000000000E-02 0.  1.
        -13    1    1    2    0    0  0.16108731706E+02  0.17870492853E+01  0.11133379843E+02  0.19663369537E+02  0.10570000000E+00 0.  1.
         13    1    1    2    0    0 -0.16108731706E+02 -0.17870492853E+01  0.22866934421E+02  0.28028425654E+02  0.10570000000E+00 0. -1.
<mgrwt>
<rscale>  0 0.33443773E+02</rscale>
<asrwt>0</asrwt>
<pdfrwt beam="2">  1        2 0.10531908E-02 0.33443773E+02</pdfrwt>
<pdfrwt beam="1">  1       -2 0.62840084E-02 0.33443773E+02</pdfrwt>
<totfact> 0.10891474E+06</totfact>
</mgrwt>
</event>
<event>
 4    1  0.3704929E-001  0.1922233E+03  0.7818608E-02  0.1156471E+00
          2   -1    0    0  501    0  0.00000000000E+00  0.00000000000E+00  0.85304041353E+02  0.85304041393E+02  0.26000000000E-02 0.  1.
         -2   -1    0    0    0  501 -0.00000000000E+00 -0.00000000000E+00 -0.10828850492E+03  0.10828850495E+03  0.26000000000E-02 0. -1.
        -13    1    1    2    0    0 -0.23852350250E+02 -0.46548700605E+01 -0.10514296945E+03  0.10791504819E+03  0.10570000000E+00 0. -1.
         13    1    1    2    0    0  0.23852350250E+02  0.46548700605E+01  0.82158505887E+02  0.85677498154E+02  0.10570000000E+00 0.  1.
<mgrwt>
<rscale>  0 0.19222328E+03</rscale>
<asrwt>0</asrwt>
<pdfrwt beam="1">  1        2 0.13123699E-01 0.19222328E+03</pdfrwt>
<pdfrwt beam="2">  1       -2 0.16659770E-01 0.19222328E+03</pdfrwt>
<totfact> 0.12657284E+04</totfact>
</mgrwt>
</event>
<event>
 4    1  0.3704929E-001  0.5447044E+02  0.7818608E-02  0.1422620E+00
         -2   -1    0    0    0  501 -0.00000000000E+00  0.00000000000E+00  0.37196732963E+01  0.37196742049E+01  0.26000000000E-02 0. -1.
          2   -1    0    0  501    0  0.00000000000E+00 -0.00000000000E+00 -0.19941455188E+03  0.19941455190E+03  0.26000000000E-02 0.  1.
        -13    1    1    2    0    0 -0.18835601336E+01 -0.25618897635E+02 -0.64104325345E+02  0.69059766979E+02  0.10570000000E+00 0. -1.
         13    1    1    2    0    0  0.18835601336E+01  0.25618897635E+02 -0.13159055324E+03  0.13407445912E+03  0.10570000000E+00 0.  1.
<mgrwt>
<rscale>  0 0.54470435E+02</rscale>
<asrwt>0</asrwt>
<pdfrwt beam="2">  1        2 0.30679154E-01 0.54470435E+02</pdfrwt>
<pdfrwt beam="1">  1       -2 0.57225766E-03 0.54470435E+02</pdfrwt>
<totfact> 0.59284581E+05</totfact>
</mgrwt>
</event>
<event>
 4    1  0.3704929E-001  0.2541888E+02  0.7818608E-02  0.1655057E+00
          2   -1    0    0  501    0  0.00000000000E+00  0.00000000000E+00  0.13883534670E+02  0.13883534913E+02  0.26000000000E-02 0.  1.
         -2   -1    0    0    0  501 -0.00000000000E+00 -0.00000000000E+00 -0.11634638403E+02  0.11634638693E+02  0.26000000000E-02 0. -1.
        -13    1    1    2    0    0  0.68401339645E+01  0.85632330571E+01 -0.53351513816E+01  0.12189807455E+02  0.10570000000E+00 0. -1.
         13    1    1    2    0    0 -0.68401339645E+01 -0.85632330571E+01  0.75840476486E+01  0.13328366152E+02  0.10570000000E+00 0.  1.
<mgrwt>
<rscale>  0 0.25418884E+02</rscale>
<asrwt>0</asrwt>
<pdfrwt beam="1">  1        2 0.21359285E-02 0.25418884E+02</pdfrwt>
<pdfrwt beam="2">  1       -2 0.17899444E-02 0.25418884E+02</pdfrwt>
<totfact> 0.23171212E+06</totfact>
</mgrwt>
</event>
<event>
 4    1  0.3704929E-001  0.3527424E+02  0.7818608E-02  0.1546179E+00
          2   -1    0    0  501    0  0.00000000000E+00  0.00000000000E+00  0.40673271668E+02  0.40673271751E+02  0.26000000000E-02 0. -1.
         -2   -1    0    0    0  501 -0.00000000000E+00 -0.00000000000E+00 -0.76479687108E+01  0.76479691528E+01  0.26000000000E-02 0.  1.
        -13    1    1    2    0    0  0.13550101164E+02 -0.10140443449E+02  0.97151361381E+01  0.19514837370E+02  0.10570000000E+00 0. -1.
         13    1    1    2    0    0 -0.13550101164E+02  0.10140443449E+02  0.23310166819E+02  0.28806403533E+02  0.10570000000E+00 0.  1.
<mgrwt>
<rscale>  0 0.35274235E+02</rscale>
<asrwt>0</asrwt>
<pdfrwt beam="1">  1        2 0.62574265E-02 0.35274235E+02</pdfrwt>
<pdfrwt beam="2">  1       -2 0.11766106E-02 0.35274235E+02</pdfrwt>
<totfact> 0.11899448E+06</totfact>
</mgrwt>
</event>
<event>
 4    1  0.3704929E-001  0.3535227E+02  0.7818608E-02  0.1545494E+00
         -2   -1    0    0    0  501 -0.00000000000E+00  0.00000000000E+00  0.10304999782E+03  0.10304999786E+03  0.26000000000E-02 0.  1.
          2   -1    0    0  501    0  0.00000000000E+00 -0.00000000000E+00 -0.30319815304E+01  0.30319826452E+01  0.26000000000E-02 0. -1.
        -13    1    1    2    0    0 -0.45117512234E+01  0.13195343956E+02  0.82599776357E+02  0.83768772391E+02  0.10570000000E+00 0.  1.
         13    1    1    2    0    0  0.45117512234E+01 -0.13195343956E+02  0.17418239936E+02  0.22313208110E+02  0.10570000000E+00 0. -1.
<mgrwt>
<rscale>  0 0.35352270E+02</rscale>
<asrwt>0</asrwt>
<pdfrwt beam="2">  1        2 0.46645878E-03 0.35352270E+02</pdfrwt>
<pdfrwt beam="1">  1       -2 0.15853846E-01 0.35352270E+02</pdfrwt>
<totfact> 0.80624902E+05</totfact>
</mgrwt>
</event>
<event>
 4    1  0.3704929E-001  0.4523542E+02  0.7818608E-02  0.1472877E+00
          2   -1    0    0  501    0  0.00000000000E+00  0.00000000000E+00  0.23916604984E+02  0.23916605126E+02  0.26000000000E-02 0. -1.
         -2   -1    0    0    0  501 -0.00000000000E+00 -0.00000000000E+00 -0.21389354434E+02  0.21389354592E+02  0.26000000000E-02 0.  1.
        -13    1    1    2    0    0 -0.20595782370E+02  0.71870997801E+01 -0.47213876496E+01  0.22319124725E+02  0.10570000000E+00 0.  1.
         13    1    1    2    0    0  0.20595782370E+02 -0.71870997801E+01  0.72486382004E+01  0.22986834992E+02  0.10570000000E+00 0. -1.
<mgrwt>
<rscale>  0 0.45235417E+02</rscale>
<asrwt>0</asrwt>
<pdfrwt beam="1">  1        2 0.36794777E-02 0.45235417E+02</pdfrwt>
<pdfrwt beam="2">  1       -2 0.32906699E-02 0.45235417E+02</pdfrwt>
<totfact> 0.58864216E+05</totfact>
</mgrwt>
</event>
<event>
 4    1  0.3704929E-001  0.2450333E+02  0.7818608E-02  0.1668240E+00
          2   -1    0    0  501    0  0.00000000000E+00  0.00000000000E+00  0.49348166794E+02  0.49348166862E+02  0.26000000000E-02 0. -1.
         -2   -1    0    0    0  501 -0.00000000000E+00 -0.00000000000E+00 -0.30417188787E+01  0.30417199899E+01  0.26000000000E-02 0.  1.
        -13    1    1    2    0    0 -0.43325281550E+01 -0.10680686527E+02  0.32031823171E+02  0.34042572362E+02  0.10570000000E+00 0.  1.
         13    1    1    2    0    0  0.43325281550E+01  0.10680686527E+02  0.14274624744E+02  0.18347314490E+02  0.10570000000E+00 0. -1.
<mgrwt>
<rscale>  0 0.24503329E+02</rscale>
<asrwt>0</asrwt>
<pdfrwt beam="1">  1        2 0.75920255E-02 0.24503329E+02</pdfrwt>
<pdfrwt beam="2">  1       -2 0.46795686E-03 0.24503329E+02</pdfrwt>
<totfact> 0.29168602E+06</totfact>
</mgrwt>
</event>
<event>
 4    1  0.3704929E-001  0.3039864E+02  0.7818608E-02  0.1593724E+00
          2   -1    0    0  501    0  0.00000000000E+00  0.00000000000E+00  0.83493100841E+01  0.83493104889E+01  0.26000000000E-02 0. -1.
         -2   -1    0    0    0  501 -0.00000000000E+00 -0.00000000000E+00 -0.27669266237E+02  0.27669266359E+02  0.26000000000E-02 0.  1.
        -13    1    1    2    0    0  0.21398285570E+00  0.12614274265E+02  0.38300879016E+00  0.12622344161E+02  0.10570000000E+00 0. -1.
         13    1    1    2    0    0 -0.21398285570E+00 -0.12614274265E+02 -0.19702964943E+02  0.23396232687E+02  0.10570000000E+00 0.  1.
<mgrwt>
<rscale>  0 0.30398638E+02</rscale>
<asrwt>0</asrwt>
<pdfrwt beam="1">  1        2 0.12845093E-02 0.30398638E+02</pdfrwt>
<pdfrwt beam="2">  1       -2 0.42568102E-02 0.30398638E+02</pdfrwt>
<totfact> 0.14246155E+06</totfact>
</mgrwt>
</event>
<event>
 4    1  0.3704929E-001  0.2629839E+02  0.7818608E-02  0.1643024E+00
          2   -1    0    0  501    0  0.00000000000E+00  0.00000000000E+00  0.80706219964E+02  0.80706220006E+02  0.26000000000E-02 0. -1.
         -2   -1    0    0    0  501 -0.00000000000E+00 -0.00000000000E+00 -0.21423535732E+01  0.21423551509E+01  0.26000000000E-02 0.  1.
        -13    1    1    2    0    0 -0.42022886957E+01 -0.11405718890E+02  0.55077777291E+02  0.56403212474E+02  0.10570000000E+00 0. -1.
         13    1    1    2    0    0  0.42022886957E+01  0.11405718890E+02  0.23486089101E+02  0.26445362683E+02  0.10570000000E+00 0.  1.
<mgrwt>
<rscale>  0 0.26298390E+02</rscale>
<asrwt>0</asrwt>
<pdfrwt beam="1">  1        2 0.12416338E-01 0.26298390E+02</pdfrwt>
<pdfrwt beam="2">  1       -2 0.32959307E-03 0.26298390E+02</pdfrwt>
<totfact> 0.27089408E+06</totfact>
</mgrwt>
</event>
<event>
 4    1  0.3704929E-001  0.3764177E+02  0.7818608E-02  0.1526319E+00
          2   -1    0    0  501    0  0.00000000000E+00  0.00000000000E+00  0.20656211072E+01  0.20656227435E+01  0.26000000000E-02 0.  1.
         -2   -1    0    0    0  501 -0.00000000000E+00 -0.00000000000E+00 -0.17148620164E+03  0.17148620166E+03  0.26000000000E-02 0. -1.
        -13    1    1    2    0    0 -0.11006028617E+02  0.14748568016E+02 -0.66522254238E+02  0.69020825885E+02  0.10570000000E+00 0.  1.
         13    1    1    2    0    0  0.11006028617E+02 -0.14748568016E+02 -0.10289832629E+03  0.10453099852E+03  0.10570000000E+00 0. -1.
<mgrwt>
<rscale>  0 0.37641767E+02</rscale>
<asrwt>0</asrwt>
<pdfrwt beam="1">  1        2 0.31778813E-03 0.37641767E+02</pdfrwt>
<pdfrwt beam="2">  1       -2 0.26382481E-01 0.37641767E+02</pdfrwt>
<totfact> 0.59518676E+05</totfact>
</mgrwt>
</event>
<event>
 4    1  0.3704929E-001  0.2984766E+02  0.7818608E-02  0.1599779E+00
          2   -1    0    0  501    0  0.00000000000E+00  0.00000000000E+00  0.28353799561E+02  0.28353799680E+02  0.26000000000E-02 0.  1.
         -2   -1    0    0    0  501 -0.00000000000E+00 -0.00000000000E+00 -0.78550544185E+01  0.78550548488E+01  0.26000000000E-02 0. -1.
        -13    1    1    2    0    0 -0.12872085874E+02 -0.23299486761E+00  0.19405399362E+02  0.23287884796E+02  0.10570000000E+00 0.  1.
         13    1    1    2    0    0  0.12872085874E+02  0.23299486761E+00  0.10933457803E+01  0.12920969733E+02  0.10570000000E+00 0. -1.
<mgrwt>
<rscale>  0 0.29847656E+02</rscale>
<asrwt>0</asrwt>
<pdfrwt beam="1">  1        2 0.43621230E-02 0.29847656E+02</pdfrwt>
<pdfrwt beam="2">  1       -2 0.12084700E-02 0.29847656E+02</pdfrwt>
<totfact> 0.16994804E+06</totfact>
</mgrwt>
</event>
<event>
 4    1  0.3704929E-001  0.2407073E+02  0.7818608E-02  0.1674720E+00
          2   -1    0    0  501    0  0.00000000000E+00  0.00000000000E+00  0.85069222754E+02  0.85069222794E+02  0.26000000000E-02 0. -1.
         -2   -1    0    0    0  501 -0.00000000000E+00 -0.00000000000E+00 -0.17027296709E+01  0.17027316560E+01  0.26000000000E-02 0.  1.
        -13    1    1    2    0    0  0.91922810810E+01 -0.63732116634E+01  0.25673809234E+02  0.28004847999E+02  0.10570000000E+00 0. -1.
         13    1    1    2    0    0 -0.91922810810E+01  0.63732116634E+01  0.57692683849E+02  0.58767106451E+02  0.10570000000E+00 0.  1.
<mgrwt>
<rscale>  0 0.24070727E+02</rscale>
<asrwt>0</asrwt>
<pdfrwt beam="1">  1        2 0.13087576E-01 0.24070727E+02</pdfrwt>
<pdfrwt beam="2">  1       -2 0.26195850E-03 0.24070727E+02</pdfrwt>
<totfact> 0.33584416E+06</totfact>
</mgrwt>
</event>
<event>
 4    1  0.3704929E-001  0.1124736E+03  0.7818608E-02  0.1256057E+00
         -2   -1    0    0    0  501 -0.00000000000E+00  0.00000000000E+00  0.82850442125E+01  0.82850446204E+01  0.26000000000E-02 0. -1.
          2   -1    0    0  501    0  0.00000000000E+00 -0.00000000000E+00 -0.38172129058E+03  0.38172129059E+03  0.26000000000E-02 0.  1.
        -13    1    1    2    0    0  0.55105307537E+02  0.77127137605E+01 -0.21499201045E+03  0.22207579022E+03  0.10570000000E+00 0. -1.
         13    1    1    2    0    0 -0.55105307537E+02 -0.77127137605E+01 -0.15844423592E+03  0.16793054499E+03  0.10570000000E+00 0.  1.
<mgrwt>
<rscale>  0 0.11247360E+03</rscale>
<asrwt>0</asrwt>
<pdfrwt beam="2">  1        2 0.58726339E-01 0.11247360E+03</pdfrwt>
<pdfrwt beam="1">  1       -2 0.12746225E-02 0.11247360E+03</pdfrwt>
<totfact> 0.11165635E+05</totfact>
</mgrwt>
</event>
<event>
 4    1  0.3704929E-001  0.2038203E+02  0.7818608E-02  0.1737836E+00
         -2   -1    0    0    0  501 -0.00000000000E+00  0.00000000000E+00  0.18791202840E+02  0.18791203020E+02  0.26000000000E-02 0.  1.
          2   -1    0    0  501    0  0.00000000000E+00 -0.00000000000E+00 -0.55268834585E+01  0.55268840701E+01  0.26000000000E-02 0. -1.
        -13    1    1    2    0    0  0.98824185807E+01 -0.24824658951E+01  0.64601221167E+01  0.12065205517E+02  0.10570000000E+00 0. -1.
         13    1    1    2    0    0 -0.98824185807E+01  0.24824658951E+01  0.68041972647E+01  0.12252881573E+02  0.10570000000E+00 0.  1.
<mgrwt>
<rscale>  0 0.20382031E+02</rscale>
<asrwt>0</asrwt>
<pdfrwt beam="2">  1        2 0.85028982E-03 0.20382031E+02</pdfrwt>
<pdfrwt beam="1">  1       -2 0.28909543E-02 0.20382031E+02</pdfrwt>
<totfact> 0.36111554E+06</totfact>
</mgrwt>
</event>
<event>
 4    1  0.3704929E-001  0.3975461E+02  0.7818608E-02  0.1510025E+00
          2   -1    0    0  501    0  0.00000000000E+00  0.00000000000E+00  0.12297041482E+02  0.12297041757E+02  0.26000000000E-02 0.  1.
         -2   -1    0    0    0  501 -0.00000000000E+00 -0.00000000000E+00 -0.32130271037E+02  0.32130271143E+02  0.26000000000E-02 0. -1.
        -13    1    1    2    0    0 -0.12745777286E+02 -0.57990719248E+01 -0.25681913571E+02  0.29251597067E+02  0.10570000000E+00 0. -1.
         13    1    1    2    0    0  0.12745777286E+02  0.57990719248E+01  0.58486840162E+01  0.15175715833E+02  0.10570000000E+00 0.  1.
<mgrwt>
<rscale>  0 0.39754612E+02</rscale>
<asrwt>0</asrwt>
<pdfrwt beam="1">  1        2 0.18918526E-02 0.39754612E+02</pdfrwt>
<pdfrwt beam="2">  1       -2 0.49431186E-02 0.39754612E+02</pdfrwt>
<totfact> 0.75143444E+05</totfact>
</mgrwt>
</event>
<event>
 4    1  0.3704929E-001  0.3921177E+02  0.7818608E-02  0.1514093E+00
         -2   -1    0    0    0  501 -0.00000000000E+00  0.00000000000E+00  0.16112820977E+03  0.16112820979E+03  0.26000000000E-02 0.  1.
          2   -1    0    0  501    0  0.00000000000E+00 -0.00000000000E+00 -0.23856191411E+01  0.23856205579E+01  0.26000000000E-02 0. -1.
        -13    1    1    2    0    0  0.59700863480E+01 -0.18234773448E+02  0.62571450345E+02  0.65447280039E+02  0.10570000000E+00 0.  1.
         13    1    1    2    0    0 -0.59700863480E+01  0.18234773448E+02  0.96171140281E+02  0.98066550307E+02  0.10570000000E+00 0. -1.
<mgrwt>
<rscale>  0 0.39211767E+02</rscale>
<asrwt>0</asrwt>
<pdfrwt beam="2">  1        2 0.36701842E-03 0.39211767E+02</pdfrwt>
<pdfrwt beam="1">  1       -2 0.24788957E-01 0.39211767E+02</pdfrwt>
<totfact> 0.55193333E+05</totfact>
</mgrwt>
</event>
<event>
 4    1  0.3704929E-001  0.2278672E+02  0.7818608E-02  0.1694991E+00
          2   -1    0    0  501    0  0.00000000000E+00  0.00000000000E+00  0.38446487045E+02  0.38446487133E+02  0.26000000000E-02 0. -1.
         -2   -1    0    0    0  501 -0.00000000000E+00 -0.00000000000E+00 -0.33763452895E+01  0.33763462906E+01  0.26000000000E-02 0.  1.
        -13    1    1    2    0    0  0.24995628584E+00  0.10964122296E+02  0.11871129155E+02  0.16161971903E+02  0.10570000000E+00 0. -1.
         13    1    1    2    0    0 -0.24995628584E+00 -0.10964122296E+02  0.23199012600E+02  0.25660861520E+02  0.10570000000E+00 0.  1.
<mgrwt>
<rscale>  0 0.22786719E+02</rscale>
<asrwt>0</asrwt>
<pdfrwt beam="1">  1        2 0.59148439E-02 0.22786719E+02</pdfrwt>
<pdfrwt beam="2">  1       -2 0.51943785E-03 0.22786719E+02</pdfrwt>
<totfact> 0.33251357E+06</totfact>
</mgrwt>
</event>
<event>
 4    1  0.3704929E-001  0.3317339E+02  0.7818608E-02  0.1565446E+00
         -2   -1    0    0    0  501 -0.00000000000E+00  0.00000000000E+00  0.10336173873E+02  0.10336174200E+02  0.26000000000E-02 0.  1.
          2   -1    0    0  501    0  0.00000000000E+00 -0.00000000000E+00 -0.26617048117E+02  0.26617048244E+02  0.26000000000E-02 0. -1.
        -13    1    1    2    0    0 -0.15858408912E+02 -0.84390529770E+00 -0.13471781680E+02  0.20825498398E+02  0.10570000000E+00 0. -1.
         13    1    1    2    0    0  0.15858408912E+02  0.84390529770E+00 -0.28090925634E+01  0.16127724046E+02  0.10570000000E+00 0.  1.
<mgrwt>
<rscale>  0 0.33173390E+02</rscale>
<asrwt>0</asrwt>
<pdfrwt beam="2">  1        2 0.40949305E-02 0.33173390E+02</pdfrwt>
<pdfrwt beam="1">  1       -2 0.15901806E-02 0.33173390E+02</pdfrwt>
<totfact> 0.13047903E+06</totfact>
</mgrwt>
</event>
<event>
 4    1  0.3704929E-001  0.2587441E+02  0.7818608E-02  0.1648751E+00
          2   -1    0    0  501    0  0.00000000000E+00  0.00000000000E+00  0.11628764363E+03  0.11628764366E+03  0.26000000000E-02 0.  1.
         -2   -1    0    0    0  501 -0.00000000000E+00 -0.00000000000E+00 -0.14392854122E+01  0.14392877606E+01  0.26000000000E-02 0. -1.
        -13    1    1    2    0    0  0.12806146448E+02  0.10106383751E+01  0.64386177374E+02  0.65655234263E+02  0.10570000000E+00 0. -1.
         13    1    1    2    0    0 -0.12806146448E+02 -0.10106383751E+01  0.50462180842E+02  0.52071697155E+02  0.10570000000E+00 0.  1.
<mgrwt>
<rscale>  0 0.25874408E+02</rscale>
<asrwt>0</asrwt>
<pdfrwt beam="1">  1        2 0.17890416E-01 0.25874408E+02</pdfrwt>
<pdfrwt beam="2">  1       -2 0.22142859E-03 0.25874408E+02</pdfrwt>
<totfact> 0.30612921E+06</totfact>
</mgrwt>
</event>
<event>
 4    1  0.3704929E-001  0.2795053E+02  0.7818608E-02  0.1621914E+00
          2   -1    0    0  501    0  0.00000000000E+00  0.00000000000E+00  0.23286169850E+01  0.23286184365E+01  0.26000000000E-02 0. -1.
         -2   -1    0    0    0  501 -0.00000000000E+00 -0.00000000000E+00 -0.83872936973E+02  0.83872937013E+02  0.26000000000E-02 0.  1.
        -13    1    1    2    0    0 -0.56515176128E+01 -0.12775701448E+02 -0.41920491197E+02  0.44187067718E+02  0.10570000000E+00 0.  1.
         13    1    1    2    0    0  0.56515176128E+01  0.12775701448E+02 -0.39623828790E+02  0.42014487731E+02  0.10570000000E+00 0. -1.
<mgrwt>
<rscale>  0 0.27950528E+02</rscale>
<asrwt>0</asrwt>
<pdfrwt beam="1">  1        2 0.35824895E-03 0.27950528E+02</pdfrwt>
<pdfrwt beam="2">  1       -2 0.12903527E-01 0.27950528E+02</pdfrwt>
<totfact> 0.14615076E+06</totfact>
</mgrwt>
</event>
<event>
 4    1  0.6598860E-001  0.6254328E+02  0.7818608E-02  0.1387458E+00
          2   -1    0    0  501    0  0.00000000000E+00  0.00000000000E+00  0.26360175055E+01  0.26360187877E+01  0.26000000000E-02 0.  1.
         -2   -1    0    0    0  501 -0.00000000000E+00 -0.00000000000E+00 -0.37098212329E+03  0.37098212330E+03  0.26000000000E-02 0. -1.
        -13    1    1    2    0    0 -0.53184598331E+01  0.30815736516E+02 -0.18473369334E+03  0.18736180043E+03  0.10570000000E+00 0.  1.
         13    1    1    2    0    0  0.53184598331E+01 -0.30815736516E+02 -0.18361241245E+03  0.18625634166E+03  0.10570000000E+00 0. -1.
<mgrwt>
<rscale>  0 0.62543285E+02</rscale>
<asrwt>0</asrwt>
<pdfrwt beam="1">  1        2 0.40554155E-03 0.62543285E+02</pdfrwt>
<pdfrwt beam="2">  1       -2 0.57074132E-01 0.62543285E+02</pdfrwt>
<totfact> 0.11732819E+05</totfact>
</mgrwt>
</event>
<event>
 4    1  0.3704929E-001  0.2967926E+02  0.7818608E-02  0.1601661E+00
         -2   -1    0    0    0  501 -0.00000000000E+00  0.00000000000E+00  0.87863460683E+01  0.87863464530E+01  0.26000000000E-02 0. -1.
          2   -1    0    0  501    0  0.00000000000E+00 -0.00000000000E+00 -0.25063279160E+02  0.25063279294E+02  0.26000000000E-02 0.  1.
        -13    1    1    2    0    0  0.10367051102E+02 -0.48535175582E+01 -0.18908395276E+02  0.22103641457E+02  0.10570000000E+00 0.  1.
         13    1    1    2    0    0 -0.10367051102E+02  0.48535175582E+01  0.26314621846E+01  0.11745984291E+02  0.10570000000E+00 0. -1.
<mgrwt>
<rscale>  0 0.29679262E+02</rscale>
<asrwt>0</asrwt>
<pdfrwt beam="2">  1        2 0.38558891E-02 0.29679262E+02</pdfrwt>
<pdfrwt beam="1">  1       -2 0.13517456E-02 0.29679262E+02</pdfrwt>
<totfact> 0.16978899E+06</totfact>
</mgrwt>
</event>
<event>
 4    1  0.3704929E-001  0.2344526E+02  0.7818608E-02  0.1684393E+00
         -2   -1    0    0    0  501 -0.00000000000E+00  0.00000000000E+00  0.27120498801E+01  0.27120511263E+01  0.26000000000E-02 0. -1.
          2   -1    0    0  501    0  0.00000000000E+00 -0.00000000000E+00 -0.50670181375E+02  0.50670181442E+02  0.26000000000E-02 0.  1.
        -13    1    1    2    0    0 -0.74912092500E+01 -0.89334759040E+01 -0.21205638797E+02  0.24199493735E+02  0.10570000000E+00 0. -1.
         13    1    1    2    0    0  0.74912092500E+01  0.89334759040E+01 -0.26752492698E+02  0.29182738833E+02  0.10570000000E+00 0.  1.
<mgrwt>
<rscale>  0 0.23445263E+02</rscale>
<asrwt>0</asrwt>
<pdfrwt beam="2">  1        2 0.77954119E-02 0.23445263E+02</pdfrwt>
<pdfrwt beam="1">  1       -2 0.41723858E-03 0.23445263E+02</pdfrwt>
<totfact> 0.32415756E+06</totfact>
</mgrwt>
</event>
<event>
 4    1  0.3704929E-001  0.3187775E+02  0.7818608E-02  0.1578214E+00
         -2   -1    0    0    0  501 -0.00000000000E+00  0.00000000000E+00  0.40811026732E+01  0.40811035014E+01  0.26000000000E-02 0.  1.
          2   -1    0    0  501    0  0.00000000000E+00 -0.00000000000E+00 -0.62249760447E+02  0.62249760501E+02  0.26000000000E-02 0. -1.
        -13    1    1    2    0    0 -0.12753128460E+02 -0.40527926613E+01 -0.47100777978E+02  0.48964904498E+02  0.10570000000E+00 0. -1.
         13    1    1    2    0    0  0.12753128460E+02  0.40527926613E+01 -0.11067879796E+02  0.17365959505E+02  0.10570000000E+00 0.  1.
<mgrwt>
<rscale>  0 0.31877747E+02</rscale>
<asrwt>0</asrwt>
<pdfrwt beam="2">  1        2 0.95768856E-02 0.31877747E+02</pdfrwt>
<pdfrwt beam="1">  1       -2 0.62786206E-03 0.31877747E+02</pdfrwt>
<totfact> 0.16342984E+06</totfact>
</mgrwt>
</event>
<event>
 4    1  0.3704929E-001  0.3356463E+02  0.7818608E-02  0.1561729E+00
          2   -1    0    0  501    0  0.00000000000E+00  0.00000000000E+00  0.36037838600E+02  0.36037838694E+02  0.26000000000E-02 0.  1.
         -2   -1    0    0    0  501 -0.00000000000E+00 -0.00000000000E+00 -0.78152862632E+01  0.78152866956E+01  0.26000000000E-02 0. -1.
        -13    1    1    2    0    0  0.12439869089E+02  0.57012224705E+00  0.28809541295E+02  0.31385923985E+02  0.10570000000E+00 0.  1.
         13    1    1    2    0    0 -0.12439869089E+02 -0.57012224705E+00 -0.58698895776E+00  0.12467201404E+02  0.10570000000E+00 0. -1.
<mgrwt>
<rscale>  0 0.33564626E+02</rscale>
<asrwt>0</asrwt>
<pdfrwt beam="1">  1        2 0.55442829E-02 0.33564626E+02</pdfrwt>
<pdfrwt beam="2">  1       -2 0.12023518E-02 0.33564626E+02</pdfrwt>
<totfact> 0.13197834E+06</totfact>
</mgrwt>
</event>
<event>
 4    1  0.3704929E-001  0.4420658E+02  0.7818608E-02  0.1479356E+00
          2   -1    0    0  501    0  0.00000000000E+00  0.00000000000E+00  0.21343890242E+02  0.21343890401E+02  0.26000000000E-02 0. -1.
         -2   -1    0    0    0  501 -0.00000000000E+00 -0.00000000000E+00 -0.22889710375E+02  0.22889710523E+02  0.26000000000E-02 0.  1.
        -13    1    1    2    0    0  0.11974024977E+02  0.98803031372E+01  0.14970321116E+02  0.21566625861E+02  0.10570000000E+00 0. -1.
         13    1    1    2    0    0 -0.11974024977E+02 -0.98803031372E+01 -0.16516141249E+02  0.22666975062E+02  0.10570000000E+00 0.  1.
<mgrwt>
<rscale>  0 0.44206582E+02</rscale>
<asrwt>0</asrwt>
<pdfrwt beam="1">  1        2 0.32836754E-02 0.44206582E+02</pdfrwt>
<pdfrwt beam="2">  1       -2 0.35214939E-02 0.44206582E+02</pdfrwt>
<totfact> 0.61477446E+05</totfact>
</mgrwt>
</event>
<event>
 4    1  0.3704929E-001  0.5238220E+02  0.7818608E-02  0.1432900E+00
          2   -1    0    0  501    0  0.00000000000E+00  0.00000000000E+00  0.42656381631E+02  0.42656381710E+02  0.26000000000E-02 0.  1.
         -2   -1    0    0    0  501 -0.00000000000E+00 -0.00000000000E+00 -0.16081384102E+02  0.16081384312E+02  0.26000000000E-02 0. -1.
        -13    1    1    2    0    0 -0.80196017981E+01  0.95300039539E+01  0.39122614795E+02  0.41057583334E+02  0.10570000000E+00 0.  1.
         13    1    1    2    0    0  0.80196017981E+01 -0.95300039539E+01 -0.12547617265E+02  0.17680182688E+02  0.10570000000E+00 0. -1.
<mgrwt>
<rscale>  0 0.52382198E+02</rscale>
<asrwt>0</asrwt>
<pdfrwt beam="1">  1        2 0.65625202E-02 0.52382198E+02</pdfrwt>
<pdfrwt beam="2">  1       -2 0.24740591E-02 0.52382198E+02</pdfrwt>
<totfact> 0.44154291E+05</totfact>
</mgrwt>
</event>
<event>
 4    1  0.3704929E-001  0.3303760E+02  0.7818608E-02  0.1566751E+00
         -2   -1    0    0    0  501 -0.00000000000E+00  0.00000000000E+00  0.59393672585E+02  0.59393672642E+02  0.26000000000E-02 0.  1.
          2   -1    0    0  501    0  0.00000000000E+00 -0.00000000000E+00 -0.45942719062E+01  0.45942726419E+01  0.26000000000E-02 0. -1.
        -13    1    1    2    0    0  0.11911074924E+02  0.11214778972E+02  0.22976887242E+02  0.28206266911E+02  0.10570000000E+00 0. -1.
         13    1    1    2    0    0 -0.11911074924E+02 -0.11214778972E+02  0.31822513437E+02  0.35781678373E+02  0.10570000000E+00 0.  1.
<mgrwt>
<rscale>  0 0.33037597E+02</rscale>
<asrwt>0</asrwt>
<pdfrwt beam="2">  1        2 0.70681114E-03 0.33037597E+02</pdfrwt>
<pdfrwt beam="1">  1       -2 0.91374879E-02 0.33037597E+02</pdfrwt>
<totfact> 0.10587174E+06</totfact>
</mgrwt>
</event>
<event>
 4    1  0.3704929E-001  0.2612248E+02  0.7818608E-02  0.1645384E+00
         -2   -1    0    0    0  501 -0.00000000000E+00  0.00000000000E+00  0.11528060215E+02  0.11528060508E+02  0.26000000000E-02 0.  1.
          2   -1    0    0  501    0  0.00000000000E+00 -0.00000000000E+00 -0.14798325289E+02  0.14798325517E+02  0.26000000000E-02 0. -1.
        -13    1    1    2    0    0 -0.10599208329E+02  0.72191801598E+01  0.85906762275E+00  0.12853363336E+02  0.10570000000E+00 0.  1.
         13    1    1    2    0    0  0.10599208329E+02 -0.72191801598E+01 -0.41293326966E+01  0.13473022689E+02  0.10570000000E+00 0. -1.
<mgrwt>
<rscale>  0 0.26122480E+02</rscale>
<asrwt>0</asrwt>
<pdfrwt beam="2">  1        2 0.22766655E-02 0.26122480E+02</pdfrwt>
<pdfrwt beam="1">  1       -2 0.17735478E-02 0.26122480E+02</pdfrwt>
<totfact> 0.21839137E+06</totfact>
</mgrwt>
</event>
<event>
 4    1  0.3704929E-001  0.4666401E+02  0.7818608E-02  0.1464213E+00
         -2   -1    0    0    0  501 -0.00000000000E+00  0.00000000000E+00  0.78764202563E+01  0.78764206855E+01  0.26000000000E-02 0.  1.
          2   -1    0    0  501    0  0.00000000000E+00 -0.00000000000E+00 -0.69115475734E+02  0.69115475783E+02  0.26000000000E-02 0. -1.
        -13    1    1    2    0    0 -0.22970233276E+02 -0.29070497201E+01 -0.25869355168E+02  0.34717679417E+02  0.10570000000E+00 0.  1.
         13    1    1    2    0    0  0.22970233276E+02  0.29070497201E+01 -0.35369700310E+02  0.42274217052E+02  0.10570000000E+00 0. -1.
<mgrwt>
<rscale>  0 0.46664014E+02</rscale>
<asrwt>0</asrwt>
<pdfrwt beam="2">  1        2 0.10633150E-01 0.46664014E+02</pdfrwt>
<pdfrwt beam="1">  1       -2 0.12117570E-02 0.46664014E+02</pdfrwt>
<totfact> 0.65308062E+05</totfact>
</mgrwt>
</event>
<event>
 4    1  0.3704929E-001  0.4274171E+02  0.7818608E-02  0.1488953E+00
          2   -1    0    0  501    0  0.00000000000E+00  0.00000000000E+00  0.60365160667E+02  0.60365160723E+02  0.26000000000E-02 0. -1.
         -2   -1    0    0    0  501 -0.00000000000E+00 -0.00000000000E+00 -0.75658437706E+01  0.75658442173E+01  0.26000000000E-02 0.  1.
        -13    1    1    2    0    0 -0.28662433137E+01  0.20514689108E+02  0.34754557102E+02  0.40459340476E+02  0.10570000000E+00 0.  1.
         13    1    1    2    0    0  0.28662433137E+01 -0.20514689108E+02  0.18044759795E+02  0.27471664465E+02  0.10570000000E+00 0. -1.
<mgrwt>
<rscale>  0 0.42741708E+02</rscale>
<asrwt>0</asrwt>
<pdfrwt beam="1">  1        2 0.92869484E-02 0.42741708E+02</pdfrwt>
<pdfrwt beam="2">  1       -2 0.11639759E-02 0.42741708E+02</pdfrwt>
<totfact> 0.79212548E+05</totfact>
</mgrwt>
</event>
<event>
 4    1  0.3704929E-001  0.3224395E+02  0.7818608E-02  0.1574532E+00
         -2   -1    0    0    0  501 -0.00000000000E+00  0.00000000000E+00  0.12956475948E+02  0.12956476208E+02  0.26000000000E-02 0.  1.
          2   -1    0    0  501    0  0.00000000000E+00 -0.00000000000E+00 -0.20060857086E+02  0.20060857254E+02  0.26000000000E-02 0. -1.
        -13    1    1    2    0    0  0.10986369930E+02 -0.46437081919E+01 -0.14658657366E+02  0.18898459151E+02  0.10570000000E+00 0. -1.
         13    1    1    2    0    0 -0.10986369930E+02  0.46437081919E+01  0.75542762276E+01  0.14118874312E+02  0.10570000000E+00 0.  1.
<mgrwt>
<rscale>  0 0.32243946E+02</rscale>
<asrwt>0</asrwt>
<pdfrwt beam="2">  1        2 0.30862857E-02 0.32243946E+02</pdfrwt>
<pdfrwt beam="1">  1       -2 0.19933040E-02 0.32243946E+02</pdfrwt>
<totfact> 0.13532050E+06</totfact>
</mgrwt>
</event>
<event>
 4    1  0.3704929E-001  0.2376157E+02  0.7818608E-02  0.1679455E+00
         -2   -1    0    0    0  501 -0.00000000000E+00  0.00000000000E+00  0.17682655254E+02  0.17682655445E+02  0.26000000000E-02 0.  1.
          2   -1    0    0  501    0  0.00000000000E+00 -0.00000000000E+00 -0.79825708495E+01  0.79825712729E+01  0.26000000000E-02 0. -1.
        -13    1    1    2    0    0  0.49744826883E+01 -0.10686806501E+02  0.64479453095E+01  0.13436535357E+02  0.10570000000E+00 0. -1.
         13    1    1    2    0    0 -0.49744826883E+01  0.10686806501E+02  0.32521390947E+01  0.12228691360E+02  0.10570000000E+00 0.  1.
<mgrwt>
<rscale>  0 0.23761570E+02</rscale>
<asrwt>0</asrwt>
<pdfrwt beam="2">  1        2 0.12280879E-02 0.23761570E+02</pdfrwt>
<pdfrwt beam="1">  1       -2 0.27204085E-02 0.23761570E+02</pdfrwt>
<totfact> 0.25921408E+06</totfact>
</mgrwt>
</event>
<event>
 4    1  0.3704929E-001  0.2183110E+02  0.7818608E-02  0.1711189E+00
         -2   -1    0    0    0  501 -0.00000000000E+00  0.00000000000E+00  0.62521140259E+02  0.62521140313E+02  0.26000000000E-02 0. -1.
          2   -1    0    0  501    0  0.00000000000E+00 -0.00000000000E+00 -0.19057422843E+01  0.19057440579E+01  0.26000000000E-02 0.  1.
        -13    1    1    2    0    0  0.53598900761E+01  0.88767056080E+01  0.20250487064E+02  0.22751213657E+02  0.10570000000E+00 0.  1.
         13    1    1    2    0    0 -0.53598900761E+01 -0.88767056080E+01  0.40364910911E+02  0.41675670714E+02  0.10570000000E+00 0. -1.
<mgrwt>
<rscale>  0 0.21831101E+02</rscale>
<asrwt>0</asrwt>
<pdfrwt beam="2">  1        2 0.29319131E-03 0.21831101E+02</pdfrwt>
<pdfrwt beam="1">  1       -2 0.96186355E-02 0.21831101E+02</pdfrwt>
<totfact> 0.26991503E+06</totfact>
</mgrwt>
</event>
<event>
 4    1  0.3704929E-001  0.2626191E+02  0.7818608E-02  0.1643511E+00
          2   -1    0    0  501    0  0.00000000000E+00  0.00000000000E+00  0.98036052606E+02  0.98036052640E+02  0.26000000000E-02 0.  1.
         -2   -1    0    0    0  501 -0.00000000000E+00 -0.00000000000E+00 -0.17587598904E+01  0.17587618122E+01  0.26000000000E-02 0. -1.
        -13    1    1    2    0    0 -0.97850577476E+01 -0.87556121653E+01  0.48336199618E+02  0.50087997220E+02  0.10570000000E+00 0. -1.
         13    1    1    2    0    0  0.97850577476E+01  0.87556121653E+01  0.47941093097E+02  0.49706817232E+02  0.10570000000E+00 0.  1.
<mgrwt>
<rscale>  0 0.26261910E+02</rscale>
<asrwt>0</asrwt>
<pdfrwt beam="1">  1        2 0.15082471E-01 0.26261910E+02</pdfrwt>
<pdfrwt beam="2">  1       -2 0.27057857E-03 0.26261910E+02</pdfrwt>
<totfact> 0.28377135E+06</totfact>
</mgrwt>
</event>
<event>
 4    1  0.3704929E-001  0.2313346E+02  0.7818608E-02  0.1689356E+00
         -2   -1    0    0    0  501 -0.00000000000E+00  0.00000000000E+00  0.75903165067E+01  0.75903169520E+01  0.26000000000E-02 0.  1.
          2   -1    0    0  501    0  0.00000000000E+00 -0.00000000000E+00 -0.17626301673E+02  0.17626301865E+02  0.26000000000E-02 0. -1.
        -13    1    1    2    0    0  0.47448588654E+01 -0.10516924855E+02 -0.41333381512E+01  0.12256224983E+02  0.10570000000E+00 0. -1.
         13    1    1    2    0    0 -0.47448588654E+01  0.10516924855E+02 -0.59026470154E+01  0.12960393834E+02  0.10570000000E+00 0.  1.
<mgrwt>
<rscale>  0 0.23133458E+02</rscale>
<asrwt>0</asrwt>
<pdfrwt beam="2">  1        2 0.27117388E-02 0.23133458E+02</pdfrwt>
<pdfrwt beam="1">  1       -2 0.11677411E-02 0.23133458E+02</pdfrwt>
<totfact> 0.29533083E+06</totfact>
</mgrwt>
</event>
<event>
 4    1  0.3704929E-001  0.2336839E+02  0.7818608E-02  0.1685607E+00
          2   -1    0    0  501    0  0.00000000000E+00  0.00000000000E+00  0.32837195019E+01  0.32837205312E+01  0.26000000000E-02 0. -1.
         -2   -1    0    0    0  501 -0.00000000000E+00 -0.00000000000E+00 -0.41574938691E+02  0.41574938772E+02  0.26000000000E-02 0.  1.
        -13    1    1    2    0    0 -0.30360501924E+01  0.10126855202E+02 -0.95977937535E+01  0.14279342229E+02  0.10570000000E+00 0. -1.
         13    1    1    2    0    0  0.30360501924E+01 -0.10126855202E+02 -0.28693425436E+02  0.30579317075E+02  0.10570000000E+00 0.  1.
<mgrwt>
<rscale>  0 0.23368394E+02</rscale>
<asrwt>0</asrwt>
<pdfrwt beam="1">  1        2 0.50518773E-03 0.23368394E+02</pdfrwt>
<pdfrwt beam="2">  1       -2 0.63961441E-02 0.23368394E+02</pdfrwt>
<totfact> 0.24633528E+06</totfact>
</mgrwt>
</event>
<event>
 4    1  0.3704929E-001  0.2204310E+02  0.7818608E-02  0.1707508E+00
         -2   -1    0    0    0  501 -0.00000000000E+00  0.00000000000E+00  0.51089432696E+01  0.51089439311E+01  0.26000000000E-02 0. -1.
          2   -1    0    0  501    0  0.00000000000E+00 -0.00000000000E+00 -0.23776840451E+02  0.23776840593E+02  0.26000000000E-02 0.  1.
        -13    1    1    2    0    0 -0.74187138954E+01  0.75720917467E+01 -0.53831851145E+01  0.11889648597E+02  0.10570000000E+00 0.  1.
         13    1    1    2    0    0  0.74187138954E+01 -0.75720917467E+01 -0.13284712067E+02  0.16996135927E+02  0.10570000000E+00 0. -1.
<mgrwt>
<rscale>  0 0.22043098E+02</rscale>
<asrwt>0</asrwt>
<pdfrwt beam="2">  1        2 0.36579755E-02 0.22043098E+02</pdfrwt>
<pdfrwt beam="1">  1       -2 0.78599135E-03 0.22043098E+02</pdfrwt>
<totfact> 0.33954352E+06</totfact>
</mgrwt>
</event>
<event>
 4    1  0.3704929E-001  0.2893687E+02  0.7818608E-02  0.1610146E+00
          2   -1    0    0  501    0  0.00000000000E+00  0.00000000000E+00  0.24888906109E+01  0.24888919689E+01  0.26000000000E-02 0.  1.
         -2   -1    0    0    0  501 -0.00000000000E+00 -0.00000000000E+00 -0.84107953747E+02  0.84107953787E+02  0.26000000000E-02 0. -1.
        -13    1    1    2    0    0  0.48669331915E+01  0.10850764039E+02 -0.65468784586E+02  0.66540206240E+02  0.10570000000E+00 0. -1.
         13    1    1    2    0    0 -0.48669331915E+01 -0.10850764039E+02 -0.16150278550E+02  0.20056639516E+02  0.10570000000E+00 0.  1.
<mgrwt>
<rscale>  0 0.28936866E+02</rscale>
<asrwt>0</asrwt>
<pdfrwt beam="1">  1        2 0.38290642E-03 0.28936866E+02</pdfrwt>
<pdfrwt beam="2">  1       -2 0.12939683E-01 0.28936866E+02</pdfrwt>
<totfact> 0.13486592E+06</totfact>
</mgrwt>
</event>
<event>
 4    1  0.3704929E-001  0.3251628E+02  0.7818608E-02  0.1571832E+00
          2   -1    0    0  501    0  0.00000000000E+00  0.00000000000E+00  0.77148508777E+01  0.77148513158E+01  0.26000000000E-02 0.  1.
         -2   -1    0    0    0  501 -0.00000000000E+00 -0.00000000000E+00 -0.34262123775E+02  0.34262123873E+02  0.26000000000E-02 0. -1.
        -13    1    1    2    0    0 -0.44474811904E+01  0.12107116839E+02 -0.26050390471E+02  0.29068821498E+02  0.10570000000E+00 0. -1.
         13    1    1    2    0    0  0.44474811904E+01 -0.12107116839E+02 -0.49688242618E+00  0.12908153691E+02  0.10570000000E+00 0.  1.
<mgrwt>
<rscale>  0 0.32516284E+02</rscale>
<asrwt>0</asrwt>
<pdfrwt beam="1">  1        2 0.11869002E-02 0.32516284E+02</pdfrwt>
<pdfrwt beam="2">  1       -2 0.52710959E-02 0.32516284E+02</pdfrwt>
<totfact> 0.11895883E+06</totfact>
</mgrwt>
</event>
<event>
 4    1  0.3704929E-001  0.2232351E+02  0.7818608E-02  0.1702716E+00
          2   -1    0    0  501    0  0.00000000000E+00  0.00000000000E+00  0.24712508167E+02  0.24712508304E+02  0.26000000000E-02 0. -1.
         -2   -1    0    0    0  501 -0.00000000000E+00 -0.00000000000E+00 -0.50413652700E+01  0.50413659405E+01  0.26000000000E-02 0.  1.
        -13    1    1    2    0    0  0.49995857179E+01  0.99788103695E+01  0.98799011989E+01  0.14906244796E+02  0.10570000000E+00 0. -1.
         13    1    1    2    0    0 -0.49995857179E+01 -0.99788103695E+01  0.97912416982E+01  0.14847629448E+02  0.10570000000E+00 0.  1.
<mgrwt>
<rscale>  0 0.22323512E+02</rscale>
<asrwt>0</asrwt>
<pdfrwt beam="1">  1        2 0.38019245E-02 0.22323512E+02</pdfrwt>
<pdfrwt beam="2">  1       -2 0.77559470E-03 0.22323512E+02</pdfrwt>
<totfact> 0.33113364E+06</totfact>
</mgrwt>
</event>
<event>
 4    1  0.3704929E-001  0.3899275E+02  0.7818608E-02  0.1515757E+00
         -2   -1    0    0    0  501 -0.00000000000E+00  0.00000000000E+00  0.39015123263E+02  0.39015123350E+02  0.26000000000E-02 0. -1.
          2   -1    0    0  501    0  0.00000000000E+00 -0.00000000000E+00 -0.97425981602E+01  0.97425985072E+01  0.26000000000E-02 0.  1.
        -13    1    1    2    0    0 -0.46056181434E+00 -0.17012055473E+02  0.26530173191E+02  0.31519571866E+02  0.10570000000E+00 0. -1.
         13    1    1    2    0    0  0.46056181434E+00  0.17012055473E+02  0.27423519119E+01  0.17238149991E+02  0.10570000000E+00 0.  1.
<mgrwt>
<rscale>  0 0.38992752E+02</rscale>
<asrwt>0</asrwt>
<pdfrwt beam="2">  1        2 0.14988613E-02 0.38992752E+02</pdfrwt>
<pdfrwt beam="1">  1       -2 0.60023268E-02 0.38992752E+02</pdfrwt>
<totfact> 0.76546579E+05</totfact>
</mgrwt>
</event>
<event>
 4    1  0.3704929E-001  0.3866390E+02  0.7818608E-02  0.1518280E+00
         -2   -1    0    0    0  501 -0.00000000000E+00  0.00000000000E+00  0.21882638131E+02  0.21882638286E+02  0.26000000000E-02 0.  1.
          2   -1    0    0  501    0  0.00000000000E+00 -0.00000000000E+00 -0.17078573195E+02  0.17078573393E+02  0.26000000000E-02 0. -1.
        -13    1    1    2    0    0  0.14053661448E+02  0.19978153409E+01  0.15626070299E+02  0.21111179780E+02  0.10570000000E+00 0.  1.
         13    1    1    2    0    0 -0.14053661448E+02 -0.19978153409E+01 -0.10822005362E+02  0.17850031899E+02  0.10570000000E+00 0. -1.
<mgrwt>
<rscale>  0 0.38663898E+02</rscale>
<asrwt>0</asrwt>
<pdfrwt beam="2">  1        2 0.26274728E-02 0.38663898E+02</pdfrwt>
<pdfrwt beam="1">  1       -2 0.33665597E-02 0.38663898E+02</pdfrwt>
<totfact> 0.84253630E+05</totfact>
</mgrwt>
</event>
<event>
 4    1  0.3704929E-001  0.2942057E+02  0.7818608E-02  0.1604583E+00
          2   -1    0    0  501    0  0.00000000000E+00  0.00000000000E+00  0.30964269130E+02  0.30964269240E+02  0.26000000000E-02 0. -1.
         -2   -1    0    0    0  501 -0.00000000000E+00 -0.00000000000E+00 -0.69884565204E+01  0.69884570041E+01  0.26000000000E-02 0.  1.
        -13    1    1    2    0    0  0.63730511097E+01 -0.11172217759E+02  0.21195612899E+02  0.24793132290E+02  0.10570000000E+00 0. -1.
         13    1    1    2    0    0 -0.63730511097E+01  0.11172217759E+02  0.27801997104E+01  0.13159593953E+02  0.10570000000E+00 0.  1.
<mgrwt>
<rscale>  0 0.29420568E+02</rscale>
<asrwt>0</asrwt>
<pdfrwt beam="1">  1        2 0.47637338E-02 0.29420568E+02</pdfrwt>
<pdfrwt beam="2">  1       -2 0.10751472E-02 0.29420568E+02</pdfrwt>
<totfact> 0.17785657E+06</totfact>
</mgrwt>
</event>
<event>
 4    1  0.3704929E-001  0.4661745E+02  0.7818608E-02  0.1464490E+00
         -2   -1    0    0    0  501 -0.00000000000E+00  0.00000000000E+00  0.75842497845E+01  0.75842502302E+01  0.26000000000E-02 0.  1.
          2   -1    0    0  501    0  0.00000000000E+00 -0.00000000000E+00 -0.71634855367E+02  0.71634855414E+02  0.26000000000E-02 0. -1.
        -13    1    1    2    0    0  0.81932157979E+01 -0.91221044847E+01 -0.65711090204E+02  0.66845344817E+02  0.10570000000E+00 0. -1.
         13    1    1    2    0    0 -0.81932157979E+01  0.91221044847E+01  0.16604846221E+01  0.12373760827E+02  0.10570000000E+00 0.  1.
<mgrwt>
<rscale>  0 0.46617450E+02</rscale>
<asrwt>0</asrwt>
<pdfrwt beam="2">  1        2 0.11020747E-01 0.46617450E+02</pdfrwt>
<pdfrwt beam="1">  1       -2 0.11668077E-02 0.46617450E+02</pdfrwt>
<totfact> 0.65984972E+05</totfact>
</mgrwt>
</event>
<event>
 4    1  0.3704929E-001  0.4468559E+02  0.7818608E-02  0.1476314E+00
         -2   -1    0    0    0  501 -0.00000000000E+00  0.00000000000E+00  0.62715269469E+02  0.62715269523E+02  0.26000000000E-02 0.  1.
          2   -1    0    0  501    0  0.00000000000E+00 -0.00000000000E+00 -0.79597908320E+01  0.79597912566E+01  0.26000000000E-02 0. -1.
        -13    1    1    2    0    0  0.43286646654E+01  0.90761383941E+01  0.58933708086E+02  0.59785506163E+02  0.10570000000E+00 0.  1.
         13    1    1    2    0    0 -0.43286646654E+01 -0.90761383941E+01 -0.41782294486E+01  0.10889554617E+02  0.10570000000E+00 0. -1.
<mgrwt>
<rscale>  0 0.44685588E+02</rscale>
<asrwt>0</asrwt>
<pdfrwt beam="2">  1        2 0.12245832E-02 0.44685588E+02</pdfrwt>
<pdfrwt beam="1">  1       -2 0.96485032E-02 0.44685588E+02</pdfrwt>
<totfact> 0.51265748E+05</totfact>
</mgrwt>
</event>
<event>
 4    1  0.3704929E-001  0.3455929E+02  0.7818608E-02  0.1552549E+00
         -2   -1    0    0    0  501 -0.00000000000E+00  0.00000000000E+00  0.85336558693E+01  0.85336562654E+01  0.26000000000E-02 0.  1.
          2   -1    0    0  501    0  0.00000000000E+00 -0.00000000000E+00 -0.34989230110E+02  0.34989230206E+02  0.26000000000E-02 0. -1.
        -13    1    1    2    0    0 -0.14713135968E+02  0.68742273683E+01 -0.20661639149E+02  0.26280142251E+02  0.10570000000E+00 0. -1.
         13    1    1    2    0    0  0.14713135968E+02 -0.68742273683E+01 -0.57939350910E+01  0.17242744220E+02  0.10570000000E+00 0.  1.
<mgrwt>
<rscale>  0 0.34559286E+02</rscale>
<asrwt>0</asrwt>
<pdfrwt beam="2">  1        2 0.53829585E-02 0.34559286E+02</pdfrwt>
<pdfrwt beam="1">  1       -2 0.13128702E-02 0.34559286E+02</pdfrwt>
<totfact> 0.12237698E+06</totfact>
</mgrwt>
</event>
<event>
 4    1  0.3704929E-001  0.4685685E+02  0.7818608E-02  0.1463072E+00
         -2   -1    0    0    0  501 -0.00000000000E+00  0.00000000000E+00  0.16825193980E+03  0.16825193982E+03  0.26000000000E-02 0.  1.
          2   -1    0    0  501    0  0.00000000000E+00 -0.00000000000E+00 -0.32623160306E+01  0.32623170667E+01  0.26000000000E-02 0. -1.
        -13    1    1    2    0    0  0.17708050254E+02 -0.15038079926E+02  0.71415846225E+02  0.75099621545E+02  0.10570000000E+00 0. -1.
         13    1    1    2    0    0 -0.17708050254E+02  0.15038079926E+02  0.93573777540E+02  0.96414635337E+02  0.10570000000E+00 0.  1.
<mgrwt>
<rscale>  0 0.46856850E+02</rscale>
<asrwt>0</asrwt>
<pdfrwt beam="2">  1        2 0.50189458E-03 0.46856850E+02</pdfrwt>
<pdfrwt beam="1">  1       -2 0.25884928E-01 0.46856850E+02</pdfrwt>
<totfact> 0.35333209E+05</totfact>
</mgrwt>
</event>
<event>
 4    1  0.3704929E-001  0.4931565E+02  0.7818608E-02  0.1449068E+00
          2   -1    0    0  501    0  0.00000000000E+00  0.00000000000E+00  0.22050917296E+02  0.22050917450E+02  0.26000000000E-02 0. -1.
         -2   -1    0    0    0  501 -0.00000000000E+00 -0.00000000000E+00 -0.27572922311E+02  0.27572922433E+02  0.26000000000E-02 0.  1.
        -13    1    1    2    0    0 -0.24316607798E+02 -0.35974215064E+01 -0.47117273706E+01  0.25028991262E+02  0.10570000000E+00 0. -1.
         13    1    1    2    0    0  0.24316607798E+02  0.35974215064E+01 -0.81027764346E+00  0.24594848620E+02  0.10570000000E+00 0.  1.
<mgrwt>
<rscale>  0 0.49315646E+02</rscale>
<asrwt>0</asrwt>
<pdfrwt beam="1">  1        2 0.33924488E-02 0.49315646E+02</pdfrwt>
<pdfrwt beam="2">  1       -2 0.42419881E-02 0.49315646E+02</pdfrwt>
<totfact> 0.46375611E+05</totfact>
</mgrwt>
</event>
<event>
 4    1  0.3704929E-001  0.2858238E+02  0.7818608E-02  0.1614309E+00
         -2   -1    0    0    0  501 -0.00000000000E+00  0.00000000000E+00  0.10157141519E+02  0.10157141851E+02  0.26000000000E-02 0.  1.
          2   -1    0    0  501    0  0.00000000000E+00 -0.00000000000E+00 -0.20107832543E+02  0.20107832711E+02  0.26000000000E-02 0. -1.
        -13    1    1    2    0    0  0.95367204174E+01  0.87415148130E+01  0.14536346603E+01  0.13018730497E+02  0.10570000000E+00 0. -1.
         13    1    1    2    0    0 -0.95367204174E+01 -0.87415148130E+01 -0.11404325684E+02  0.17246244065E+02  0.10570000000E+00 0.  1.
<mgrwt>
<rscale>  0 0.28582380E+02</rscale>
<asrwt>0</asrwt>
<pdfrwt beam="2">  1        2 0.30935127E-02 0.28582380E+02</pdfrwt>
<pdfrwt beam="1">  1       -2 0.15626372E-02 0.28582380E+02</pdfrwt>
<totfact> 0.18144905E+06</totfact>
</mgrwt>
</event>
<event>
 4    1  0.3704929E-001  0.3880159E+02  0.7818608E-02  0.1517220E+00
         -2   -1    0    0    0  501 -0.00000000000E+00  0.00000000000E+00  0.41975142361E+01  0.41975150413E+01  0.26000000000E-02 0. -1.
          2   -1    0    0  501    0  0.00000000000E+00 -0.00000000000E+00 -0.89669941220E+02  0.89669941258E+02  0.26000000000E-02 0.  1.
        -13    1    1    2    0    0 -0.13491738115E+02 -0.57186172405E+00 -0.76433515268E+02  0.77617314124E+02  0.10570000000E+00 0.  1.
         13    1    1    2    0    0  0.13491738115E+02  0.57186172405E+00 -0.90389117166E+01  0.16250142175E+02  0.10570000000E+00 0. -1.
<mgrwt>
<rscale>  0 0.38801592E+02</rscale>
<asrwt>0</asrwt>
<pdfrwt beam="2">  1        2 0.13795374E-01 0.38801592E+02</pdfrwt>
<pdfrwt beam="1">  1       -2 0.64577155E-03 0.38801592E+02</pdfrwt>
<totfact> 0.10963136E+06</totfact>
</mgrwt>
</event>
<event>
 4    1  0.3704929E-001  0.5065509E+02  0.7818608E-02  0.1441840E+00
         -2   -1    0    0    0  501 -0.00000000000E+00  0.00000000000E+00  0.12223811511E+03  0.12223811514E+03  0.26000000000E-02 0.  1.
          2   -1    0    0  501    0  0.00000000000E+00 -0.00000000000E+00 -0.52478271973E+01  0.52478278414E+01  0.26000000000E-02 0. -1.
        -13    1    1    2    0    0  0.22184939881E+02 -0.37491603294E+01  0.29226621333E+02  0.36884066041E+02  0.10570000000E+00 0. -1.
         13    1    1    2    0    0 -0.22184939881E+02  0.37491603294E+01  0.87763666578E+02  0.90601876936E+02  0.10570000000E+00 0.  1.
<mgrwt>
<rscale>  0 0.50655090E+02</rscale>
<asrwt>0</asrwt>
<pdfrwt beam="2">  1        2 0.80735808E-03 0.50655090E+02</pdfrwt>
<pdfrwt beam="1">  1       -2 0.18805864E-01 0.50655090E+02</pdfrwt>
<totfact> 0.32387353E+05</totfact>
</mgrwt>
</event>
<event>
 4    1  0.3704929E-001  0.4355222E+02  0.7818608E-02  0.1483588E+00
          2   -1    0    0  501    0  0.00000000000E+00  0.00000000000E+00  0.79935173727E+02  0.79935173770E+02  0.26000000000E-02 0. -1.
         -2   -1    0    0    0  501 -0.00000000000E+00 -0.00000000000E+00 -0.59322944465E+01  0.59322950163E+01  0.26000000000E-02 0.  1.
        -13    1    1    2    0    0  0.19397094717E+02  0.98962740749E+01  0.37130980235E+02  0.43045375939E+02  0.10570000000E+00 0. -1.
         13    1    1    2    0    0 -0.19397094717E+02 -0.98962740749E+01  0.36871899046E+02  0.42822092847E+02  0.10570000000E+00 0.  1.
<mgrwt>
<rscale>  0 0.43552222E+02</rscale>
<asrwt>0</asrwt>
<pdfrwt beam="1">  1        2 0.12297719E-01 0.43552222E+02</pdfrwt>
<pdfrwt beam="2">  1       -2 0.91266070E-03 0.43552222E+02</pdfrwt>
<totfact> 0.80221522E+05</totfact>
</mgrwt>
</event>
<event>
 4    1  0.3704929E-001  0.2637101E+02  0.7818608E-02  0.1642056E+00
          2   -1    0    0  501    0  0.00000000000E+00  0.00000000000E+00  0.12905803223E+02  0.12905803485E+02  0.26000000000E-02 0. -1.
         -2   -1    0    0    0  501 -0.00000000000E+00 -0.00000000000E+00 -0.13471263503E+02  0.13471263754E+02  0.26000000000E-02 0.  1.
        -13    1    1    2    0    0 -0.50514869792E+01 -0.11979453762E+02  0.19135608013E+01  0.13141450474E+02  0.10570000000E+00 0. -1.
         13    1    1    2    0    0  0.50514869792E+01  0.11979453762E+02 -0.24790210812E+01  0.13235616765E+02  0.10570000000E+00 0.  1.
<mgrwt>
<rscale>  0 0.26371005E+02</rscale>
<asrwt>0</asrwt>
<pdfrwt beam="1">  1        2 0.19855082E-02 0.26371005E+02</pdfrwt>
<pdfrwt beam="2">  1       -2 0.20725021E-02 0.26371005E+02</pdfrwt>
<totfact> 0.21082700E+06</totfact>
</mgrwt>
</event>
<event>
 4    1  0.3704929E-001  0.4472083E+02  0.7818608E-02  0.1476092E+00
          2   -1    0    0  501    0  0.00000000000E+00  0.00000000000E+00  0.20749226976E+02  0.20749227139E+02  0.26000000000E-02 0.  1.
         -2   -1    0    0    0  501 -0.00000000000E+00 -0.00000000000E+00 -0.24096707996E+02  0.24096708136E+02  0.26000000000E-02 0. -1.
        -13    1    1    2    0    0 -0.21713803357E+02  0.52802467809E+01 -0.89269341287E+00  0.22364667140E+02  0.10570000000E+00 0.  1.
         13    1    1    2    0    0  0.21713803357E+02 -0.52802467809E+01 -0.24547876066E+01  0.22481268135E+02  0.10570000000E+00 0. -1.
<mgrwt>
<rscale>  0 0.44720826E+02</rscale>
<asrwt>0</asrwt>
<pdfrwt beam="1">  1        2 0.31921888E-02 0.44720826E+02</pdfrwt>
<pdfrwt beam="2">  1       -2 0.37071859E-02 0.44720826E+02</pdfrwt>
<totfact> 0.59415525E+05</totfact>
</mgrwt>
</event>
<event>
 4    1  0.3704929E-001  0.2305871E+02  0.7818608E-02  0.1690560E+00
          2   -1    0    0  501    0  0.00000000000E+00  0.00000000000E+00  0.24752843862E+02  0.24752843999E+02  0.26000000000E-02 0.  1.
         -2   -1    0    0    0  501 -0.00000000000E+00 -0.00000000000E+00 -0.53701299878E+01  0.53701306172E+01  0.26000000000E-02 0. -1.
        -13    1    1    2    0    0 -0.53430793599E+01  0.96868548444E+01  0.13930726643E+02  0.17789321829E+02  0.10570000000E+00 0.  1.
         13    1    1    2    0    0  0.53430793599E+01 -0.96868548444E+01  0.54519872313E+01  0.12333652787E+02  0.10570000000E+00 0. -1.
<mgrwt>
<rscale>  0 0.23058708E+02</rscale>
<asrwt>0</asrwt>
<pdfrwt beam="1">  1        2 0.38081300E-02 0.23058708E+02</pdfrwt>
<pdfrwt beam="2">  1       -2 0.82617387E-03 0.23058708E+02</pdfrwt>
<totfact> 0.30740563E+06</totfact>
</mgrwt>
</event>
<event>
 4    1  0.3704929E-001  0.3258271E+02  0.7818608E-02  0.1571178E+00
          2   -1    0    0  501    0  0.00000000000E+00  0.00000000000E+00  0.83173978998E+02  0.83173979039E+02  0.26000000000E-02 0.  1.
         -2   -1    0    0    0  501 -0.00000000000E+00 -0.00000000000E+00 -0.31910010988E+01  0.31910021580E+01  0.26000000000E-02 0. -1.
        -13    1    1    2    0    0  0.68024019070E+01  0.14675579872E+02  0.34857306929E+02  0.38427702704E+02  0.10570000000E+00 0. -1.
         13    1    1    2    0    0 -0.68024019070E+01 -0.14675579872E+02  0.45125670971E+02  0.47937278493E+02  0.10570000000E+00 0.  1.
<mgrwt>
<rscale>  0 0.32582714E+02</rscale>
<asrwt>0</asrwt>
<pdfrwt beam="1">  1        2 0.12795994E-01 0.32582714E+02</pdfrwt>
<pdfrwt beam="2">  1       -2 0.49092343E-03 0.32582714E+02</pdfrwt>
<totfact> 0.16454717E+06</totfact>
</mgrwt>
</event>
<event>
 4    1  0.3704929E-001  0.2655745E+02  0.7818608E-02  0.1639589E+00
         -2   -1    0    0    0  501 -0.00000000000E+00  0.00000000000E+00  0.11332683287E+03  0.11332683290E+03  0.26000000000E-02 0.  1.
          2   -1    0    0  501    0  0.00000000000E+00 -0.00000000000E+00 -0.15558926026E+01  0.15558947750E+01  0.26000000000E-02 0. -1.
        -13    1    1    2    0    0  0.11327326402E+02 -0.52617213301E+01  0.36386001524E+02  0.38470070369E+02  0.10570000000E+00 0. -1.
         13    1    1    2    0    0 -0.11327326402E+02  0.52617213301E+01  0.75384938743E+02  0.76412657306E+02  0.10570000000E+00 0.  1.
<mgrwt>
<rscale>  0 0.26557448E+02</rscale>
<asrwt>0</asrwt>
<pdfrwt beam="2">  1        2 0.23936825E-03 0.26557448E+02</pdfrwt>
<pdfrwt beam="1">  1       -2 0.17434899E-01 0.26557448E+02</pdfrwt>
<totfact> 0.15292731E+06</totfact>
</mgrwt>
</event>
<event>
 4    1  0.3704929E-001  0.2088037E+02  0.7818608E-02  0.1728367E+00
          2   -1    0    0  501    0  0.00000000000E+00  0.00000000000E+00  0.93125428184E+00  0.93125791134E+00  0.26000000000E-02 0.  1.
         -2   -1    0    0    0  501 -0.00000000000E+00 -0.00000000000E+00 -0.11704348038E+03  0.11704348040E+03  0.26000000000E-02 0. -1.
        -13    1    1    2    0    0  0.93460165944E+01 -0.46437538061E+01 -0.56521113074E+02  0.57476602815E+02  0.10570000000E+00 0. -1.
         13    1    1    2    0    0 -0.93460165944E+01  0.46437538061E+01 -0.59591113020E+02  0.60498135501E+02  0.10570000000E+00 0.  1.
<mgrwt>
<rscale>  0 0.20880370E+02</rscale>
<asrwt>0</asrwt>
<pdfrwt beam="1">  1        2 0.14327026E-03 0.20880370E+02</pdfrwt>
<pdfrwt beam="2">  1       -2 0.18006678E-01 0.20880370E+02</pdfrwt>
<totfact> 0.25972549E+06</totfact>
</mgrwt>
</event>
<event>
 4    1  0.3704929E-001  0.2694069E+02  0.7818608E-02  0.1634596E+00
         -2   -1    0    0    0  501 -0.00000000000E+00  0.00000000000E+00  0.26861656180E+01  0.26861668763E+01  0.26000000000E-02 0.  1.
          2   -1    0    0  501    0  0.00000000000E+00 -0.00000000000E+00 -0.67549862761E+02  0.67549862811E+02  0.26000000000E-02 0. -1.
        -13    1    1    2    0    0  0.21450183434E+01 -0.12934824164E+02 -0.40479274554E+02  0.42549895661E+02  0.10570000000E+00 0. -1.
         13    1    1    2    0    0 -0.21450183434E+01  0.12934824164E+02 -0.24384422589E+02  0.27686134026E+02  0.10570000000E+00 0.  1.
<mgrwt>
<rscale>  0 0.26940688E+02</rscale>
<asrwt>0</asrwt>
<pdfrwt beam="2">  1        2 0.10392285E-01 0.26940688E+02</pdfrwt>
<pdfrwt beam="1">  1       -2 0.41325640E-03 0.26940688E+02</pdfrwt>
<totfact> 0.24711681E+06</totfact>
</mgrwt>
</event>
<event>
 4    1  0.3704929E-001  0.2358904E+02  0.7818608E-02  0.1682136E+00
         -2   -1    0    0    0  501 -0.00000000000E+00  0.00000000000E+00  0.12873892295E+01  0.12873918550E+01  0.26000000000E-02 0.  1.
          2   -1    0    0  501    0  0.00000000000E+00 -0.00000000000E+00 -0.10805636044E+03  0.10805636047E+03  0.26000000000E-02 0. -1.
        -13    1    1    2    0    0 -0.67529751236E+01 -0.96570699724E+01 -0.51123617130E+02  0.52464245676E+02  0.10570000000E+00 0.  1.
         13    1    1    2    0    0  0.67529751236E+01  0.96570699724E+01 -0.55645354076E+02  0.56879506645E+02  0.10570000000E+00 0. -1.
<mgrwt>
<rscale>  0 0.23589043E+02</rscale>
<asrwt>0</asrwt>
<pdfrwt beam="2">  1        2 0.16624049E-01 0.23589043E+02</pdfrwt>
<pdfrwt beam="1">  1       -2 0.19806017E-03 0.23589043E+02</pdfrwt>
<totfact> 0.37134081E+06</totfact>
</mgrwt>
</event>
<event>
 4    1  0.3704929E-001  0.2449024E+02  0.7818608E-02  0.1668434E+00
         -2   -1    0    0    0  501 -0.00000000000E+00  0.00000000000E+00  0.13596526267E+01  0.13596551126E+01  0.26000000000E-02 0.  1.
          2   -1    0    0  501    0  0.00000000000E+00 -0.00000000000E+00 -0.11028022650E+03  0.11028022653E+03  0.26000000000E-02 0. -1.
        -13    1    1    2    0    0  0.51356076348E+01 -0.10721889832E+02 -0.41093264273E+02  0.42778510124E+02  0.10570000000E+00 0. -1.
         13    1    1    2    0    0 -0.51356076348E+01  0.10721889832E+02 -0.67827309595E+02  0.68861371514E+02  0.10570000000E+00 0.  1.
<mgrwt>
<rscale>  0 0.24490238E+02</rscale>
<asrwt>0</asrwt>
<pdfrwt beam="2">  1        2 0.16966182E-01 0.24490238E+02</pdfrwt>
<pdfrwt beam="1">  1       -2 0.20917761E-03 0.24490238E+02</pdfrwt>
<totfact> 0.34268066E+06</totfact>
</mgrwt>
</event>
<event>
 4    1  0.3704929E-001  0.2686761E+02  0.7818608E-02  0.1635540E+00
         -2   -1    0    0    0  501 -0.00000000000E+00  0.00000000000E+00  0.27035143323E+02  0.27035143448E+02  0.26000000000E-02 0.  1.
          2   -1    0    0  501    0  0.00000000000E+00 -0.00000000000E+00 -0.66752799222E+01  0.66752804285E+01  0.26000000000E-02 0. -1.
        -13    1    1    2    0    0  0.54162584244E+01 -0.97483569653E+01  0.78320570483E+00  0.11179933028E+02  0.10570000000E+00 0. -1.
         13    1    1    2    0    0 -0.54162584244E+01  0.97483569653E+01  0.19576657696E+02  0.22530490849E+02  0.10570000000E+00 0.  1.
<mgrwt>
<rscale>  0 0.26867613E+02</rscale>
<asrwt>0</asrwt>
<pdfrwt beam="2">  1        2 0.10269662E-02 0.26867613E+02</pdfrwt>
<pdfrwt beam="1">  1       -2 0.41592529E-02 0.26867613E+02</pdfrwt>
<totfact> 0.18910366E+06</totfact>
</mgrwt>
</event>
<event>
 4    1  0.3704929E-001  0.3483605E+02  0.7818608E-02  0.1550061E+00
         -2   -1    0    0    0  501 -0.00000000000E+00  0.00000000000E+00  0.58754947192E+02  0.58754947250E+02  0.26000000000E-02 0.  1.
          2   -1    0    0  501    0  0.00000000000E+00 -0.00000000000E+00 -0.51636080531E+01  0.51636087077E+01  0.26000000000E-02 0. -1.
        -13    1    1    2    0    0  0.39394309592E+01  0.10224813041E+02  0.51637963770E+02  0.52787843229E+02  0.10570000000E+00 0.  1.
         13    1    1    2    0    0 -0.39394309592E+01 -0.10224813041E+02  0.19533753691E+01  0.11130712728E+02  0.10570000000E+00 0. -1.
<mgrwt>
<rscale>  0 0.34836047E+02</rscale>
<asrwt>0</asrwt>
<pdfrwt beam="2">  1        2 0.79440131E-03 0.34836047E+02</pdfrwt>
<pdfrwt beam="1">  1       -2 0.90392225E-02 0.34836047E+02</pdfrwt>
<totfact> 0.93690365E+05</totfact>
</mgrwt>
</event>
<event>
 4    1  0.3704929E-001  0.2200362E+02  0.7818608E-02  0.1708189E+00
         -2   -1    0    0    0  501 -0.00000000000E+00  0.00000000000E+00  0.62971801424E+01  0.62971806791E+01  0.26000000000E-02 0.  1.
          2   -1    0    0  501    0  0.00000000000E+00 -0.00000000000E+00 -0.19221270290E+02  0.19221270466E+02  0.26000000000E-02 0. -1.
        -13    1    1    2    0    0 -0.67513030890E+01 -0.83140719854E+01 -0.93786791235E+01  0.14236385811E+02  0.10570000000E+00 0. -1.
         13    1    1    2    0    0  0.67513030890E+01  0.83140719854E+01 -0.35454110245E+01  0.11282065334E+02  0.10570000000E+00 0.  1.
<mgrwt>
<rscale>  0 0.22003619E+02</rscale>
<asrwt>0</asrwt>
<pdfrwt beam="2">  1        2 0.29571185E-02 0.22003619E+02</pdfrwt>
<pdfrwt beam="1">  1       -2 0.96879701E-03 0.22003619E+02</pdfrwt>
<totfact> 0.33413380E+06</totfact>
</mgrwt>
</event>
<event>
 4    1  0.3704929E-001  0.2810240E+02  0.7818608E-02  0.1620064E+00
         -2   -1    0    0    0  501 -0.00000000000E+00  0.00000000000E+00  0.10005453371E+02  0.10005453709E+02  0.26000000000E-02 0. -1.
          2   -1    0    0  501    0  0.00000000000E+00 -0.00000000000E+00 -0.19732857355E+02  0.19732857526E+02  0.26000000000E-02 0.  1.
        -13    1    1    2    0    0 -0.97429869504E+01  0.77205098332E+01  0.20668191772E+01  0.12602181589E+02  0.10570000000E+00 0.  1.
         13    1    1    2    0    0  0.97429869504E+01 -0.77205098332E+01 -0.11794223161E+02  0.17136129646E+02  0.10570000000E+00 0. -1.
<mgrwt>
<rscale>  0 0.28102398E+02</rscale>
<asrwt>0</asrwt>
<pdfrwt beam="2">  1        2 0.30358243E-02 0.28102398E+02</pdfrwt>
<pdfrwt beam="1">  1       -2 0.15393006E-02 0.28102398E+02</pdfrwt>
<totfact> 0.18860663E+06</totfact>
</mgrwt>
</event>
<event>
 4    1  0.3704929E-001  0.2940902E+02  0.7818608E-02  0.1604715E+00
         -2   -1    0    0    0  501 -0.00000000000E+00  0.00000000000E+00  0.26189011770E+02  0.26189011899E+02  0.26000000000E-02 0.  1.
          2   -1    0    0  501    0  0.00000000000E+00 -0.00000000000E+00 -0.82562350509E+01  0.82562354603E+01  0.26000000000E-02 0. -1.
        -13    1    1    2    0    0 -0.14254839156E+02  0.14595473021E+01  0.12829864717E+02  0.19234014631E+02  0.10570000000E+00 0. -1.
         13    1    1    2    0    0  0.14254839156E+02 -0.14595473021E+01  0.51029120018E+01  0.15211232727E+02  0.10570000000E+00 0.  1.
<mgrwt>
<rscale>  0 0.29409022E+02</rscale>
<asrwt>0</asrwt>
<pdfrwt beam="2">  1        2 0.12701901E-02 0.29409022E+02</pdfrwt>
<pdfrwt beam="1">  1       -2 0.40290788E-02 0.29409022E+02</pdfrwt>
<totfact> 0.15458889E+06</totfact>
</mgrwt>
</event>
<event>
 4    1  0.3704929E-001  0.3884990E+02  0.7818608E-02  0.1516850E+00
          2   -1    0    0  501    0  0.00000000000E+00  0.00000000000E+00  0.52606502248E+01  0.52606508673E+01  0.26000000000E-02 0.  1.
         -2   -1    0    0    0  501 -0.00000000000E+00 -0.00000000000E+00 -0.71726611366E+02  0.71726611413E+02  0.26000000000E-02 0. -1.
        -13    1    1    2    0    0  0.12687471030E+02  0.19611400980E+01 -0.43456156800E+01  0.13554096788E+02  0.10570000000E+00 0.  1.
         13    1    1    2    0    0 -0.12687471030E+02 -0.19611400980E+01 -0.62120345461E+02  0.63433165492E+02  0.10570000000E+00 0. -1.
<mgrwt>
<rscale>  0 0.38849898E+02</rscale>
<asrwt>0</asrwt>
<pdfrwt beam="1">  1        2 0.80933091E-03 0.38849898E+02</pdfrwt>
<pdfrwt beam="2">  1       -2 0.11034863E-01 0.38849898E+02</pdfrwt>
<totfact> 0.69812976E+05</totfact>
</mgrwt>
</event>
<event>
 4    1  0.3704929E-001  0.4194267E+02  0.7818608E-02  0.1494383E+00
         -2   -1    0    0    0  501 -0.00000000000E+00  0.00000000000E+00  0.24898814741E+02  0.24898814877E+02  0.26000000000E-02 0.  1.
          2   -1    0    0  501    0  0.00000000000E+00 -0.00000000000E+00 -0.17663368863E+02  0.17663369055E+02  0.26000000000E-02 0. -1.
        -13    1    1    2    0    0  0.98519145121E+01 -0.92712411481E+01 -0.12642992314E+02  0.18516818278E+02  0.10570000000E+00 0. -1.
         13    1    1    2    0    0 -0.98519145121E+01  0.92712411481E+01  0.19878438192E+02  0.24045365654E+02  0.10570000000E+00 0.  1.
<mgrwt>
<rscale>  0 0.41942673E+02</rscale>
<asrwt>0</asrwt>
<pdfrwt beam="2">  1        2 0.27174414E-02 0.41942673E+02</pdfrwt>
<pdfrwt beam="1">  1       -2 0.38305869E-02 0.41942673E+02</pdfrwt>
<totfact> 0.68640693E+05</totfact>
</mgrwt>
</event>
<event>
 4    1  0.3704929E-001  0.2676652E+02  0.7818608E-02  0.1636853E+00
          2   -1    0    0  501    0  0.00000000000E+00  0.00000000000E+00  0.83058595454E+02  0.83058595495E+02  0.26000000000E-02 0. -1.
         -2   -1    0    0    0  501 -0.00000000000E+00 -0.00000000000E+00 -0.21564480687E+01  0.21564496361E+01  0.26000000000E-02 0.  1.
        -13    1    1    2    0    0 -0.72131244282E+01 -0.11091072745E+02  0.46865451480E+02  0.48697256325E+02  0.10570000000E+00 0. -1.
         13    1    1    2    0    0  0.72131244282E+01  0.11091072745E+02  0.34036695905E+02  0.36517788806E+02  0.10570000000E+00 0.  1.
<mgrwt>
<rscale>  0 0.26766518E+02</rscale>
<asrwt>0</asrwt>
<pdfrwt beam="1">  1        2 0.12778243E-01 0.26766518E+02</pdfrwt>
<pdfrwt beam="2">  1       -2 0.33176142E-03 0.26766518E+02</pdfrwt>
<totfact> 0.26161384E+06</totfact>
</mgrwt>
</event>
<event>
 4    1  0.3704929E-001  0.4256190E+02  0.7818608E-02  0.1490163E+00
         -2   -1    0    0    0  501 -0.00000000000E+00  0.00000000000E+00  0.10356635856E+02  0.10356636182E+02  0.26000000000E-02 0.  1.
          2   -1    0    0  501    0  0.00000000000E+00 -0.00000000000E+00 -0.43728370545E+02  0.43728370622E+02  0.26000000000E-02 0. -1.
        -13    1    1    2    0    0  0.12818921960E+02  0.14650614953E+01 -0.38190881252E+02  0.40311608113E+02  0.10570000000E+00 0. -1.
         13    1    1    2    0    0 -0.12818921960E+02 -0.14650614953E+01  0.48191465626E+01  0.13773398691E+02  0.10570000000E+00 0.  1.
<mgrwt>
<rscale>  0 0.42561899E+02</rscale>
<asrwt>0</asrwt>
<pdfrwt beam="2">  1        2 0.67274416E-02 0.42561899E+02</pdfrwt>
<pdfrwt beam="1">  1       -2 0.15933286E-02 0.42561899E+02</pdfrwt>
<totfact> 0.75481312E+05</totfact>
</mgrwt>
</event>
<event>
 4    1  0.3704929E-001  0.6400932E+02  0.7818608E-02  0.1381737E+00
          2   -1    0    0  501    0  0.00000000000E+00  0.00000000000E+00  0.11130195228E+03  0.11130195231E+03  0.26000000000E-02 0. -1.
         -2   -1    0    0    0  501 -0.00000000000E+00 -0.00000000000E+00 -0.92028771203E+01  0.92028774875E+01  0.26000000000E-02 0.  1.
        -13    1    1    2    0    0  0.20545690503E+02 -0.24399303932E+02  0.55971631748E+02  0.64422714655E+02  0.10570000000E+00 0. -1.
         13    1    1    2    0    0 -0.20545690503E+02  0.24399303932E+02  0.46127443409E+02  0.56082115140E+02  0.10570000000E+00 0.  1.
<mgrwt>
<rscale>  0 0.64009319E+02</rscale>
<asrwt>0</asrwt>
<pdfrwt beam="1">  1        2 0.17123377E-01 0.64009319E+02</pdfrwt>
<pdfrwt beam="2">  1       -2 0.14158273E-02 0.64009319E+02</pdfrwt>
<totfact> 0.32661628E+05</totfact>
</mgrwt>
</event>
<event>
 4    1  0.3704929E-001  0.2715036E+02  0.7818608E-02  0.1631907E+00
          2   -1    0    0  501    0  0.00000000000E+00  0.00000000000E+00  0.63133110731E+01  0.63133116085E+01  0.26000000000E-02 0.  1.
         -2   -1    0    0    0  501 -0.00000000000E+00 -0.00000000000E+00 -0.29189987161E+02  0.29189987277E+02  0.26000000000E-02 0. -1.
        -13    1    1    2    0    0  0.62823010769E+01  0.10087966925E+02 -0.20017184693E+02  0.23279459594E+02  0.10570000000E+00 0. -1.
         13    1    1    2    0    0 -0.62823010769E+01 -0.10087966925E+02 -0.28594913957E+01  0.12223839291E+02  0.10570000000E+00 0.  1.
<mgrwt>
<rscale>  0 0.27150358E+02</rscale>
<asrwt>0</asrwt>
<pdfrwt beam="1">  1        2 0.97127870E-03 0.27150358E+02</pdfrwt>
<pdfrwt beam="2">  1       -2 0.44907672E-02 0.27150358E+02</pdfrwt>
<totfact> 0.18316240E+06</totfact>
</mgrwt>
</event>
<event>
 4    1  0.3704929E-001  0.4781175E+02  0.7818608E-02  0.1457515E+00
          2   -1    0    0  501    0  0.00000000000E+00  0.00000000000E+00  0.10384780433E+03  0.10384780437E+03  0.26000000000E-02 0. -1.
         -2   -1    0    0    0  501 -0.00000000000E+00 -0.00000000000E+00 -0.55031570291E+01  0.55031576433E+01  0.26000000000E-02 0.  1.
        -13    1    1    2    0    0 -0.95374084880E+01 -0.17733227686E+02  0.19700461718E+02  0.28169999808E+02  0.10570000000E+00 0.  1.
         13    1    1    2    0    0  0.95374084880E+01  0.17733227686E+02  0.78644185586E+02  0.81180962201E+02  0.10570000000E+00 0. -1.
<mgrwt>
<rscale>  0 0.47811748E+02</rscale>
<asrwt>0</asrwt>
<pdfrwt beam="1">  1        2 0.15976584E-01 0.47811748E+02</pdfrwt>
<pdfrwt beam="2">  1       -2 0.84663969E-03 0.47811748E+02</pdfrwt>
<totfact> 0.67696169E+05</totfact>
</mgrwt>
</event>
<event>
 4    1  0.3704929E-001  0.2769292E+02  0.7818608E-02  0.1625086E+00
         -2   -1    0    0    0  501 -0.00000000000E+00  0.00000000000E+00  0.21487506149E+02  0.21487506306E+02  0.26000000000E-02 0.  1.
          2   -1    0    0  501    0  0.00000000000E+00 -0.00000000000E+00 -0.89226003492E+01  0.89226007280E+01  0.26000000000E-02 0. -1.
        -13    1    1    2    0    0 -0.73878117836E+00 -0.13800322284E+02  0.72133133775E+01  0.15589668218E+02  0.10570000000E+00 0.  1.
         13    1    1    2    0    0  0.73878117836E+00  0.13800322284E+02  0.53515924220E+01  0.14820438816E+02  0.10570000000E+00 0. -1.
<mgrwt>
<rscale>  0 0.27692919E+02</rscale>
<asrwt>0</asrwt>
<pdfrwt beam="2">  1        2 0.13727078E-02 0.27692919E+02</pdfrwt>
<pdfrwt beam="1">  1       -2 0.33057702E-02 0.27692919E+02</pdfrwt>
<totfact> 0.18081409E+06</totfact>
</mgrwt>
</event>
<event>
 4    1  0.3704929E-001  0.2742963E+02  0.7818608E-02  0.1628372E+00
         -2   -1    0    0    0  501 -0.00000000000E+00  0.00000000000E+00  0.13354057870E+03  0.13354057872E+03  0.26000000000E-02 0.  1.
          2   -1    0    0  501    0  0.00000000000E+00 -0.00000000000E+00 -0.14085300683E+01  0.14085324680E+01  0.26000000000E-02 0. -1.
        -13    1    1    2    0    0  0.12520215580E+02  0.55932363215E+01  0.67107598364E+02  0.68494386787E+02  0.10570000000E+00 0. -1.
         13    1    1    2    0    0 -0.12520215580E+02 -0.55932363215E+01  0.65024450263E+02  0.66454724402E+02  0.10570000000E+00 0.  1.
<mgrwt>
<rscale>  0 0.27429625E+02</rscale>
<asrwt>0</asrwt>
<pdfrwt beam="2">  1        2 0.21669719E-03 0.27429625E+02</pdfrwt>
<pdfrwt beam="1">  1       -2 0.20544698E-01 0.27429625E+02</pdfrwt>
<totfact> 0.13556830E+06</totfact>
</mgrwt>
</event>
<event>
 4    1  0.3704929E-001  0.3294811E+02  0.7818608E-02  0.1567615E+00
         -2   -1    0    0    0  501 -0.00000000000E+00  0.00000000000E+00  0.41898033108E+02  0.41898033189E+02  0.26000000000E-02 0.  1.
          2   -1    0    0  501    0  0.00000000000E+00 -0.00000000000E+00 -0.64774997552E+01  0.64775002770E+01  0.26000000000E-02 0. -1.
        -13    1    1    2    0    0 -0.85769186952E+01  0.88947495506E+01  0.33706823806E+02  0.35900435199E+02  0.10570000000E+00 0.  1.
         13    1    1    2    0    0  0.85769186952E+01 -0.88947495506E+01  0.17137095468E+01  0.12475098267E+02  0.10570000000E+00 0. -1.
<mgrwt>
<rscale>  0 0.32948112E+02</rscale>
<asrwt>0</asrwt>
<pdfrwt beam="2">  1        2 0.99653846E-03 0.32948112E+02</pdfrwt>
<pdfrwt beam="1">  1       -2 0.64458513E-02 0.32948112E+02</pdfrwt>
<totfact> 0.11236587E+06</totfact>
</mgrwt>
</event>
<event>
 4    1  0.3704929E-001  0.2456766E+02  0.7818608E-02  0.1667290E+00
         -2   -1    0    0    0  501 -0.00000000000E+00  0.00000000000E+00  0.91877319094E+02  0.91877319130E+02  0.26000000000E-02 0.  1.
          2   -1    0    0  501    0  0.00000000000E+00 -0.00000000000E+00 -0.16423250428E+01  0.16423271008E+01  0.26000000000E-02 0. -1.
        -13    1    1    2    0    0  0.44947205555E+01  0.11314040882E+02  0.51339087705E+02  0.52762895418E+02  0.10570000000E+00 0. -1.
         13    1    1    2    0    0 -0.44947205555E+01 -0.11314040882E+02  0.38895906346E+02  0.40756750814E+02  0.10570000000E+00 0.  1.
<mgrwt>
<rscale>  0 0.24567663E+02</rscale>
<asrwt>0</asrwt>
<pdfrwt beam="2">  1        2 0.25266550E-03 0.24567663E+02</pdfrwt>
<pdfrwt beam="1">  1       -2 0.14134976E-01 0.24567663E+02</pdfrwt>
<totfact> 0.19215540E+06</totfact>
</mgrwt>
</event>
<event>
 4    1  0.3704929E-001  0.2757830E+02  0.7818608E-02  0.1626511E+00
          2   -1    0    0  501    0  0.00000000000E+00  0.00000000000E+00  0.10148510103E+02  0.10148510436E+02  0.26000000000E-02 0.  1.
         -2   -1    0    0    0  501 -0.00000000000E+00 -0.00000000000E+00 -0.18735824343E+02  0.18735824523E+02  0.26000000000E-02 0. -1.
        -13    1    1    2    0    0 -0.10294292024E+02  0.91736518829E+01 -0.42573693003E+01  0.14431379109E+02  0.10570000000E+00 0. -1.
         13    1    1    2    0    0  0.10294292024E+02 -0.91736518829E+01 -0.43299449392E+01  0.14452955850E+02  0.10570000000E+00 0.  1.
<mgrwt>
<rscale>  0 0.27578304E+02</rscale>
<asrwt>0</asrwt>
<pdfrwt beam="1">  1        2 0.15613093E-02 0.27578304E+02</pdfrwt>
<pdfrwt beam="2">  1       -2 0.28824346E-02 0.27578304E+02</pdfrwt>
<totfact> 0.18497799E+06</totfact>
</mgrwt>
</event>
<event>
 4    1  0.3704929E-001  0.2694357E+02  0.7818608E-02  0.1634559E+00
          2   -1    0    0  501    0  0.00000000000E+00  0.00000000000E+00  0.32391195294E+02  0.32391195399E+02  0.26000000000E-02 0. -1.
         -2   -1    0    0    0  501 -0.00000000000E+00 -0.00000000000E+00 -0.56030357670E+01  0.56030363702E+01  0.26000000000E-02 0.  1.
        -13    1    1    2    0    0 -0.11393191822E+02  0.47820680361E+01  0.58258301575E+01  0.13661056479E+02  0.10570000000E+00 0. -1.
         13    1    1    2    0    0  0.11393191822E+02 -0.47820680361E+01  0.20962329370E+02  0.24333175290E+02  0.10570000000E+00 0.  1.
<mgrwt>
<rscale>  0 0.26943574E+02</rscale>
<asrwt>0</asrwt>
<pdfrwt beam="1">  1        2 0.49832610E-02 0.26943574E+02</pdfrwt>
<pdfrwt beam="2">  1       -2 0.86200554E-03 0.26943574E+02</pdfrwt>
<totfact> 0.22040993E+06</totfact>
</mgrwt>
</event>
<event>
 4    1  0.3704929E-001  0.2453976E+02  0.7818608E-02  0.1667702E+00
          2   -1    0    0  501    0  0.00000000000E+00  0.00000000000E+00  0.10006461021E+02  0.10006461359E+02  0.26000000000E-02 0. -1.
         -2   -1    0    0    0  501 -0.00000000000E+00 -0.00000000000E+00 -0.15045278962E+02  0.15045279187E+02  0.26000000000E-02 0.  1.
        -13    1    1    2    0    0 -0.33259617729E+01 -0.11319927098E+02 -0.59565599287E+01  0.13217206585E+02  0.10570000000E+00 0.  1.
         13    1    1    2    0    0  0.33259617729E+01  0.11319927098E+02  0.91774198793E+00  0.11834533961E+02  0.10570000000E+00 0. -1.
<mgrwt>
<rscale>  0 0.24539764E+02</rscale>
<asrwt>0</asrwt>
<pdfrwt beam="1">  1        2 0.15394556E-02 0.24539764E+02</pdfrwt>
<pdfrwt beam="2">  1       -2 0.23146584E-02 0.24539764E+02</pdfrwt>
<totfact> 0.24481435E+06</totfact>
</mgrwt>
</event>
<event>
 4    1  0.3704929E-001  0.3624948E+02  0.7818608E-02  0.1537777E+00
          2   -1    0    0  501    0  0.00000000000E+00  0.00000000000E+00  0.17150649087E+02  0.17150649284E+02  0.26000000000E-02 0.  1.
         -2   -1    0    0    0  501 -0.00000000000E+00 -0.00000000000E+00 -0.19154157374E+02  0.19154157550E+02  0.26000000000E-02 0. -1.
        -13    1    1    2    0    0  0.64162812655E+01  0.91726062494E+01  0.13274463608E+02  0.17364559518E+02  0.10570000000E+00 0.  1.
         13    1    1    2    0    0 -0.64162812655E+01 -0.91726062494E+01 -0.15277971895E+02  0.18940247316E+02  0.10570000000E+00 0. -1.
<mgrwt>
<rscale>  0 0.36249482E+02</rscale>
<asrwt>0</asrwt>
<pdfrwt beam="1">  1        2 0.26385614E-02 0.36249482E+02</pdfrwt>
<pdfrwt beam="2">  1       -2 0.29467935E-02 0.36249482E+02</pdfrwt>
<totfact> 0.99301856E+05</totfact>
</mgrwt>
</event>
<event>
 4    1  0.3704929E-001  0.4657335E+02  0.7818608E-02  0.1464752E+00
          2   -1    0    0  501    0  0.00000000000E+00  0.00000000000E+00  0.19799036178E+03  0.19799036180E+03  0.26000000000E-02 0.  1.
         -2   -1    0    0    0  501 -0.00000000000E+00 -0.00000000000E+00 -0.27388657991E+01  0.27388670332E+01  0.26000000000E-02 0. -1.
        -13    1    1    2    0    0 -0.22061004723E+02  0.40229171089E+01  0.70577124645E+02  0.74054125389E+02  0.10570000000E+00 0. -1.
         13    1    1    2    0    0  0.22061004723E+02 -0.40229171089E+01  0.12467437134E+03  0.12667510345E+03  0.10570000000E+00 0.  1.
<mgrwt>
<rscale>  0 0.46573347E+02</rscale>
<asrwt>0</asrwt>
<pdfrwt beam="1">  1        2 0.30460057E-01 0.46573347E+02</pdfrwt>
<pdfrwt beam="2">  1       -2 0.42136405E-03 0.46573347E+02</pdfrwt>
<totfact> 0.87575033E+05</totfact>
</mgrwt>
</event>
<event>
 4    1  0.3704929E-001  0.4067430E+02  0.7818608E-02  0.1503307E+00
          2   -1    0    0  501    0  0.00000000000E+00  0.00000000000E+00  0.71077166117E+02  0.71077166164E+02  0.26000000000E-02 0.  1.
         -2   -1    0    0    0  501 -0.00000000000E+00 -0.00000000000E+00 -0.58190233555E+01  0.58190239363E+01  0.26000000000E-02 0. -1.
        -13    1    1    2    0    0  0.17878192776E+02  0.92992617031E+01  0.27457673368E+02  0.34059375280E+02  0.10570000000E+00 0.  1.
         13    1    1    2    0    0 -0.17878192776E+02 -0.92992617031E+01  0.37800469393E+02  0.42836814821E+02  0.10570000000E+00 0. -1.
<mgrwt>
<rscale>  0 0.40674302E+02</rscale>
<asrwt>0</asrwt>
<pdfrwt beam="1">  1        2 0.10934949E-01 0.40674302E+02</pdfrwt>
<pdfrwt beam="2">  1       -2 0.89523437E-03 0.40674302E+02</pdfrwt>
<totfact> 0.92657668E+05</totfact>
</mgrwt>
</event>
<event>
 4    1  0.3704929E-001  0.2589518E+02  0.7818608E-02  0.1648467E+00
         -2   -1    0    0    0  501 -0.00000000000E+00  0.00000000000E+00  0.22571141638E+01  0.22571156613E+01  0.26000000000E-02 0. -1.
          2   -1    0    0  501    0  0.00000000000E+00 -0.00000000000E+00 -0.74271856944E+02  0.74271856990E+02  0.26000000000E-02 0.  1.
        -13    1    1    2    0    0  0.10833235312E+02 -0.32596151472E+01 -0.17399341359E+02  0.20754091897E+02  0.10570000000E+00 0. -1.
         13    1    1    2    0    0 -0.10833235312E+02  0.32596151472E+01 -0.54615401421E+02  0.55774880754E+02  0.10570000000E+00 0.  1.
<mgrwt>
<rscale>  0 0.25895183E+02</rscale>
<asrwt>0</asrwt>
<pdfrwt beam="2">  1        2 0.11426438E-01 0.25895183E+02</pdfrwt>
<pdfrwt beam="1">  1       -2 0.34724851E-03 0.25895183E+02</pdfrwt>
<totfact> 0.27601668E+06</totfact>
</mgrwt>
</event>
<event>
 4    1  0.3704929E-001  0.2440071E+02  0.7818608E-02  0.1669762E+00
         -2   -1    0    0    0  501 -0.00000000000E+00  0.00000000000E+00  0.10418087412E+02  0.10418087737E+02  0.26000000000E-02 0. -1.
          2   -1    0    0  501    0  0.00000000000E+00 -0.00000000000E+00 -0.14287520018E+02  0.14287520254E+02  0.26000000000E-02 0.  1.
        -13    1    1    2    0    0  0.51500019316E+01  0.93286678715E+01  0.40801295214E+01  0.11410749036E+02  0.10570000000E+00 0. -1.
         13    1    1    2    0    0 -0.51500019316E+01 -0.93286678715E+01 -0.79495621267E+01  0.13294858956E+02  0.10570000000E+00 0.  1.
<mgrwt>
<rscale>  0 0.24400708E+02</rscale>
<asrwt>0</asrwt>
<pdfrwt beam="2">  1        2 0.21980800E-02 0.24400708E+02</pdfrwt>
<pdfrwt beam="1">  1       -2 0.16027827E-02 0.24400708E+02</pdfrwt>
<totfact> 0.25592262E+06</totfact>
</mgrwt>
</event>
<event>
 4    1  0.3704929E-001  0.2819182E+02  0.7818608E-02  0.1618981E+00
         -2   -1    0    0    0  501 -0.00000000000E+00  0.00000000000E+00  0.85227558280E+01  0.85227562246E+01  0.26000000000E-02 0.  1.
          2   -1    0    0  501    0  0.00000000000E+00 -0.00000000000E+00 -0.23313423935E+02  0.23313424080E+02  0.26000000000E-02 0. -1.
        -13    1    1    2    0    0 -0.54986782087E+01 -0.12135174356E+02 -0.21975571297E+01  0.13503271771E+02  0.10570000000E+00 0. -1.
         13    1    1    2    0    0  0.54986782087E+01  0.12135174356E+02 -0.12593110977E+02  0.18332908533E+02  0.10570000000E+00 0.  1.
<mgrwt>
<rscale>  0 0.28191816E+02</rscale>
<asrwt>0</asrwt>
<pdfrwt beam="2">  1        2 0.35866806E-02 0.28191816E+02</pdfrwt>
<pdfrwt beam="1">  1       -2 0.13111933E-02 0.28191816E+02</pdfrwt>
<totfact> 0.19051696E+06</totfact>
</mgrwt>
</event>
<event>
 4    1  0.3704929E-001  0.2525938E+02  0.7818608E-02  0.1657304E+00
         -2   -1    0    0    0  501 -0.00000000000E+00  0.00000000000E+00  0.30360826109E+01  0.30360837242E+01  0.26000000000E-02 0. -1.
          2   -1    0    0  501    0  0.00000000000E+00 -0.00000000000E+00 -0.52537780068E+02  0.52537780132E+02  0.26000000000E-02 0.  1.
        -13    1    1    2    0    0  0.11211056814E+02  0.35592310557E+01 -0.14634571290E+02  0.18775989187E+02  0.10570000000E+00 0.  1.
         13    1    1    2    0    0 -0.11211056814E+02 -0.35592310557E+01 -0.34867126167E+02  0.36797874670E+02  0.10570000000E+00 0. -1.
<mgrwt>
<rscale>  0 0.25259380E+02</rscale>
<asrwt>0</asrwt>
<pdfrwt beam="2">  1        2 0.80827348E-02 0.25259380E+02</pdfrwt>
<pdfrwt beam="1">  1       -2 0.46708976E-03 0.25259380E+02</pdfrwt>
<totfact> 0.27460127E+06</totfact>
</mgrwt>
</event>
<event>
 4    1  0.3704929E-001  0.2071892E+02  0.7818608E-02  0.1731398E+00
          2   -1    0    0  501    0  0.00000000000E+00  0.00000000000E+00  0.71548180742E+02  0.71548180789E+02  0.26000000000E-02 0.  1.
         -2   -1    0    0    0  501 -0.00000000000E+00 -0.00000000000E+00 -0.14999444193E+01  0.14999466727E+01  0.26000000000E-02 0. -1.
        -13    1    1    2    0    0 -0.87410518774E+01  0.54934155661E+01  0.32025008439E+02  0.33648119420E+02  0.10570000000E+00 0.  1.
         13    1    1    2    0    0  0.87410518774E+01 -0.54934155661E+01  0.38023227884E+02  0.39400008042E+02  0.10570000000E+00 0. -1.
<mgrwt>
<rscale>  0 0.20718917E+02</rscale>
<asrwt>0</asrwt>
<pdfrwt beam="1">  1        2 0.11007414E-01 0.20718917E+02</pdfrwt>
<pdfrwt beam="2">  1       -2 0.23076084E-03 0.20718917E+02</pdfrwt>
<totfact> 0.45501816E+06</totfact>
</mgrwt>
</event>
<event>
 4    1  0.3704929E-001  0.5641756E+02  0.7818608E-02  0.1413512E+00
         -2   -1    0    0    0  501 -0.00000000000E+00  0.00000000000E+00  0.57810187981E+02  0.57810188039E+02  0.26000000000E-02 0. -1.
          2   -1    0    0  501    0  0.00000000000E+00 -0.00000000000E+00 -0.13764617505E+02  0.13764617751E+02  0.26000000000E-02 0.  1.
        -13    1    1    2    0    0  0.21776860510E+02 -0.27421842489E+01 -0.45698580450E+00  0.21953843323E+02  0.10570000000E+00 0.  1.
         13    1    1    2    0    0 -0.21776860510E+02  0.27421842489E+01  0.44502556280E+02  0.49620962467E+02  0.10570000000E+00 0. -1.
<mgrwt>
<rscale>  0 0.56417555E+02</rscale>
<asrwt>0</asrwt>
<pdfrwt beam="2">  1        2 0.21176335E-02 0.56417555E+02</pdfrwt>
<pdfrwt beam="1">  1       -2 0.88938750E-02 0.56417555E+02</pdfrwt>
<totfact> 0.29664294E+05</totfact>
</mgrwt>
</event>
<event>
 4    1  0.3704929E-001  0.5623305E+02  0.7818608E-02  0.1414356E+00
         -2   -1    0    0    0  501 -0.00000000000E+00  0.00000000000E+00  0.18268914390E+02  0.18268914575E+02  0.26000000000E-02 0.  1.
          2   -1    0    0  501    0  0.00000000000E+00 -0.00000000000E+00 -0.43272359044E+02  0.43272359122E+02  0.26000000000E-02 0. -1.
        -13    1    1    2    0    0  0.67823397912E+01  0.26826120809E+02 -0.17961322243E+02  0.32988803554E+02  0.10570000000E+00 0. -1.
         13    1    1    2    0    0 -0.67823397912E+01 -0.26826120809E+02 -0.70421224118E+01  0.28552470143E+02  0.10570000000E+00 0.  1.
<mgrwt>
<rscale>  0 0.56233052E+02</rscale>
<asrwt>0</asrwt>
<pdfrwt beam="2">  1        2 0.66572860E-02 0.56233052E+02</pdfrwt>
<pdfrwt beam="1">  1       -2 0.28106022E-02 0.56233052E+02</pdfrwt>
<totfact> 0.36760927E+05</totfact>
</mgrwt>
</event>
<event>
 4    1  0.3704929E-001  0.3176817E+02  0.7818608E-02  0.1579328E+00
          2   -1    0    0  501    0  0.00000000000E+00  0.00000000000E+00  0.28968579491E+02  0.28968579608E+02  0.26000000000E-02 0.  1.
         -2   -1    0    0    0  501 -0.00000000000E+00 -0.00000000000E+00 -0.87095779704E+01  0.87095783585E+01  0.26000000000E-02 0. -1.
        -13    1    1    2    0    0 -0.15310308595E+02 -0.38509559835E+01  0.12203376305E+02  0.19954171920E+02  0.10570000000E+00 0.  1.
         13    1    1    2    0    0  0.15310308595E+02  0.38509559835E+01  0.80556252156E+01  0.17723986047E+02  0.10570000000E+00 0. -1.
<mgrwt>
<rscale>  0 0.31768167E+02</rscale>
<asrwt>0</asrwt>
<pdfrwt beam="1">  1        2 0.44567047E-02 0.31768167E+02</pdfrwt>
<pdfrwt beam="2">  1       -2 0.13399351E-02 0.31768167E+02</pdfrwt>
<totfact> 0.14654807E+06</totfact>
</mgrwt>
</event>
<event>
 4    1  0.3704929E-001  0.2310244E+02  0.7818608E-02  0.1689855E+00
         -2   -1    0    0    0  501 -0.00000000000E+00  0.00000000000E+00  0.26882685976E+01  0.26882698549E+01  0.26000000000E-02 0. -1.
          2   -1    0    0  501    0  0.00000000000E+00 -0.00000000000E+00 -0.49634425542E+02  0.49634425610E+02  0.26000000000E-02 0.  1.
        -13    1    1    2    0    0  0.14800091529E+01 -0.11355199997E+02 -0.26899265522E+02  0.29235469078E+02  0.10570000000E+00 0. -1.
         13    1    1    2    0    0 -0.14800091529E+01  0.11355199997E+02 -0.20046891423E+02  0.23087226388E+02  0.10570000000E+00 0.  1.
<mgrwt>
<rscale>  0 0.23102442E+02</rscale>
<asrwt>0</asrwt>
<pdfrwt beam="2">  1        2 0.76360649E-02 0.23102442E+02</pdfrwt>
<pdfrwt beam="1">  1       -2 0.41357992E-03 0.23102442E+02</pdfrwt>
<totfact> 0.33418609E+06</totfact>
</mgrwt>
</event>
<event>
 4    1  0.3704929E-001  0.2429061E+02  0.7818608E-02  0.1671405E+00
          2   -1    0    0  501    0  0.00000000000E+00  0.00000000000E+00  0.79989049383E+02  0.79989049425E+02  0.26000000000E-02 0.  1.
         -2   -1    0    0    0  501 -0.00000000000E+00 -0.00000000000E+00 -0.18441074525E+01  0.18441092854E+01  0.26000000000E-02 0. -1.
        -13    1    1    2    0    0  0.55280945467E+01  0.94508658711E+01  0.21367641578E+02  0.24009705832E+02  0.10570000000E+00 0. -1.
         13    1    1    2    0    0 -0.55280945467E+01 -0.94508658711E+01  0.56777300352E+02  0.57823452879E+02  0.10570000000E+00 0.  1.
<mgrwt>
<rscale>  0 0.24290614E+02</rscale>
<asrwt>0</asrwt>
<pdfrwt beam="1">  1        2 0.12306006E-01 0.24290614E+02</pdfrwt>
<pdfrwt beam="2">  1       -2 0.28370902E-03 0.24290614E+02</pdfrwt>
<totfact> 0.32470226E+06</totfact>
</mgrwt>
</event>
<event>
 4    1  0.3704929E-001  0.3913189E+02  0.7818608E-02  0.1514699E+00
         -2   -1    0    0    0  501 -0.00000000000E+00  0.00000000000E+00  0.58236868012E+02  0.58236868070E+02  0.26000000000E-02 0. -1.
          2   -1    0    0  501    0  0.00000000000E+00 -0.00000000000E+00 -0.65736069147E+01  0.65736074289E+01  0.26000000000E-02 0.  1.
        -13    1    1    2    0    0 -0.15318152398E+02 -0.62951266714E+01  0.85768014084E+01  0.18650659709E+02  0.10570000000E+00 0.  1.
         13    1    1    2    0    0  0.15318152398E+02  0.62951266714E+01  0.43086459689E+02  0.46159815789E+02  0.10570000000E+00 0. -1.
<mgrwt>
<rscale>  0 0.39131895E+02</rscale>
<asrwt>0</asrwt>
<pdfrwt beam="2">  1        2 0.10113242E-02 0.39131895E+02</pdfrwt>
<pdfrwt beam="1">  1       -2 0.89595180E-02 0.39131895E+02</pdfrwt>
<totfact> 0.71303653E+05</totfact>
</mgrwt>
</event>
<event>
 4    1  0.3704929E-001  0.3089364E+02  0.7818608E-02  0.1588416E+00
         -2   -1    0    0    0  501 -0.00000000000E+00  0.00000000000E+00  0.18287215102E+01  0.18287233584E+01  0.26000000000E-02 0.  1.
          2   -1    0    0  501    0  0.00000000000E+00 -0.00000000000E+00 -0.13047594331E+03  0.13047594334E+03  0.26000000000E-02 0. -1.
        -13    1    1    2    0    0  0.11723958018E+02 -0.94635195128E+01 -0.49747887580E+02  0.51979542941E+02  0.10570000000E+00 0. -1.
         13    1    1    2    0    0 -0.11723958018E+02  0.94635195128E+01 -0.78899334223E+02  0.80325123757E+02  0.10570000000E+00 0.  1.
<mgrwt>
<rscale>  0 0.30893643E+02</rscale>
<asrwt>0</asrwt>
<pdfrwt beam="2">  1        2 0.20073215E-01 0.30893643E+02</pdfrwt>
<pdfrwt beam="1">  1       -2 0.28134202E-03 0.30893643E+02</pdfrwt>
<totfact> 0.20873191E+06</totfact>
</mgrwt>
</event>
<event>
 4    1  0.3704929E-001  0.3825633E+02  0.7818608E-02  0.1521450E+00
          2   -1    0    0  501    0  0.00000000000E+00  0.00000000000E+00  0.31920135894E+02  0.31920135999E+02  0.26000000000E-02 0.  1.
         -2   -1    0    0    0  501 -0.00000000000E+00 -0.00000000000E+00 -0.11462567533E+02  0.11462567828E+02  0.26000000000E-02 0. -1.
        -13    1    1    2    0    0 -0.62234988168E+01  0.17801859880E+02  0.66004434424E+01  0.19980369837E+02  0.10570000000E+00 0.  1.
         13    1    1    2    0    0  0.62234988168E+01 -0.17801859880E+02  0.13857124918E+02  0.23402333990E+02  0.10570000000E+00 0. -1.
<mgrwt>
<rscale>  0 0.38256331E+02</rscale>
<asrwt>0</asrwt>
<pdfrwt beam="1">  1        2 0.49107902E-02 0.38256331E+02</pdfrwt>
<pdfrwt beam="2">  1       -2 0.17634719E-02 0.38256331E+02</pdfrwt>
<totfact> 0.93934231E+05</totfact>
</mgrwt>
</event>
<event>
 4    1  0.3704929E-001  0.9628282E+02  0.7818608E-02  0.1288313E+00
         -2   -1    0    0    0  501 -0.00000000000E+00  0.00000000000E+00  0.11090388273E+02  0.11090388578E+02  0.26000000000E-02 0.  1.
          2   -1    0    0  501    0  0.00000000000E+00 -0.00000000000E+00 -0.20897334623E+03  0.20897334625E+03  0.26000000000E-02 0. -1.
        -13    1    1    2    0    0  0.14219378684E+02 -0.31389989803E+02 -0.22107940499E+02  0.40942574364E+02  0.10570000000E+00 0.  1.
         13    1    1    2    0    0 -0.14219378684E+02  0.31389989803E+02 -0.17577501746E+03  0.17912116046E+03  0.10570000000E+00 0. -1.
<mgrwt>
<rscale>  0 0.96282825E+02</rscale>
<asrwt>0</asrwt>
<pdfrwt beam="2">  1        2 0.32149743E-01 0.96282825E+02</pdfrwt>
<pdfrwt beam="1">  1       -2 0.17062138E-02 0.96282825E+02</pdfrwt>
<totfact> 0.13566131E+05</totfact>
</mgrwt>
</event>
<event>
 4    1  0.3704929E-001  0.2639421E+02  0.7818608E-02  0.1641748E+00
         -2   -1    0    0    0  501 -0.00000000000E+00  0.00000000000E+00  0.75737340390E+01  0.75737344853E+01  0.26000000000E-02 0.  1.
          2   -1    0    0  501    0  0.00000000000E+00 -0.00000000000E+00 -0.22995741117E+02  0.22995741264E+02  0.26000000000E-02 0. -1.
        -13    1    1    2    0    0 -0.38675462185E-01 -0.13055054579E+02 -0.99437909333E+01  0.16411157682E+02  0.10570000000E+00 0. -1.
         13    1    1    2    0    0  0.38675462185E-01  0.13055054579E+02 -0.54782161445E+01  0.14158318067E+02  0.10570000000E+00 0.  1.
<mgrwt>
<rscale>  0 0.26394214E+02</rscale>
<asrwt>0</asrwt>
<pdfrwt beam="2">  1        2 0.35378063E-02 0.26394214E+02</pdfrwt>
<pdfrwt beam="1">  1       -2 0.11651899E-02 0.26394214E+02</pdfrwt>
<totfact> 0.22249535E+06</totfact>
</mgrwt>
</event>
<event>
 4    1  0.3704929E-001  0.7020515E+02  0.7818608E-02  0.1359397E+00
          2   -1    0    0  501    0  0.00000000000E+00  0.00000000000E+00  0.12140469844E+02  0.12140470122E+02  0.26000000000E-02 0.  1.
         -2   -1    0    0    0  501 -0.00000000000E+00 -0.00000000000E+00 -0.10149449658E+03  0.10149449662E+03  0.26000000000E-02 0. -1.
        -13    1    1    2    0    0 -0.23410322429E+02  0.12611938823E+02 -0.75872653273E+01  0.27652883480E+02  0.10570000000E+00 0.  1.
         13    1    1    2    0    0  0.23410322429E+02 -0.12611938823E+02 -0.81766761412E+02  0.85982083258E+02  0.10570000000E+00 0. -1.
<mgrwt>
<rscale>  0 0.70205153E+02</rscale>
<asrwt>0</asrwt>
<pdfrwt beam="1">  1        2 0.18677647E-02 0.70205153E+02</pdfrwt>
<pdfrwt beam="2">  1       -2 0.15614537E-01 0.70205153E+02</pdfrwt>
<totfact> 0.15229800E+05</totfact>
</mgrwt>
</event>
<event>
 4    1  0.3704929E-001  0.2303586E+02  0.7818608E-02  0.1690930E+00
          2   -1    0    0  501    0  0.00000000000E+00  0.00000000000E+00  0.25955550458E+01  0.25955563480E+01  0.26000000000E-02 0. -1.
         -2   -1    0    0    0  501 -0.00000000000E+00 -0.00000000000E+00 -0.51111484318E+02  0.51111484384E+02  0.26000000000E-02 0.  1.
        -13    1    1    2    0    0  0.37006015184E+00  0.10994982535E+02 -0.32207144842E+02  0.34034364058E+02  0.10570000000E+00 0.  1.
         13    1    1    2    0    0 -0.37006015184E+00 -0.10994982535E+02 -0.16308784430E+02  0.19672676675E+02  0.10570000000E+00 0. -1.
<mgrwt>
<rscale>  0 0.23035860E+02</rscale>
<asrwt>0</asrwt>
<pdfrwt beam="1">  1        2 0.39931631E-03 0.23035860E+02</pdfrwt>
<pdfrwt beam="2">  1       -2 0.78633046E-02 0.23035860E+02</pdfrwt>
<totfact> 0.24724904E+06</totfact>
</mgrwt>
</event>
<event>
 4    1  0.3704929E-001  0.2472219E+02  0.7818608E-02  0.1665025E+00
          2   -1    0    0  501    0  0.00000000000E+00  0.00000000000E+00  0.89367575679E+02  0.89367575717E+02  0.26000000000E-02 0.  1.
         -2   -1    0    0    0  501 -0.00000000000E+00 -0.00000000000E+00 -0.17097539858E+01  0.17097559627E+01  0.26000000000E-02 0. -1.
        -13    1    1    2    0    0 -0.12295147495E+02 -0.10152203718E+01  0.41013183272E+02  0.42828655115E+02  0.10570000000E+00 0. -1.
         13    1    1    2    0    0  0.12295147495E+02  0.10152203718E+01  0.46644638421E+02  0.48248676565E+02  0.10570000000E+00 0.  1.
<mgrwt>
<rscale>  0 0.24722189E+02</rscale>
<asrwt>0</asrwt>
<pdfrwt beam="1">  1        2 0.13748859E-01 0.24722189E+02</pdfrwt>
<pdfrwt beam="2">  1       -2 0.26303921E-03 0.24722189E+02</pdfrwt>
<totfact> 0.31934281E+06</totfact>
</mgrwt>
</event>
<event>
 4    1  0.3704929E-001  0.4647712E+02  0.7818608E-02  0.1465325E+00
         -2   -1    0    0    0  501 -0.00000000000E+00  0.00000000000E+00  0.88460458793E+02  0.88460458831E+02  0.26000000000E-02 0. -1.
          2   -1    0    0  501    0  0.00000000000E+00 -0.00000000000E+00 -0.61047676137E+01  0.61047681673E+01  0.26000000000E-02 0.  1.
        -13    1    1    2    0    0 -0.50573310056E+01 -0.20009436490E+02  0.19447382266E+02  0.28357820703E+02  0.10570000000E+00 0.  1.
         13    1    1    2    0    0  0.50573310056E+01  0.20009436490E+02  0.62908308913E+02  0.66207406295E+02  0.10570000000E+00 0. -1.
<mgrwt>
<rscale>  0 0.46477116E+02</rscale>
<asrwt>0</asrwt>
<pdfrwt beam="2">  1        2 0.93919503E-03 0.46477116E+02</pdfrwt>
<pdfrwt beam="1">  1       -2 0.13609302E-01 0.46477116E+02</pdfrwt>
<totfact> 0.43422639E+05</totfact>
</mgrwt>
</event>
<event>
 4    1  0.3704929E-001  0.4804468E+02  0.7818608E-02  0.1456183E+00
         -2   -1    0    0    0  501 -0.00000000000E+00  0.00000000000E+00  0.10108134669E+02  0.10108135004E+02  0.26000000000E-02 0. -1.
          2   -1    0    0  501    0  0.00000000000E+00 -0.00000000000E+00 -0.57089934939E+02  0.57089934998E+02  0.26000000000E-02 0.  1.
        -13    1    1    2    0    0  0.88564260051E+01  0.16304373063E+02 -0.44830988876E+02  0.48519043670E+02  0.10570000000E+00 0.  1.
         13    1    1    2    0    0 -0.88564260051E+01 -0.16304373063E+02 -0.21508113931E+01  0.18679026332E+02  0.10570000000E+00 0. -1.
<mgrwt>
<rscale>  0 0.48044678E+02</rscale>
<asrwt>0</asrwt>
<pdfrwt beam="2">  1        2 0.87830668E-02 0.48044678E+02</pdfrwt>
<pdfrwt beam="1">  1       -2 0.15550977E-02 0.48044678E+02</pdfrwt>
<totfact> 0.58295993E+05</totfact>
</mgrwt>
</event>
<event>
 4    1  0.3704929E-001  0.2884463E+02  0.7818608E-02  0.1611222E+00
          2   -1    0    0  501    0  0.00000000000E+00  0.00000000000E+00  0.45194747295E+02  0.45194747370E+02  0.26000000000E-02 0.  1.
         -2   -1    0    0    0  501 -0.00000000000E+00 -0.00000000000E+00 -0.46023732411E+01  0.46023739755E+01  0.26000000000E-02 0. -1.
        -13    1    1    2    0    0 -0.14224202311E+02 -0.22940840838E+01  0.19202698051E+02  0.24007197631E+02  0.10570000000E+00 0.  1.
         13    1    1    2    0    0  0.14224202311E+02  0.22940840838E+01  0.21389676003E+02  0.25789923715E+02  0.10570000000E+00 0. -1.
<mgrwt>
<rscale>  0 0.28844626E+02</rscale>
<asrwt>0</asrwt>
<pdfrwt beam="1">  1        2 0.69530383E-02 0.28844626E+02</pdfrwt>
<pdfrwt beam="2">  1       -2 0.70805747E-03 0.28844626E+02</pdfrwt>
<totfact> 0.19645132E+06</totfact>
</mgrwt>
</event>
<event>
 4    1  0.3704929E-001  0.2512358E+02  0.7818608E-02  0.1659233E+00
         -2   -1    0    0    0  501 -0.00000000000E+00  0.00000000000E+00  0.21221445198E+02  0.21221445357E+02  0.26000000000E-02 0. -1.
          2   -1    0    0  501    0  0.00000000000E+00 -0.00000000000E+00 -0.74358043742E+01  0.74358048287E+01  0.26000000000E-02 0.  1.
        -13    1    1    2    0    0  0.12404812090E+02  0.86155570843E+00  0.89223183889E+01  0.15304920096E+02  0.10570000000E+00 0. -1.
         13    1    1    2    0    0 -0.12404812090E+02 -0.86155570843E+00  0.48633224348E+01  0.13352330090E+02  0.10570000000E+00 0.  1.
<mgrwt>
<rscale>  0 0.25123576E+02</rscale>
<asrwt>0</asrwt>
<pdfrwt beam="2">  1        2 0.11439700E-02 0.25123576E+02</pdfrwt>
<pdfrwt beam="1">  1       -2 0.32648378E-02 0.25123576E+02</pdfrwt>
<totfact> 0.22526059E+06</totfact>
</mgrwt>
</event>
<event>
 4    1  0.3704929E-001  0.4469014E+02  0.7818608E-02  0.1476285E+00
         -2   -1    0    0    0  501 -0.00000000000E+00  0.00000000000E+00  0.43324642733E+01  0.43324650535E+01  0.26000000000E-02 0. -1.
          2   -1    0    0  501    0  0.00000000000E+00 -0.00000000000E+00 -0.11524665599E+03  0.11524665602E+03  0.26000000000E-02 0.  1.
        -13    1    1    2    0    0 -0.58985308685E+01 -0.20861314864E+02 -0.40972531518E+02  0.46354575133E+02  0.10570000000E+00 0. -1.
         13    1    1    2    0    0  0.58985308685E+01  0.20861314864E+02 -0.69941660195E+02  0.73224545937E+02  0.10570000000E+00 0.  1.
<mgrwt>
<rscale>  0 0.44690136E+02</rscale>
<asrwt>0</asrwt>
<pdfrwt beam="2">  1        2 0.17730252E-01 0.44690136E+02</pdfrwt>
<pdfrwt beam="1">  1       -2 0.66653312E-03 0.44690136E+02</pdfrwt>
<totfact> 0.82419030E+05</totfact>
</mgrwt>
</event>
<event>
 4    1  0.3704929E-001  0.2506162E+02  0.7818608E-02  0.1660118E+00
          2   -1    0    0  501    0  0.00000000000E+00  0.00000000000E+00  0.39950897373E+02  0.39950897457E+02  0.26000000000E-02 0.  1.
         -2   -1    0    0    0  501 -0.00000000000E+00 -0.00000000000E+00 -0.39303544197E+01  0.39303552797E+01  0.26000000000E-02 0. -1.
        -13    1    1    2    0    0  0.28587308373E+01  0.12199390255E+02  0.18206576926E+02  0.22101766456E+02  0.10570000000E+00 0.  1.
         13    1    1    2    0    0 -0.28587308373E+01 -0.12199390255E+02  0.17813966027E+02  0.21779486282E+02  0.10570000000E+00 0. -1.
<mgrwt>
<rscale>  0 0.25061621E+02</rscale>
<asrwt>0</asrwt>
<pdfrwt beam="1">  1        2 0.61462917E-02 0.25061621E+02</pdfrwt>
<pdfrwt beam="2">  1       -2 0.60467001E-03 0.25061621E+02</pdfrwt>
<totfact> 0.26841071E+06</totfact>
</mgrwt>
</event>
<event>
 4    1  0.3704929E-001  0.1318361E+03  0.7818608E-02  0.1224757E+00
          2   -1    0    0  501    0  0.00000000000E+00  0.00000000000E+00  0.18780398726E+03  0.18780398728E+03  0.26000000000E-02 0.  1.
         -2   -1    0    0    0  501 -0.00000000000E+00 -0.00000000000E+00 -0.23136819907E+02  0.23136820053E+02  0.26000000000E-02 0. -1.
        -13    1    1    2    0    0  0.18468376157E+02 -0.46905913740E+02  0.14376264794E+02  0.52420738487E+02  0.10570000000E+00 0. -1.
         13    1    1    2    0    0 -0.18468376157E+02  0.46905913740E+02  0.15029090256E+03  0.15852006885E+03  0.10570000000E+00 0.  1.
<mgrwt>
<rscale>  0 0.13183607E+03</rscale>
<asrwt>0</asrwt>
<pdfrwt beam="1">  1        2 0.28892922E-01 0.13183607E+03</pdfrwt>
<pdfrwt beam="2">  1       -2 0.35595107E-02 0.13183607E+03</pdfrwt>
<totfact> 0.54588462E+04</totfact>
</mgrwt>
</event>
<event>
 4    1  0.3704929E-001  0.3670790E+02  0.7818608E-02  0.1533937E+00
          2   -1    0    0  501    0  0.00000000000E+00  0.00000000000E+00  0.86837767734E+02  0.86837767773E+02  0.26000000000E-02 0.  1.
         -2   -1    0    0    0  501 -0.00000000000E+00 -0.00000000000E+00 -0.38792725995E+01  0.38792734708E+01  0.26000000000E-02 0. -1.
        -13    1    1    2    0    0  0.12496813529E+02  0.12852577445E+02  0.51207957355E+02  0.54255185598E+02  0.10570000000E+00 0.  1.
         13    1    1    2    0    0 -0.12496813529E+02 -0.12852577445E+02  0.31750537780E+02  0.36461855646E+02  0.10570000000E+00 0. -1.
<mgrwt>
<rscale>  0 0.36707896E+02</rscale>
<asrwt>0</asrwt>
<pdfrwt beam="1">  1        2 0.13359655E-01 0.36707896E+02</pdfrwt>
<pdfrwt beam="2">  1       -2 0.59681130E-03 0.36707896E+02</pdfrwt>
<totfact> 0.12460894E+06</totfact>
</mgrwt>
</event>
<event>
 4    1  0.3704929E-001  0.3430935E+02  0.7818608E-02  0.1554821E+00
          2   -1    0    0  501    0  0.00000000000E+00  0.00000000000E+00  0.63533398259E+01  0.63533403579E+01  0.26000000000E-02 0. -1.
         -2   -1    0    0    0  501 -0.00000000000E+00 -0.00000000000E+00 -0.46319408025E+02  0.46319408098E+02  0.26000000000E-02 0.  1.
        -13    1    1    2    0    0 -0.14712443943E+02  0.41964095211E+00 -0.64556041873E+01  0.16072277474E+02  0.10570000000E+00 0. -1.
         13    1    1    2    0    0  0.14712443943E+02 -0.41964095211E+00 -0.33510464012E+02  0.36600470981E+02  0.10570000000E+00 0.  1.
<mgrwt>
<rscale>  0 0.34309355E+02</rscale>
<asrwt>0</asrwt>
<pdfrwt beam="1">  1        2 0.97743697E-03 0.34309355E+02</pdfrwt>
<pdfrwt beam="2">  1       -2 0.71260626E-02 0.34309355E+02</pdfrwt>
<totfact> 0.10080364E+06</totfact>
</mgrwt>
</event>
<event>
 4    1  0.3704929E-001  0.2298778E+02  0.7818608E-02  0.1691708E+00
         -2   -1    0    0    0  501 -0.00000000000E+00  0.00000000000E+00  0.33942870388E+01  0.33942880346E+01  0.26000000000E-02 0. -1.
          2   -1    0    0  501    0  0.00000000000E+00 -0.00000000000E+00 -0.38921129969E+02  0.38921130056E+02  0.26000000000E-02 0.  1.
        -13    1    1    2    0    0  0.48278405936E+01 -0.10216780966E+02 -0.21628039660E+02  0.24402334522E+02  0.10570000000E+00 0.  1.
         13    1    1    2    0    0 -0.48278405936E+01  0.10216780966E+02 -0.13898803270E+02  0.17913083568E+02  0.10570000000E+00 0. -1.
<mgrwt>
<rscale>  0 0.22987780E+02</rscale>
<asrwt>0</asrwt>
<pdfrwt beam="2">  1        2 0.59878659E-02 0.22987780E+02</pdfrwt>
<pdfrwt beam="1">  1       -2 0.52219812E-03 0.22987780E+02</pdfrwt>
<totfact> 0.32642508E+06</totfact>
</mgrwt>
</event>
<event>
 4    1  0.3704929E-001  0.3518422E+02  0.7818608E-02  0.1546971E+00
         -2   -1    0    0    0  501 -0.00000000000E+00  0.00000000000E+00  0.30115840484E+01  0.30115851707E+01  0.26000000000E-02 0. -1.
          2   -1    0    0  501    0  0.00000000000E+00 -0.00000000000E+00 -0.10276392144E+03  0.10276392147E+03  0.26000000000E-02 0.  1.
        -13    1    1    2    0    0  0.90128251531E+01 -0.14816847817E+02 -0.58744130131E+02  0.61250746883E+02  0.10570000000E+00 0. -1.
         13    1    1    2    0    0 -0.90128251531E+01  0.14816847817E+02 -0.41008207263E+02  0.44524759762E+02  0.10570000000E+00 0.  1.
<mgrwt>
<rscale>  0 0.35184215E+02</rscale>
<asrwt>0</asrwt>
<pdfrwt beam="2">  1        2 0.15809831E-01 0.35184215E+02</pdfrwt>
<pdfrwt beam="1">  1       -2 0.46332079E-03 0.35184215E+02</pdfrwt>
<totfact> 0.14379207E+06</totfact>
</mgrwt>
</event>
<event>
 4    1  0.3704929E-001  0.3232203E+02  0.7818608E-02  0.1573754E+00
          2   -1    0    0  501    0  0.00000000000E+00  0.00000000000E+00  0.16307997198E+02  0.16307997405E+02  0.26000000000E-02 0. -1.
         -2   -1    0    0    0  501 -0.00000000000E+00 -0.00000000000E+00 -0.16015360586E+02  0.16015360797E+02  0.26000000000E-02 0.  1.
        -13    1    1    2    0    0  0.56579223193E+01  0.12578178546E+02  0.85695270007E+01  0.16237937862E+02  0.10570000000E+00 0. -1.
         13    1    1    2    0    0 -0.56579223193E+01 -0.12578178546E+02 -0.82768903885E+01  0.16085420340E+02  0.10570000000E+00 0.  1.
<mgrwt>
<rscale>  0 0.32322033E+02</rscale>
<asrwt>0</asrwt>
<pdfrwt beam="1">  1        2 0.25089227E-02 0.32322033E+02</pdfrwt>
<pdfrwt beam="2">  1       -2 0.24639017E-02 0.32322033E+02</pdfrwt>
<totfact> 0.13147139E+06</totfact>
</mgrwt>
</event>
<event>
 4    1  0.3704929E-001  0.2974620E+02  0.7818608E-02  0.1600911E+00
         -2   -1    0    0    0  501 -0.00000000000E+00  0.00000000000E+00  0.40421147815E+01  0.40421156177E+01  0.26000000000E-02 0. -1.
          2   -1    0    0  501    0  0.00000000000E+00 -0.00000000000E+00 -0.54726082903E+02  0.54726082965E+02  0.26000000000E-02 0.  1.
        -13    1    1    2    0    0 -0.46360008987E+01  0.14016580865E+02 -0.28898665320E+02  0.32451518812E+02  0.10570000000E+00 0. -1.
         13    1    1    2    0    0  0.46360008987E+01 -0.14016580865E+02 -0.21785302802E+02  0.26316679771E+02  0.10570000000E+00 0.  1.
<mgrwt>
<rscale>  0 0.29746202E+02</rscale>
<asrwt>0</asrwt>
<pdfrwt beam="2">  1        2 0.84193969E-02 0.29746202E+02</pdfrwt>
<pdfrwt beam="1">  1       -2 0.62186392E-03 0.29746202E+02</pdfrwt>
<totfact> 0.18837940E+06</totfact>
</mgrwt>
</event>
<event>
 4    1  0.3704929E-001  0.2062435E+02  0.7818608E-02  0.1733190E+00
          2   -1    0    0  501    0  0.00000000000E+00  0.00000000000E+00  0.36590407767E+01  0.36590417004E+01  0.26000000000E-02 0. -1.
         -2   -1    0    0    0  501 -0.00000000000E+00 -0.00000000000E+00 -0.29062523091E+02  0.29062523207E+02  0.26000000000E-02 0.  1.
        -13    1    1    2    0    0 -0.13481112314E+01 -0.10200189482E+02 -0.13787725309E+02  0.17203889416E+02  0.10570000000E+00 0.  1.
         13    1    1    2    0    0  0.13481112314E+01  0.10200189482E+02 -0.11615757005E+02  0.15517675491E+02  0.10570000000E+00 0. -1.
<mgrwt>
<rscale>  0 0.20624352E+02</rscale>
<asrwt>0</asrwt>
<pdfrwt beam="1">  1        2 0.56292945E-03 0.20624352E+02</pdfrwt>
<pdfrwt beam="2">  1       -2 0.44711573E-02 0.20624352E+02</pdfrwt>
<totfact> 0.33828776E+06</totfact>
</mgrwt>
</event>
<event>
 4    1  0.3704929E-001  0.4167062E+02  0.7818608E-02  0.1496265E+00
         -2   -1    0    0    0  501 -0.00000000000E+00  0.00000000000E+00  0.30392667781E+01  0.30392678902E+01  0.26000000000E-02 0.  1.
          2   -1    0    0  501    0  0.00000000000E+00 -0.00000000000E+00 -0.14283383058E+03  0.14283383061E+03  0.26000000000E-02 0. -1.
        -13    1    1    2    0    0  0.15955952214E+01  0.19196196283E+02 -0.42098915445E+02  0.46296541231E+02  0.10570000000E+00 0.  1.
         13    1    1    2    0    0 -0.15955952214E+01 -0.19196196283E+02 -0.97695648359E+02  0.99576557264E+02  0.10570000000E+00 0. -1.
<mgrwt>
<rscale>  0 0.41670623E+02</rscale>
<asrwt>0</asrwt>
<pdfrwt beam="2">  1        2 0.21974430E-01 0.41670623E+02</pdfrwt>
<pdfrwt beam="1">  1       -2 0.46757970E-03 0.41670623E+02</pdfrwt>
<totfact> 0.10411806E+06</totfact>
</mgrwt>
</event>
<event>
 4    1  0.3704929E-001  0.4724225E+02  0.7818608E-02  0.1460810E+00
         -2   -1    0    0    0  501 -0.00000000000E+00  0.00000000000E+00  0.13133099224E+03  0.13133099227E+03  0.26000000000E-02 0.  1.
          2   -1    0    0  501    0  0.00000000000E+00 -0.00000000000E+00 -0.42484838675E+01  0.42484846631E+01  0.26000000000E-02 0. -1.
        -13    1    1    2    0    0 -0.17374011492E+02  0.12390724457E+02  0.34477435465E+02  0.40547392722E+02  0.10570000000E+00 0. -1.
         13    1    1    2    0    0  0.17374011492E+02 -0.12390724457E+02  0.92605072910E+02  0.95032084209E+02  0.10570000000E+00 0.  1.
<mgrwt>
<rscale>  0 0.47242255E+02</rscale>
<asrwt>0</asrwt>
<pdfrwt beam="2">  1        2 0.65361298E-03 0.47242255E+02</pdfrwt>
<pdfrwt beam="1">  1       -2 0.20204768E-01 0.47242255E+02</pdfrwt>
<totfact> 0.37594758E+05</totfact>
</mgrwt>
</event>
<event>
 4    1  0.3704929E-001  0.2879440E+02  0.7818608E-02  0.1611810E+00
         -2   -1    0    0    0  501 -0.00000000000E+00  0.00000000000E+00  0.21480388110E+02  0.21480388267E+02  0.26000000000E-02 0. -1.
          2   -1    0    0  501    0  0.00000000000E+00 -0.00000000000E+00 -0.96497004294E+01  0.96497007797E+01  0.26000000000E-02 0.  1.
        -13    1    1    2    0    0 -0.66689506992E+01  0.12165386594E+02  0.17566828834E+01  0.13984585859E+02  0.10570000000E+00 0.  1.
         13    1    1    2    0    0  0.66689506992E+01 -0.12165386594E+02  0.10074004797E+02  0.17145503188E+02  0.10570000000E+00 0. -1.
<mgrwt>
<rscale>  0 0.28794397E+02</rscale>
<asrwt>0</asrwt>
<pdfrwt beam="2">  1        2 0.14845693E-02 0.28794397E+02</pdfrwt>
<pdfrwt beam="1">  1       -2 0.33046751E-02 0.28794397E+02</pdfrwt>
<totfact> 0.16558392E+06</totfact>
</mgrwt>
</event>
<event>
 4    1  0.3704929E-001  0.4628860E+02  0.7818608E-02  0.1466454E+00
         -2   -1    0    0    0  501 -0.00000000000E+00  0.00000000000E+00  0.73524148549E+01  0.73524153146E+01  0.26000000000E-02 0. -1.
          2   -1    0    0  501    0  0.00000000000E+00 -0.00000000000E+00 -0.72854773622E+02  0.72854773668E+02  0.26000000000E-02 0.  1.
        -13    1    1    2    0    0  0.52427970091E+01  0.22310032704E+02 -0.27157039564E+02  0.35535059450E+02  0.10570000000E+00 0.  1.
         13    1    1    2    0    0 -0.52427970091E+01 -0.22310032704E+02 -0.38345319203E+02  0.44672129533E+02  0.10570000000E+00 0. -1.
<mgrwt>
<rscale>  0 0.46288596E+02</rscale>
<asrwt>0</asrwt>
<pdfrwt beam="2">  1        2 0.11208426E-01 0.46288596E+02</pdfrwt>
<pdfrwt beam="1">  1       -2 0.11311408E-02 0.46288596E+02</pdfrwt>
<totfact> 0.67424785E+05</totfact>
</mgrwt>
</event>
<event>
 4    1  0.3704929E-001  0.2647882E+02  0.7818608E-02  0.1640627E+00
         -2   -1    0    0    0  501 -0.00000000000E+00  0.00000000000E+00  0.19216143928E+01  0.19216161517E+01  0.26000000000E-02 0. -1.
          2   -1    0    0  501    0  0.00000000000E+00 -0.00000000000E+00 -0.91215942493E+02  0.91215942530E+02  0.26000000000E-02 0.  1.
        -13    1    1    2    0    0  0.12337748611E+02 -0.47583850416E+01 -0.46895326297E+02  0.48724173364E+02  0.10570000000E+00 0.  1.
         13    1    1    2    0    0 -0.12337748611E+02  0.47583850416E+01 -0.42399001803E+02  0.44413385317E+02  0.10570000000E+00 0. -1.
<mgrwt>
<rscale>  0 0.26478818E+02</rscale>
<asrwt>0</asrwt>
<pdfrwt beam="2">  1        2 0.14033219E-01 0.26478818E+02</pdfrwt>
<pdfrwt beam="1">  1       -2 0.29563319E-03 0.26478818E+02</pdfrwt>
<totfact> 0.27384835E+06</totfact>
</mgrwt>
</event>
<event>
 4    1  0.3704929E-001  0.3668369E+02  0.7818608E-02  0.1534138E+00
          2   -1    0    0  501    0  0.00000000000E+00  0.00000000000E+00  0.56127885998E+02  0.56127886058E+02  0.26000000000E-02 0.  1.
         -2   -1    0    0    0  501 -0.00000000000E+00 -0.00000000000E+00 -0.59938707521E+01  0.59938713160E+01  0.26000000000E-02 0. -1.
        -13    1    1    2    0    0  0.12217191274E+02 -0.79866665890E+01  0.62579247854E+01  0.15881416843E+02  0.10570000000E+00 0. -1.
         13    1    1    2    0    0 -0.12217191274E+02  0.79866665890E+01  0.43876090461E+02  0.46240340531E+02  0.10570000000E+00 0.  1.
<mgrwt>
<rscale>  0 0.36683692E+02</rscale>
<asrwt>0</asrwt>
<pdfrwt beam="1">  1        2 0.86350593E-02 0.36683692E+02</pdfrwt>
<pdfrwt beam="2">  1       -2 0.92213402E-03 0.36683692E+02</pdfrwt>
<totfact> 0.11407635E+06</totfact>
</mgrwt>
</event>
<event>
 4    1  0.3704929E-001  0.2232918E+02  0.7818608E-02  0.1702620E+00
         -2   -1    0    0    0  501 -0.00000000000E+00  0.00000000000E+00  0.10155484054E+03  0.10155484057E+03  0.26000000000E-02 0.  1.
          2   -1    0    0  501    0  0.00000000000E+00 -0.00000000000E+00 -0.12273948396E+01  0.12273975934E+01  0.26000000000E-02 0. -1.
        -13    1    1    2    0    0 -0.86439926465E+01 -0.63423877326E+01  0.35833257670E+02  0.37402914576E+02  0.10570000000E+00 0. -1.
         13    1    1    2    0    0  0.86439926465E+01  0.63423877326E+01  0.64494188029E+02  0.65379323590E+02  0.10570000000E+00 0.  1.
<mgrwt>
<rscale>  0 0.22329176E+02</rscale>
<asrwt>0</asrwt>
<pdfrwt beam="2">  1        2 0.18883018E-03 0.22329176E+02</pdfrwt>
<pdfrwt beam="1">  1       -2 0.15623823E-01 0.22329176E+02</pdfrwt>
<totfact> 0.23239233E+06</totfact>
</mgrwt>
</event>
<event>
 4    1  0.3704929E-001  0.9652496E+02  0.7818608E-02  0.1287778E+00
          2   -1    0    0  501    0  0.00000000000E+00  0.00000000000E+00  0.19420132136E+02  0.19420132310E+02  0.26000000000E-02 0. -1.
         -2   -1    0    0    0  501 -0.00000000000E+00 -0.00000000000E+00 -0.11994085125E+03  0.11994085128E+03  0.26000000000E-02 0.  1.
        -13    1    1    2    0    0  0.47262851899E+02  0.96641481798E+01 -0.52344158155E+02  0.71183530364E+02  0.10570000000E+00 0.  1.
         13    1    1    2    0    0 -0.47262851899E+02 -0.96641481798E+01 -0.48176560959E+02  0.68177453223E+02  0.10570000000E+00 0. -1.
<mgrwt>
<rscale>  0 0.96524965E+02</rscale>
<asrwt>0</asrwt>
<pdfrwt beam="1">  1        2 0.29877127E-02 0.96524965E+02</pdfrwt>
<pdfrwt beam="2">  1       -2 0.18452438E-01 0.96524965E+02</pdfrwt>
<totfact> 0.65369962E+04</totfact>
</mgrwt>
</event>
<event>
 4    1  0.3704929E-001  0.8603207E+02  0.7818608E-02  0.1312755E+00
         -2   -1    0    0    0  501 -0.00000000000E+00  0.00000000000E+00  0.10587304534E+02  0.10587304853E+02  0.26000000000E-02 0.  1.
          2   -1    0    0  501    0  0.00000000000E+00 -0.00000000000E+00 -0.17477340842E+03  0.17477340844E+03  0.26000000000E-02 0. -1.
        -13    1    1    2    0    0 -0.27988988818E+02 -0.59659746130E+01 -0.15128716571E+03  0.15397010758E+03  0.10570000000E+00 0. -1.
         13    1    1    2    0    0  0.27988988818E+02  0.59659746130E+01 -0.12898938175E+02  0.31390605707E+02  0.10570000000E+00 0.  1.
<mgrwt>
<rscale>  0 0.86032071E+02</rscale>
<asrwt>0</asrwt>
<pdfrwt beam="2">  1        2 0.26888215E-01 0.86032071E+02</pdfrwt>
<pdfrwt beam="1">  1       -2 0.16288162E-02 0.86032071E+02</pdfrwt>
<totfact> 0.17233395E+05</totfact>
</mgrwt>
</event>
<event>
 4    1  0.3704929E-001  0.3476107E+02  0.7818608E-02  0.1550733E+00
         -2   -1    0    0    0  501 -0.00000000000E+00  0.00000000000E+00  0.15587397231E+02  0.15587397448E+02  0.26000000000E-02 0.  1.
          2   -1    0    0  501    0  0.00000000000E+00 -0.00000000000E+00 -0.19379954790E+02  0.19379954965E+02  0.26000000000E-02 0. -1.
        -13    1    1    2    0    0 -0.31914957677E+01  0.11129404561E+02 -0.14935552883E+02  0.18897915322E+02  0.10570000000E+00 0. -1.
         13    1    1    2    0    0  0.31914957677E+01 -0.11129404561E+02  0.11142995324E+02  0.16069437090E+02  0.10570000000E+00 0.  1.
<mgrwt>
<rscale>  0 0.34761074E+02</rscale>
<asrwt>0</asrwt>
<pdfrwt beam="2">  1        2 0.29815315E-02 0.34761074E+02</pdfrwt>
<pdfrwt beam="1">  1       -2 0.23980612E-02 0.34761074E+02</pdfrwt>
<totfact> 0.11191667E+06</totfact>
</mgrwt>
</event>
<event>
 4    1  0.3704929E-001  0.2171901E+02  0.7818608E-02  0.1713157E+00
          2   -1    0    0  501    0  0.00000000000E+00  0.00000000000E+00  0.54712981077E+02  0.54712981139E+02  0.26000000000E-02 0.  1.
         -2   -1    0    0    0  501 -0.00000000000E+00 -0.00000000000E+00 -0.21554090756E+01  0.21554106438E+01  0.26000000000E-02 0. -1.
        -13    1    1    2    0    0 -0.41362300463E+01 -0.93837799130E+01  0.35629701249E+02  0.37076279587E+02  0.10570000000E+00 0.  1.
         13    1    1    2    0    0  0.41362300463E+01  0.93837799130E+01  0.16927870752E+02  0.19792112195E+02  0.10570000000E+00 0. -1.
<mgrwt>
<rscale>  0 0.21719015E+02</rscale>
<asrwt>0</asrwt>
<pdfrwt beam="1">  1        2 0.84173817E-02 0.21719015E+02</pdfrwt>
<pdfrwt beam="2">  1       -2 0.33160153E-03 0.21719015E+02</pdfrwt>
<totfact> 0.39048641E+06</totfact>
</mgrwt>
</event>
<event>
 4    1  0.3704929E-001  0.2570197E+02  0.7818608E-02  0.1651119E+00
          2   -1    0    0  501    0  0.00000000000E+00  0.00000000000E+00  0.32303189719E+02  0.32303189823E+02  0.26000000000E-02 0.  1.
         -2   -1    0    0    0  501 -0.00000000000E+00 -0.00000000000E+00 -0.51124298409E+01  0.51124305020E+01  0.26000000000E-02 0. -1.
        -13    1    1    2    0    0  0.83661143491E+01 -0.68977248052E+01  0.23635423089E+02  0.26004131861E+02  0.10570000000E+00 0.  1.
         13    1    1    2    0    0 -0.83661143491E+01  0.68977248052E+01  0.35553367890E+01  0.11411488464E+02  0.10570000000E+00 0. -1.
<mgrwt>
<rscale>  0 0.25701969E+02</rscale>
<asrwt>0</asrwt>
<pdfrwt beam="1">  1        2 0.49697216E-02 0.25701969E+02</pdfrwt>
<pdfrwt beam="2">  1       -2 0.78652771E-03 0.25701969E+02</pdfrwt>
<totfact> 0.24616793E+06</totfact>
</mgrwt>
</event>
<event>
 4    1  0.3704929E-001  0.8015190E+02  0.7818608E-02  0.1328621E+00
         -2   -1    0    0    0  501 -0.00000000000E+00  0.00000000000E+00  0.26783892204E+02  0.26783892330E+02  0.26000000000E-02 0. -1.
          2   -1    0    0  501    0  0.00000000000E+00 -0.00000000000E+00 -0.59964464253E+02  0.59964464309E+02  0.26000000000E-02 0.  1.
        -13    1    1    2    0    0  0.22657581265E+02  0.26745438663E+02 -0.37615498275E+02  0.51416158559E+02  0.10570000000E+00 0.  1.
         13    1    1    2    0    0 -0.22657581265E+02 -0.26745438663E+02  0.44349262262E+01  0.35332198080E+02  0.10570000000E+00 0. -1.
<mgrwt>
<rscale>  0 0.80151900E+02</rscale>
<asrwt>0</asrwt>
<pdfrwt beam="2">  1        2 0.92253021E-02 0.80151900E+02</pdfrwt>
<pdfrwt beam="1">  1       -2 0.41205988E-02 0.80151900E+02</pdfrwt>
<totfact> 0.15189242E+05</totfact>
</mgrwt>
</event>
<event>
 4    1  0.3704929E-001  0.2953728E+02  0.7818608E-02  0.1603260E+00
         -2   -1    0    0    0  501 -0.00000000000E+00  0.00000000000E+00  0.62461887706E+01  0.62461893117E+01  0.26000000000E-02 0.  1.
          2   -1    0    0  501    0  0.00000000000E+00 -0.00000000000E+00 -0.34919327265E+02  0.34919327362E+02  0.26000000000E-02 0. -1.
        -13    1    1    2    0    0 -0.96413581293E+01  0.10631596113E+02 -0.94856561589E+01  0.17203937565E+02  0.10570000000E+00 0.  1.
         13    1    1    2    0    0  0.96413581293E+01 -0.10631596113E+02 -0.19187482335E+02  0.23961579108E+02  0.10570000000E+00 0. -1.
<mgrwt>
<rscale>  0 0.29537280E+02</rscale>
<asrwt>0</asrwt>
<pdfrwt beam="2">  1        2 0.53722041E-02 0.29537280E+02</pdfrwt>
<pdfrwt beam="1">  1       -2 0.96095219E-03 0.29537280E+02</pdfrwt>
<totfact> 0.17894528E+06</totfact>
</mgrwt>
</event>
<event>
 4    1  0.3704929E-001  0.4042823E+02  0.7818608E-02  0.1505084E+00
         -2   -1    0    0    0  501 -0.00000000000E+00  0.00000000000E+00  0.37938154991E+01  0.37938163900E+01  0.26000000000E-02 0.  1.
          2   -1    0    0  501    0  0.00000000000E+00 -0.00000000000E+00 -0.10770432219E+03  0.10770432222E+03  0.26000000000E-02 0. -1.
        -13    1    1    2    0    0  0.22409855029E+01  0.19723901226E+02 -0.62473381230E+02  0.65551421269E+02  0.10570000000E+00 0.  1.
         13    1    1    2    0    0 -0.22409855029E+01 -0.19723901226E+02 -0.41437125460E+02  0.45946717342E+02  0.10570000000E+00 0. -1.
<mgrwt>
<rscale>  0 0.40428227E+02</rscale>
<asrwt>0</asrwt>
<pdfrwt beam="2">  1        2 0.16569893E-01 0.40428227E+02</pdfrwt>
<pdfrwt beam="1">  1       -2 0.58366407E-03 0.40428227E+02</pdfrwt>
<totfact> 0.10372892E+06</totfact>
</mgrwt>
</event>
<event>
 4    1  0.3704929E-001  0.2110254E+02  0.7818608E-02  0.1724252E+00
         -2   -1    0    0    0  501 -0.00000000000E+00  0.00000000000E+00  0.88527530830E+01  0.88527534648E+01  0.26000000000E-02 0.  1.
          2   -1    0    0  501    0  0.00000000000E+00 -0.00000000000E+00 -0.12575671493E+02  0.12575671762E+02  0.26000000000E-02 0. -1.
        -13    1    1    2    0    0 -0.70938912024E+01  0.77539883524E+01 -0.28088849460E+01  0.10878815877E+02  0.10570000000E+00 0.  1.
         13    1    1    2    0    0  0.70938912024E+01 -0.77539883524E+01 -0.91403346391E+00  0.10549609349E+02  0.10570000000E+00 0. -1.
<mgrwt>
<rscale>  0 0.21102542E+02</rscale>
<asrwt>0</asrwt>
<pdfrwt beam="2">  1        2 0.19347187E-02 0.21102542E+02</pdfrwt>
<pdfrwt beam="1">  1       -2 0.13619621E-02 0.21102542E+02</pdfrwt>
<totfact> 0.35502591E+06</totfact>
</mgrwt>
</event>
<event>
 4    1  0.3704929E-001  0.6074211E+02  0.7818608E-02  0.1394744E+00
          2   -1    0    0  501    0  0.00000000000E+00  0.00000000000E+00  0.27170558557E+02  0.27170558682E+02  0.26000000000E-02 0.  1.
         -2   -1    0    0    0  501 -0.00000000000E+00 -0.00000000000E+00 -0.33948542261E+02  0.33948542361E+02  0.26000000000E-02 0. -1.
        -13    1    1    2    0    0 -0.27132649284E+02  0.42725091092E+00  0.10334812155E+02  0.29037608635E+02  0.10570000000E+00 0.  1.
         13    1    1    2    0    0  0.27132649284E+02 -0.42725091092E+00 -0.17112795859E+02  0.32081492408E+02  0.10570000000E+00 0. -1.
<mgrwt>
<rscale>  0 0.60742106E+02</rscale>
<asrwt>0</asrwt>
<pdfrwt beam="1">  1        2 0.41800860E-02 0.60742106E+02</pdfrwt>
<pdfrwt beam="2">  1       -2 0.52228527E-02 0.60742106E+02</pdfrwt>
<totfact> 0.27443088E+05</totfact>
</mgrwt>
</event>
<event>
 4    1  0.3704929E-001  0.2166549E+02  0.7818608E-02  0.1714102E+00
         -2   -1    0    0    0  501 -0.00000000000E+00  0.00000000000E+00  0.98370679640E+01  0.98370683076E+01  0.26000000000E-02 0.  1.
          2   -1    0    0  501    0  0.00000000000E+00 -0.00000000000E+00 -0.11929200019E+02  0.11929200302E+02  0.26000000000E-02 0. -1.
        -13    1    1    2    0    0 -0.84275498674E+00  0.10565634594E+02 -0.32912578880E+01  0.11098937847E+02  0.10570000000E+00 0. -1.
         13    1    1    2    0    0  0.84275498674E+00 -0.10565634594E+02  0.11991258334E+01  0.10667330763E+02  0.10570000000E+00 0.  1.
<mgrwt>
<rscale>  0 0.21665489E+02</rscale>
<asrwt>0</asrwt>
<pdfrwt beam="2">  1        2 0.18352616E-02 0.21665489E+02</pdfrwt>
<pdfrwt beam="1">  1       -2 0.15133951E-02 0.21665489E+02</pdfrwt>
<totfact> 0.33272033E+06</totfact>
</mgrwt>
</event>
<event>
 4    1  0.3704929E-001  0.2402728E+02  0.7818608E-02  0.1675380E+00
         -2   -1    0    0    0  501 -0.00000000000E+00  0.00000000000E+00  0.21936296889E+02  0.21936297043E+02  0.26000000000E-02 0. -1.
          2   -1    0    0  501    0  0.00000000000E+00 -0.00000000000E+00 -0.65793921061E+01  0.65793926199E+01  0.26000000000E-02 0.  1.
        -13    1    1    2    0    0  0.11454484753E+02  0.60033389360E+00  0.11916312117E+02  0.16540111508E+02  0.10570000000E+00 0. -1.
         13    1    1    2    0    0 -0.11454484753E+02 -0.60033389360E+00  0.34405926660E+01  0.11975578155E+02  0.10570000000E+00 0.  1.
<mgrwt>
<rscale>  0 0.24027277E+02</rscale>
<asrwt>0</asrwt>
<pdfrwt beam="2">  1        2 0.10122142E-02 0.24027277E+02</pdfrwt>
<pdfrwt beam="1">  1       -2 0.33748150E-02 0.24027277E+02</pdfrwt>
<totfact> 0.24805127E+06</totfact>
</mgrwt>
</event>
<event>
 4    1  0.3704929E-001  0.4602970E+02  0.7818608E-02  0.1468014E+00
          2   -1    0    0  501    0  0.00000000000E+00  0.00000000000E+00  0.94909740681E+01  0.94909744242E+01  0.26000000000E-02 0.  1.
         -2   -1    0    0    0  501 -0.00000000000E+00 -0.00000000000E+00 -0.55809165617E+02  0.55809165678E+02  0.26000000000E-02 0. -1.
        -13    1    1    2    0    0 -0.14486342112E+01  0.20893981899E+02 -0.36693303310E+02  0.42250049716E+02  0.10570000000E+00 0. -1.
         13    1    1    2    0    0  0.14486342112E+01 -0.20893981899E+02 -0.96248882386E+01  0.23050090386E+02  0.10570000000E+00 0.  1.
<mgrwt>
<rscale>  0 0.46029702E+02</rscale>
<asrwt>0</asrwt>
<pdfrwt beam="1">  1        2 0.14601499E-02 0.46029702E+02</pdfrwt>
<pdfrwt beam="2">  1       -2 0.85860253E-02 0.46029702E+02</pdfrwt>
<totfact> 0.48768722E+05</totfact>
</mgrwt>
</event>
<event>
 4    1  0.3704929E-001  0.2545318E+02  0.7818608E-02  0.1654577E+00
         -2   -1    0    0    0  501 -0.00000000000E+00  0.00000000000E+00  0.16624079100E+02  0.16624079303E+02  0.26000000000E-02 0. -1.
          2   -1    0    0  501    0  0.00000000000E+00 -0.00000000000E+00 -0.97428633883E+01  0.97428637352E+01  0.26000000000E-02 0.  1.
        -13    1    1    2    0    0 -0.92434239945E+01  0.69161547730E+01  0.89883200833E+01  0.14631307337E+02  0.10570000000E+00 0. -1.
         13    1    1    2    0    0  0.92434239945E+01 -0.69161547730E+01 -0.21071043718E+01  0.11735635701E+02  0.10570000000E+00 0.  1.
<mgrwt>
<rscale>  0 0.25453184E+02</rscale>
<asrwt>0</asrwt>
<pdfrwt beam="2">  1        2 0.14989021E-02 0.25453184E+02</pdfrwt>
<pdfrwt beam="1">  1       -2 0.25575506E-02 0.25453184E+02</pdfrwt>
<totfact> 0.22376510E+06</totfact>
</mgrwt>
</event>
<event>
 4    1  0.3704929E-001  0.3607735E+02  0.7818608E-02  0.1539236E+00
         -2   -1    0    0    0  501 -0.00000000000E+00  0.00000000000E+00  0.33388153003E+02  0.33388153104E+02  0.26000000000E-02 0. -1.
          2   -1    0    0  501    0  0.00000000000E+00 -0.00000000000E+00 -0.97457840040E+01  0.97457843508E+01  0.26000000000E-02 0.  1.
        -13    1    1    2    0    0 -0.17212991761E+01  0.14422963269E+02  0.24608912678E+02  0.28576117581E+02  0.10570000000E+00 0. -1.
         13    1    1    2    0    0  0.17212991761E+01 -0.14422963269E+02 -0.96654367977E+00  0.14557819874E+02  0.10570000000E+00 0.  1.
<mgrwt>
<rscale>  0 0.36077347E+02</rscale>
<asrwt>0</asrwt>
<pdfrwt beam="2">  1        2 0.14993514E-02 0.36077347E+02</pdfrwt>
<pdfrwt beam="1">  1       -2 0.51366389E-02 0.36077347E+02</pdfrwt>
<totfact> 0.93787262E+05</totfact>
</mgrwt>
</event>
<event>
 4    1  0.3704929E-001  0.2692438E+02  0.7818608E-02  0.1634807E+00
          2   -1    0    0  501    0  0.00000000000E+00  0.00000000000E+00  0.13092865943E+03  0.13092865946E+03  0.26000000000E-02 0. -1.
         -2   -1    0    0    0  501 -0.00000000000E+00 -0.00000000000E+00 -0.13841919040E+01  0.13841943458E+01  0.26000000000E-02 0.  1.
        -13    1    1    2    0    0  0.13289822855E+02 -0.17200928379E+01  0.71067967931E+02  0.72320435212E+02  0.10570000000E+00 0. -1.
         13    1    1    2    0    0 -0.13289822855E+02  0.17200928379E+01  0.58476499599E+02  0.59992418594E+02  0.10570000000E+00 0.  1.
<mgrwt>
<rscale>  0 0.26924380E+02</rscale>
<asrwt>0</asrwt>
<pdfrwt beam="1">  1        2 0.20142870E-01 0.26924380E+02</pdfrwt>
<pdfrwt beam="2">  1       -2 0.21295280E-03 0.26924380E+02</pdfrwt>
<totfact> 0.28807655E+06</totfact>
</mgrwt>
</event>
<event>
 4    1  0.3704929E-001  0.2522681E+02  0.7818608E-02  0.1657765E+00
         -2   -1    0    0    0  501 -0.00000000000E+00  0.00000000000E+00  0.79474717117E+02  0.79474717159E+02  0.26000000000E-02 0. -1.
          2   -1    0    0  501    0  0.00000000000E+00 -0.00000000000E+00 -0.20018680099E+01  0.20018696983E+01  0.26000000000E-02 0.  1.
        -13    1    1    2    0    0 -0.43415035067E+01  0.11056982606E+02  0.52432014968E+02  0.53760886183E+02  0.10570000000E+00 0. -1.
         13    1    1    2    0    0  0.43415035067E+01 -0.11056982606E+02  0.25040834138E+02  0.27715700674E+02  0.10570000000E+00 0.  1.
<mgrwt>
<rscale>  0 0.25226808E+02</rscale>
<asrwt>0</asrwt>
<pdfrwt beam="2">  1        2 0.30797981E-03 0.25226808E+02</pdfrwt>
<pdfrwt beam="1">  1       -2 0.12226880E-01 0.25226808E+02</pdfrwt>
<totfact> 0.18672201E+06</totfact>
</mgrwt>
</event>
<event>
 4    1  0.3704929E-001  0.2956421E+02  0.7818608E-02  0.1602956E+00
          2   -1    0    0  501    0  0.00000000000E+00  0.00000000000E+00  0.10920250262E+02  0.10920250571E+02  0.26000000000E-02 0.  1.
         -2   -1    0    0    0  501 -0.00000000000E+00 -0.00000000000E+00 -0.20009675077E+02  0.20009675246E+02  0.26000000000E-02 0. -1.
        -13    1    1    2    0    0 -0.33089243516E+01  0.11193538473E+02  0.49437156814E+01  0.12676583970E+02  0.10570000000E+00 0.  1.
         13    1    1    2    0    0  0.33089243516E+01 -0.11193538473E+02 -0.14033140496E+02  0.18253341847E+02  0.10570000000E+00 0. -1.
<mgrwt>
<rscale>  0 0.29564213E+02</rscale>
<asrwt>0</asrwt>
<pdfrwt beam="1">  1        2 0.16800385E-02 0.29564213E+02</pdfrwt>
<pdfrwt beam="2">  1       -2 0.30784116E-02 0.29564213E+02</pdfrwt>
<totfact> 0.15713253E+06</totfact>
</mgrwt>
</event>
<event>
 4    1  0.3704929E-001  0.3273454E+02  0.7818608E-02  0.1569691E+00
          2   -1    0    0  501    0  0.00000000000E+00  0.00000000000E+00  0.65884123192E+02  0.65884123243E+02  0.26000000000E-02 0. -1.
         -2   -1    0    0    0  501 -0.00000000000E+00 -0.00000000000E+00 -0.40660413467E+01  0.40660421780E+01  0.26000000000E-02 0.  1.
        -13    1    1    2    0    0  0.38885826573E+01 -0.13673268678E+02  0.13575561807E+02  0.19656713924E+02  0.10570000000E+00 0.  1.
         13    1    1    2    0    0 -0.38885826573E+01  0.13673268678E+02  0.48242520038E+02  0.50293451497E+02  0.10570000000E+00 0. -1.
<mgrwt>
<rscale>  0 0.32734544E+02</rscale>
<asrwt>0</asrwt>
<pdfrwt beam="1">  1        2 0.10136019E-01 0.32734544E+02</pdfrwt>
<pdfrwt beam="2">  1       -2 0.62554491E-03 0.32734544E+02</pdfrwt>
<totfact> 0.15502452E+06</totfact>
</mgrwt>
</event>
<event>
 4    1  0.3704929E-001  0.2289111E+02  0.7818608E-02  0.1693281E+00
         -2   -1    0    0    0  501 -0.00000000000E+00  0.00000000000E+00  0.13051971755E+01  0.13051997651E+01  0.26000000000E-02 0. -1.
          2   -1    0    0  501    0  0.00000000000E+00 -0.00000000000E+00 -0.10036841308E+03  0.10036841312E+03  0.26000000000E-02 0.  1.
        -13    1    1    2    0    0  0.11882911591E+01 -0.11369027038E+02 -0.47008398204E+02  0.48378378288E+02  0.10570000000E+00 0. -1.
         13    1    1    2    0    0 -0.11882911591E+01  0.11369027038E+02 -0.52054817703E+02  0.53295234592E+02  0.10570000000E+00 0.  1.
<mgrwt>
<rscale>  0 0.22891108E+02</rscale>
<asrwt>0</asrwt>
<pdfrwt beam="2">  1        2 0.15441289E-01 0.22891108E+02</pdfrwt>
<pdfrwt beam="1">  1       -2 0.20079985E-03 0.22891108E+02</pdfrwt>
<totfact> 0.39058370E+06</totfact>
</mgrwt>
</event>
<event>
 4    1  0.3704929E-001  0.4836964E+02  0.7818608E-02  0.1454339E+00
          2   -1    0    0  501    0  0.00000000000E+00  0.00000000000E+00  0.43340289787E+02  0.43340289865E+02  0.26000000000E-02 0. -1.
         -2   -1    0    0    0  501 -0.00000000000E+00 -0.00000000000E+00 -0.13495650563E+02  0.13495650813E+02  0.26000000000E-02 0.  1.
        -13    1    1    2    0    0  0.15678450249E+02  0.10694833421E+02  0.32536105698E+02  0.37666996305E+02  0.10570000000E+00 0. -1.
         13    1    1    2    0    0 -0.15678450249E+02 -0.10694833421E+02 -0.26914664742E+01  0.19168944374E+02  0.10570000000E+00 0.  1.
<mgrwt>
<rscale>  0 0.48369636E+02</rscale>
<asrwt>0</asrwt>
<pdfrwt beam="1">  1        2 0.66677370E-02 0.48369636E+02</pdfrwt>
<pdfrwt beam="2">  1       -2 0.20762539E-02 0.48369636E+02</pdfrwt>
<totfact> 0.54417061E+05</totfact>
</mgrwt>
</event>
<event>
 4    1  0.3704929E-001  0.1703595E+03  0.7818608E-02  0.1177473E+00
         -2   -1    0    0    0  501 -0.00000000000E+00  0.00000000000E+00  0.18018118674E+03  0.18018118676E+03  0.26000000000E-02 0. -1.
          2   -1    0    0  501    0  0.00000000000E+00 -0.00000000000E+00 -0.40268319717E+02  0.40268319801E+02  0.26000000000E-02 0.  1.
        -13    1    1    2    0    0  0.49334079206E+02 -0.58553078901E+02  0.11825786469E+03  0.14088026176E+03  0.10570000000E+00 0. -1.
         13    1    1    2    0    0 -0.49334079206E+02  0.58553078901E+02  0.21655002336E+02  0.79569244803E+02  0.10570000000E+00 0.  1.
<mgrwt>
<rscale>  0 0.17035955E+03</rscale>
<asrwt>0</asrwt>
<pdfrwt beam="2">  1        2 0.61951261E-02 0.17035955E+03</pdfrwt>
<pdfrwt beam="1">  1       -2 0.27720183E-01 0.17035955E+03</pdfrwt>
<totfact> 0.13321362E+04</totfact>
</mgrwt>
</event>
<event>
 4    1  0.3704929E-001  0.3638346E+02  0.7818608E-02  0.1536647E+00
          2   -1    0    0  501    0  0.00000000000E+00  0.00000000000E+00  0.18851364576E+02  0.18851364756E+02  0.26000000000E-02 0.  1.
         -2   -1    0    0    0  501 -0.00000000000E+00 -0.00000000000E+00 -0.17555174870E+02  0.17555175063E+02  0.26000000000E-02 0. -1.
        -13    1    1    2    0    0 -0.11899332207E+02  0.87937760638E+01  0.11237966700E+02  0.18580303347E+02  0.10570000000E+00 0.  1.
         13    1    1    2    0    0  0.11899332207E+02 -0.87937760638E+01 -0.99417769943E+01  0.17826236471E+02  0.10570000000E+00 0. -1.
<mgrwt>
<rscale>  0 0.36383458E+02</rscale>
<asrwt>0</asrwt>
<pdfrwt beam="1">  1        2 0.29002099E-02 0.36383458E+02</pdfrwt>
<pdfrwt beam="2">  1       -2 0.27007962E-02 0.36383458E+02</pdfrwt>
<totfact> 0.99506964E+05</totfact>
</mgrwt>
</event>
<event>
 4    1  0.3704929E-001  0.9196667E+02  0.7818608E-02  0.1298158E+00
          2   -1    0    0  501    0  0.00000000000E+00  0.00000000000E+00  0.70917288808E+02  0.70917288856E+02  0.26000000000E-02 0. -1.
         -2   -1    0    0    0  501 -0.00000000000E+00 -0.00000000000E+00 -0.29815963028E+02  0.29815963141E+02  0.26000000000E-02 0.  1.
        -13    1    1    2    0    0 -0.21128540971E+02  0.40713399516E+02  0.17008184236E+02  0.48921218783E+02  0.10570000000E+00 0.  1.
         13    1    1    2    0    0  0.21128540971E+02 -0.40713399516E+02  0.24093141544E+02  0.51812033213E+02  0.10570000000E+00 0. -1.
<mgrwt>
<rscale>  0 0.91966674E+02</rscale>
<asrwt>0</asrwt>
<pdfrwt beam="1">  1        2 0.10910352E-01 0.91966674E+02</pdfrwt>
<pdfrwt beam="2">  1       -2 0.45870712E-02 0.91966674E+02</pdfrwt>
<totfact> 0.10837017E+05</totfact>
</mgrwt>
</event>
<event>
 4    1  0.3704929E-001  0.3717043E+02  0.7818608E-02  0.1530130E+00
          2   -1    0    0  501    0  0.00000000000E+00  0.00000000000E+00  0.52389828673E+01  0.52389835124E+01  0.26000000000E-02 0. -1.
         -2   -1    0    0    0  501 -0.00000000000E+00 -0.00000000000E+00 -0.65930769047E+02  0.65930769098E+02  0.26000000000E-02 0.  1.
        -13    1    1    2    0    0 -0.95617208066E+00 -0.14020842800E+02 -0.70605288970E+01  0.15727699726E+02  0.10570000000E+00 0. -1.
         13    1    1    2    0    0  0.95617208066E+00  0.14020842800E+02 -0.53631257283E+02  0.55442052885E+02  0.10570000000E+00 0.  1.
<mgrwt>
<rscale>  0 0.37170429E+02</rscale>
<asrwt>0</asrwt>
<pdfrwt beam="1">  1        2 0.80599746E-03 0.37170429E+02</pdfrwt>
<pdfrwt beam="2">  1       -2 0.10143195E-01 0.37170429E+02</pdfrwt>
<totfact> 0.78782588E+05</totfact>
</mgrwt>
</event>
<event>
 4    1  0.3704929E-001  0.3696357E+02  0.7818608E-02  0.1531824E+00
          2   -1    0    0  501    0  0.00000000000E+00  0.00000000000E+00  0.58026711269E+02  0.58026711327E+02  0.26000000000E-02 0.  1.
         -2   -1    0    0    0  501 -0.00000000000E+00 -0.00000000000E+00 -0.58865363882E+01  0.58865369624E+01  0.26000000000E-02 0. -1.
        -13    1    1    2    0    0  0.15941419046E+02 -0.23018623126E+01  0.41740790352E+02  0.44740721529E+02  0.10570000000E+00 0.  1.
         13    1    1    2    0    0 -0.15941419046E+02  0.23018623126E+01  0.10399384529E+02  0.19172526760E+02  0.10570000000E+00 0. -1.
<mgrwt>
<rscale>  0 0.36963570E+02</rscale>
<asrwt>0</asrwt>
<pdfrwt beam="1">  1        2 0.89271864E-02 0.36963570E+02</pdfrwt>
<pdfrwt beam="2">  1       -2 0.90562103E-03 0.36963570E+02</pdfrwt>
<totfact> 0.11265855E+06</totfact>
</mgrwt>
</event>
<event>
 4    1  0.3704929E-001  0.4023725E+02  0.7818608E-02  0.1506473E+00
          2   -1    0    0  501    0  0.00000000000E+00  0.00000000000E+00  0.62996361028E+02  0.62996361082E+02  0.26000000000E-02 0.  1.
         -2   -1    0    0    0  501 -0.00000000000E+00 -0.00000000000E+00 -0.64251173618E+01  0.64251178879E+01  0.26000000000E-02 0. -1.
        -13    1    1    2    0    0  0.19340726822E+02  0.48277271308E+01  0.23599524636E+02  0.30892060449E+02  0.10570000000E+00 0. -1.
         13    1    1    2    0    0 -0.19340726822E+02 -0.48277271308E+01  0.32971719030E+02  0.38529418521E+02  0.10570000000E+00 0.  1.
<mgrwt>
<rscale>  0 0.40237248E+02</rscale>
<asrwt>0</asrwt>
<pdfrwt beam="1">  1        2 0.96917476E-02 0.40237248E+02</pdfrwt>
<pdfrwt beam="2">  1       -2 0.98847967E-03 0.40237248E+02</pdfrwt>
<totfact> 0.92841660E+05</totfact>
</mgrwt>
</event>
<event>
 4    1  0.3704929E-001  0.1506424E+03  0.7818608E-02  0.1199686E+00
          2   -1    0    0  501    0  0.00000000000E+00  0.00000000000E+00  0.10059547329E+03  0.10059547332E+03  0.26000000000E-02 0. -1.
         -2   -1    0    0    0  501 -0.00000000000E+00 -0.00000000000E+00 -0.56397032330E+02  0.56397032390E+02  0.26000000000E-02 0.  1.
        -13    1    1    2    0    0 -0.45497515350E+01 -0.68249382037E+02 -0.10767401285E+02  0.69243241478E+02  0.10570000000E+00 0.  1.
         13    1    1    2    0    0  0.45497515350E+01  0.68249382037E+02  0.54965842242E+02  0.87749264232E+02  0.10570000000E+00 0. -1.
<mgrwt>
<rscale>  0 0.15064244E+03</rscale>
<asrwt>0</asrwt>
<pdfrwt beam="1">  1        2 0.15476226E-01 0.15064244E+03</pdfrwt>
<pdfrwt beam="2">  1       -2 0.86764666E-02 0.15064244E+03</pdfrwt>
<totfact> 0.29057992E+04</totfact>
</mgrwt>
</event>
<event>
 4    1  0.3704929E-001  0.2594949E+02  0.7818608E-02  0.1647727E+00
         -2   -1    0    0    0  501 -0.00000000000E+00  0.00000000000E+00  0.74854865292E+02  0.74854865337E+02  0.26000000000E-02 0.  1.
          2   -1    0    0  501    0  0.00000000000E+00 -0.00000000000E+00 -0.22489375022E+01  0.22489390051E+01  0.26000000000E-02 0. -1.
        -13    1    1    2    0    0  0.11039698634E+01  0.12873772067E+02  0.39793511258E+02  0.41838827271E+02  0.10570000000E+00 0. -1.
         13    1    1    2    0    0 -0.11039698634E+01 -0.12873772067E+02  0.32812416532E+02  0.35264977071E+02  0.10570000000E+00 0.  1.
<mgrwt>
<rscale>  0 0.25949487E+02</rscale>
<asrwt>0</asrwt>
<pdfrwt beam="2">  1        2 0.34599049E-03 0.25949487E+02</pdfrwt>
<pdfrwt beam="1">  1       -2 0.11516134E-01 0.25949487E+02</pdfrwt>
<totfact> 0.17722413E+06</totfact>
</mgrwt>
</event>
<event>
 4    1  0.3704929E-001  0.1015638E+03  0.7818608E-02  0.1277042E+00
          2   -1    0    0  501    0  0.00000000000E+00  0.00000000000E+00  0.43856156881E+02  0.43856156958E+02  0.26000000000E-02 0. -1.
         -2   -1    0    0    0  501 -0.00000000000E+00 -0.00000000000E+00 -0.58801295255E+02  0.58801295312E+02  0.26000000000E-02 0.  1.
        -13    1    1    2    0    0  0.38825461784E+02 -0.67552433958E+01 -0.39844600205E+02  0.56041530440E+02  0.10570000000E+00 0.  1.
         13    1    1    2    0    0 -0.38825461784E+02  0.67552433958E+01  0.24899461831E+02  0.46615921830E+02  0.10570000000E+00 0. -1.
<mgrwt>
<rscale>  0 0.10156375E+03</rscale>
<asrwt>0</asrwt>
<pdfrwt beam="1">  1        2 0.67471010E-02 0.10156375E+03</pdfrwt>
<pdfrwt beam="2">  1       -2 0.90463532E-02 0.10156375E+03</pdfrwt>
<totfact> 0.71345480E+04</totfact>
</mgrwt>
</event>
<event>
 4    1  0.3704929E-001  0.2380136E+02  0.7818608E-02  0.1678840E+00
         -2   -1    0    0    0  501 -0.00000000000E+00  0.00000000000E+00  0.14662733851E+02  0.14662734081E+02  0.26000000000E-02 0. -1.
          2   -1    0    0  501    0  0.00000000000E+00 -0.00000000000E+00 -0.96589211357E+01  0.96589214856E+01  0.26000000000E-02 0.  1.
        -13    1    1    2    0    0 -0.72415938171E+01  0.89364096584E+01 -0.61684709077E+00  0.11519191439E+02  0.10570000000E+00 0.  1.
         13    1    1    2    0    0  0.72415938171E+01 -0.89364096584E+01  0.56206598060E+01  0.12802464128E+02  0.10570000000E+00 0. -1.
<mgrwt>
<rscale>  0 0.23801361E+02</rscale>
<asrwt>0</asrwt>
<pdfrwt beam="2">  1        2 0.14859879E-02 0.23801361E+02</pdfrwt>
<pdfrwt beam="1">  1       -2 0.22558053E-02 0.23801361E+02</pdfrwt>
<totfact> 0.26244243E+06</totfact>
</mgrwt>
</event>
<event>
 4    1  0.3704929E-001  0.3116734E+02  0.7818608E-02  0.1585532E+00
         -2   -1    0    0    0  501 -0.00000000000E+00  0.00000000000E+00  0.87063877521E+01  0.87063881404E+01  0.26000000000E-02 0.  1.
          2   -1    0    0  501    0  0.00000000000E+00 -0.00000000000E+00 -0.27893404572E+02  0.27893404694E+02  0.26000000000E-02 0. -1.
        -13    1    1    2    0    0 -0.15446828059E+02  0.12435423257E+00 -0.71812813244E+01  0.17035314350E+02  0.10570000000E+00 0.  1.
         13    1    1    2    0    0  0.15446828059E+02 -0.12435423257E+00 -0.12005735496E+02  0.19564478484E+02  0.10570000000E+00 0. -1.
<mgrwt>
<rscale>  0 0.31167342E+02</rscale>
<asrwt>0</asrwt>
<pdfrwt beam="2">  1        2 0.42912930E-02 0.31167342E+02</pdfrwt>
<pdfrwt beam="1">  1       -2 0.13394443E-02 0.31167342E+02</pdfrwt>
<totfact> 0.15277851E+06</totfact>
</mgrwt>
</event>
<event>
 4    1  0.3704929E-001  0.3164776E+02  0.7818608E-02  0.1580558E+00
         -2   -1    0    0    0  501 -0.00000000000E+00  0.00000000000E+00  0.12650231016E+02  0.12650231284E+02  0.26000000000E-02 0. -1.
          2   -1    0    0  501    0  0.00000000000E+00 -0.00000000000E+00 -0.19793723054E+02  0.19793723224E+02  0.26000000000E-02 0.  1.
        -13    1    1    2    0    0  0.80874046043E+01  0.12628099723E+02  0.16059604294E+01  0.15081952699E+02  0.10570000000E+00 0. -1.
         13    1    1    2    0    0 -0.80874046043E+01 -0.12628099723E+02 -0.87494524668E+01  0.17362001808E+02  0.10570000000E+00 0.  1.
<mgrwt>
<rscale>  0 0.31647760E+02</rscale>
<asrwt>0</asrwt>
<pdfrwt beam="2">  1        2 0.30451882E-02 0.31647760E+02</pdfrwt>
<pdfrwt beam="1">  1       -2 0.19461894E-02 0.31647760E+02</pdfrwt>
<totfact> 0.14144982E+06</totfact>
</mgrwt>
</event>
<event>
 4    1  0.3704929E-001  0.2219419E+02  0.7818608E-02  0.1704915E+00
         -2   -1    0    0    0  501 -0.00000000000E+00  0.00000000000E+00  0.39763185407E+01  0.39763193907E+01  0.26000000000E-02 0. -1.
          2   -1    0    0  501    0  0.00000000000E+00 -0.00000000000E+00 -0.30969733291E+02  0.30969733400E+02  0.26000000000E-02 0.  1.
        -13    1    1    2    0    0  0.98804331238E+01  0.44126441981E+01 -0.96270136957E+01  0.14483955010E+02  0.10570000000E+00 0.  1.
         13    1    1    2    0    0 -0.98804331238E+01 -0.44126441981E+01 -0.17366401055E+02  0.20462097781E+02  0.10570000000E+00 0. -1.
<mgrwt>
<rscale>  0 0.22194192E+02</rscale>
<asrwt>0</asrwt>
<pdfrwt beam="2">  1        2 0.47645743E-02 0.22194192E+02</pdfrwt>
<pdfrwt beam="1">  1       -2 0.61174141E-03 0.22194192E+02</pdfrwt>
<totfact> 0.34387121E+06</totfact>
</mgrwt>
</event>
<event>
 4    1  0.3704929E-001  0.2510193E+02  0.7818608E-02  0.1659542E+00
         -2   -1    0    0    0  501 -0.00000000000E+00  0.00000000000E+00  0.29637875521E+01  0.29637886925E+01  0.26000000000E-02 0. -1.
          2   -1    0    0  501    0  0.00000000000E+00 -0.00000000000E+00 -0.53150481999E+02  0.53150482063E+02  0.26000000000E-02 0.  1.
        -13    1    1    2    0    0  0.89017436191E+01  0.54018198245E+01 -0.40756685901E+02  0.42065892537E+02  0.10570000000E+00 0.  1.
         13    1    1    2    0    0 -0.89017436191E+01 -0.54018198245E+01 -0.94300085464E+01  0.14048378218E+02  0.10570000000E+00 0. -1.
<mgrwt>
<rscale>  0 0.25101934E+02</rscale>
<asrwt>0</asrwt>
<pdfrwt beam="2">  1        2 0.81769966E-02 0.25101934E+02</pdfrwt>
<pdfrwt beam="1">  1       -2 0.45596745E-03 0.25101934E+02</pdfrwt>
<totfact> 0.27913684E+06</totfact>
</mgrwt>
</event>
<event>
 4    1  0.3704929E-001  0.3104353E+02  0.7818608E-02  0.1586832E+00
          2   -1    0    0  501    0  0.00000000000E+00  0.00000000000E+00  0.42009005931E+01  0.42009013977E+01  0.26000000000E-02 0.  1.
         -2   -1    0    0    0  501 -0.00000000000E+00 -0.00000000000E+00 -0.57350847273E+02  0.57350847332E+02  0.26000000000E-02 0. -1.
        -13    1    1    2    0    0 -0.13571664889E+02  0.74858626075E+01 -0.24932950247E+02  0.29357987113E+02  0.10570000000E+00 0.  1.
         13    1    1    2    0    0  0.13571664889E+02 -0.74858626075E+01 -0.28216996433E+02  0.32193761617E+02  0.10570000000E+00 0. -1.
<mgrwt>
<rscale>  0 0.31043533E+02</rscale>
<asrwt>0</asrwt>
<pdfrwt beam="1">  1        2 0.64629251E-03 0.31043533E+02</pdfrwt>
<pdfrwt beam="2">  1       -2 0.88232068E-02 0.31043533E+02</pdfrwt>
<totfact> 0.12310034E+06</totfact>
</mgrwt>
</event>
<event>
 4    1  0.3704929E-001  0.3290614E+02  0.7818608E-02  0.1568022E+00
          2   -1    0    0  501    0  0.00000000000E+00  0.00000000000E+00  0.17277215523E+02  0.17277215719E+02  0.26000000000E-02 0.  1.
         -2   -1    0    0    0  501 -0.00000000000E+00 -0.00000000000E+00 -0.15668234280E+02  0.15668234496E+02  0.26000000000E-02 0. -1.
        -13    1    1    2    0    0  0.13066661171E+02  0.70310125706E+01 -0.63117096525E+01  0.16125185988E+02  0.10570000000E+00 0. -1.
         13    1    1    2    0    0 -0.13066661171E+02 -0.70310125706E+01  0.79206908952E+01  0.16820264227E+02  0.10570000000E+00 0.  1.
<mgrwt>
<rscale>  0 0.32906137E+02</rscale>
<asrwt>0</asrwt>
<pdfrwt beam="1">  1        2 0.26580332E-02 0.32906137E+02</pdfrwt>
<pdfrwt beam="2">  1       -2 0.24104976E-02 0.32906137E+02</pdfrwt>
<totfact> 0.12657312E+06</totfact>
</mgrwt>
</event>
<event>
 4    1  0.3704929E-001  0.4544878E+02  0.7818608E-02  0.1471559E+00
          2   -1    0    0  501    0  0.00000000000E+00  0.00000000000E+00  0.12125455515E+03  0.12125455518E+03  0.26000000000E-02 0.  1.
         -2   -1    0    0    0  501 -0.00000000000E+00 -0.00000000000E+00 -0.42587922654E+01  0.42587930590E+01  0.26000000000E-02 0. -1.
        -13    1    1    2    0    0  0.14146534344E+02  0.10455115825E+02  0.98226499554E+02  0.99789229218E+02  0.10570000000E+00 0.  1.
         13    1    1    2    0    0 -0.14146534344E+02 -0.10455115825E+02  0.18769263335E+02  0.25724119023E+02  0.10570000000E+00 0. -1.
<mgrwt>
<rscale>  0 0.45448785E+02</rscale>
<asrwt>0</asrwt>
<pdfrwt beam="1">  1        2 0.18654549E-01 0.45448785E+02</pdfrwt>
<pdfrwt beam="2">  1       -2 0.65519880E-03 0.45448785E+02</pdfrwt>
<totfact> 0.80143491E+05</totfact>
</mgrwt>
</event>
<event>
 4    1  0.3704929E-001  0.3077908E+02  0.7818608E-02  0.1589633E+00
         -2   -1    0    0    0  501 -0.00000000000E+00  0.00000000000E+00  0.10448599194E+02  0.10448599518E+02  0.26000000000E-02 0. -1.
          2   -1    0    0  501    0  0.00000000000E+00 -0.00000000000E+00 -0.22666954070E+02  0.22666954219E+02  0.26000000000E-02 0.  1.
        -13    1    1    2    0    0 -0.13590900707E+02 -0.33848991098E+01 -0.12969461305E+02  0.19088955525E+02  0.10570000000E+00 0.  1.
         13    1    1    2    0    0  0.13590900707E+02  0.33848991098E+01  0.75110642962E+00  0.14026598211E+02  0.10570000000E+00 0. -1.
<mgrwt>
<rscale>  0 0.30779079E+02</rscale>
<asrwt>0</asrwt>
<pdfrwt beam="2">  1        2 0.34872237E-02 0.30779079E+02</pdfrwt>
<pdfrwt beam="1">  1       -2 0.16074768E-02 0.30779079E+02</pdfrwt>
<totfact> 0.15370073E+06</totfact>
</mgrwt>
</event>
<event>
 4    1  0.3704929E-001  0.4600166E+02  0.7818608E-02  0.1468184E+00
          2   -1    0    0  501    0  0.00000000000E+00  0.00000000000E+00  0.15790724104E+03  0.15790724106E+03  0.26000000000E-02 0.  1.
         -2   -1    0    0    0  501 -0.00000000000E+00 -0.00000000000E+00 -0.33503087238E+01  0.33503097327E+01  0.26000000000E-02 0. -1.
        -13    1    1    2    0    0 -0.12277153837E+02 -0.15676381837E+02  0.11763701857E+03  0.11931033805E+03  0.10570000000E+00 0.  1.
         13    1    1    2    0    0  0.12277153837E+02  0.15676381837E+02  0.36919913737E+02  0.41947212741E+02  0.10570000000E+00 0. -1.
<mgrwt>
<rscale>  0 0.46001656E+02</rscale>
<asrwt>0</asrwt>
<pdfrwt beam="1">  1        2 0.24293418E-01 0.46001656E+02</pdfrwt>
<pdfrwt beam="2">  1       -2 0.51543226E-03 0.46001656E+02</pdfrwt>
<totfact> 0.84028184E+05</totfact>
</mgrwt>
</event>
<event>
 4    1  0.3704929E-001  0.7514751E+02  0.7818608E-02  0.1343415E+00
          2   -1    0    0  501    0  0.00000000000E+00  0.00000000000E+00  0.14410770401E+03  0.14410770403E+03  0.26000000000E-02 0.  1.
         -2   -1    0    0    0  501 -0.00000000000E+00 -0.00000000000E+00 -0.97967493876E+01  0.97967497326E+01  0.26000000000E-02 0. -1.
        -13    1    1    2    0    0 -0.26315211243E+02  0.12128761779E+01  0.12202645573E+03  0.12483760844E+03  0.10570000000E+00 0.  1.
         13    1    1    2    0    0  0.26315211243E+02 -0.12128761779E+01  0.12284498890E+02  0.29066845320E+02  0.10570000000E+00 0. -1.
<mgrwt>
<rscale>  0 0.75147511E+02</rscale>
<asrwt>0</asrwt>
<pdfrwt beam="1">  1        2 0.22170415E-01 0.75147511E+02</pdfrwt>
<pdfrwt beam="2">  1       -2 0.15071923E-02 0.75147511E+02</pdfrwt>
<totfact> 0.23170237E+05</totfact>
</mgrwt>
</event>
<event>
 4    1  0.3704929E-001  0.2737650E+02  0.7818608E-02  0.1629041E+00
         -2   -1    0    0    0  501 -0.00000000000E+00  0.00000000000E+00  0.14182110151E+02  0.14182110389E+02  0.26000000000E-02 0.  1.
          2   -1    0    0  501    0  0.00000000000E+00 -0.00000000000E+00 -0.13211588154E+02  0.13211588410E+02  0.26000000000E-02 0. -1.
        -13    1    1    2    0    0  0.84830114776E+01  0.10506899794E+02 -0.17523471729E+01  0.13617573944E+02  0.10570000000E+00 0.  1.
         13    1    1    2    0    0 -0.84830114776E+01 -0.10506899794E+02  0.27228691701E+01  0.13776124855E+02  0.10570000000E+00 0. -1.
<mgrwt>
<rscale>  0 0.27376501E+02</rscale>
<asrwt>0</asrwt>
<pdfrwt beam="2">  1        2 0.20325521E-02 0.27376501E+02</pdfrwt>
<pdfrwt beam="1">  1       -2 0.21818631E-02 0.27376501E+02</pdfrwt>
<totfact> 0.19309902E+06</totfact>
</mgrwt>
</event>
<event>
 4    1  0.3704929E-001  0.3059242E+02  0.7818608E-02  0.1591631E+00
         -2   -1    0    0    0  501 -0.00000000000E+00  0.00000000000E+00  0.56333332138E+01  0.56333338138E+01  0.26000000000E-02 0. -1.
          2   -1    0    0  501    0  0.00000000000E+00 -0.00000000000E+00 -0.41533841216E+02  0.41533841298E+02  0.26000000000E-02 0.  1.
        -13    1    1    2    0    0  0.56542398634E+01 -0.12460702399E+02 -0.74114157456E+01  0.15562126736E+02  0.10570000000E+00 0. -1.
         13    1    1    2    0    0 -0.56542398634E+01  0.12460702399E+02 -0.28489092257E+02  0.31605048376E+02  0.10570000000E+00 0.  1.
<mgrwt>
<rscale>  0 0.30592416E+02</rscale>
<asrwt>0</asrwt>
<pdfrwt beam="2">  1        2 0.63898216E-02 0.30592416E+02</pdfrwt>
<pdfrwt beam="1">  1       -2 0.86666673E-03 0.30592416E+02</pdfrwt>
<totfact> 0.16857645E+06</totfact>
</mgrwt>
</event>
<event>
 4    1  0.3704929E-001  0.2807757E+02  0.7818608E-02  0.1620365E+00
         -2   -1    0    0    0  501 -0.00000000000E+00  0.00000000000E+00  0.24526243425E+01  0.24526257206E+01  0.26000000000E-02 0.  1.
          2   -1    0    0  501    0  0.00000000000E+00 -0.00000000000E+00 -0.80357753133E+02  0.80357753175E+02  0.26000000000E-02 0. -1.
        -13    1    1    2    0    0  0.11285144330E+02  0.13381075141E+01 -0.63261173825E+02  0.64273885058E+02  0.10570000000E+00 0. -1.
         13    1    1    2    0    0 -0.11285144330E+02 -0.13381075141E+01 -0.14643954965E+02  0.18536493837E+02  0.10570000000E+00 0.  1.
<mgrwt>
<rscale>  0 0.28077567E+02</rscale>
<asrwt>0</asrwt>
<pdfrwt beam="2">  1        2 0.12362729E-01 0.28077567E+02</pdfrwt>
<pdfrwt beam="1">  1       -2 0.37732699E-03 0.28077567E+02</pdfrwt>
<totfact> 0.23235146E+06</totfact>
</mgrwt>
</event>
<event>
 4    1  0.3704929E-001  0.2094735E+02  0.7818608E-02  0.1727120E+00
          2   -1    0    0  501    0  0.00000000000E+00  0.00000000000E+00  0.17626280275E+01  0.17626299451E+01  0.26000000000E-02 0.  1.
         -2   -1    0    0    0  501 -0.00000000000E+00 -0.00000000000E+00 -0.62235349185E+02  0.62235349239E+02  0.26000000000E-02 0. -1.
        -13    1    1    2    0    0 -0.92460093769E+01  0.38846067162E+01 -0.21016081956E+02  0.23286599838E+02  0.10570000000E+00 0.  1.
         13    1    1    2    0    0  0.92460093769E+01 -0.38846067162E+01 -0.39456639201E+02  0.40711379346E+02  0.10570000000E+00 0. -1.
<mgrwt>
<rscale>  0 0.20947347E+02</rscale>
<asrwt>0</asrwt>
<pdfrwt beam="1">  1        2 0.27117374E-03 0.20947347E+02</pdfrwt>
<pdfrwt beam="2">  1       -2 0.95746676E-02 0.20947347E+02</pdfrwt>
<totfact> 0.29595407E+06</totfact>
</mgrwt>
</event>
<event>
 4    1  0.3704929E-001  0.2356837E+02  0.7818608E-02  0.1682459E+00
         -2   -1    0    0    0  501 -0.00000000000E+00  0.00000000000E+00  0.16656695895E+02  0.16656696097E+02  0.26000000000E-02 0.  1.
          2   -1    0    0  501    0  0.00000000000E+00 -0.00000000000E+00 -0.83370103062E+01  0.83370107116E+01  0.26000000000E-02 0. -1.
        -13    1    1    2    0    0 -0.73038333255E+01 -0.74766931373E+01 -0.16106464343E+01  0.10576023636E+02  0.10570000000E+00 0. -1.
         13    1    1    2    0    0  0.73038333255E+01  0.74766931373E+01  0.99303320226E+01  0.14417683173E+02  0.10570000000E+00 0.  1.
<mgrwt>
<rscale>  0 0.23568373E+02</rscale>
<asrwt>0</asrwt>
<pdfrwt beam="2">  1        2 0.12826170E-02 0.23568373E+02</pdfrwt>
<pdfrwt beam="1">  1       -2 0.25625686E-02 0.23568373E+02</pdfrwt>
<totfact> 0.26529316E+06</totfact>
</mgrwt>
</event>
<event>
 4    1  0.3704929E-001  0.2374814E+02  0.7818608E-02  0.1679662E+00
         -2   -1    0    0    0  501 -0.00000000000E+00  0.00000000000E+00  0.15151390791E+01  0.15151413099E+01  0.26000000000E-02 0.  1.
          2   -1    0    0  501    0  0.00000000000E+00 -0.00000000000E+00 -0.93056397676E+02  0.93056397713E+02  0.26000000000E-02 0. -1.
        -13    1    1    2    0    0  0.33070655153E+01 -0.10443170245E+02 -0.64013535566E+02  0.64944132878E+02  0.10570000000E+00 0. -1.
         13    1    1    2    0    0 -0.33070655153E+01  0.10443170245E+02 -0.27527723031E+02  0.29627406145E+02  0.10570000000E+00 0.  1.
<mgrwt>
<rscale>  0 0.23748136E+02</rscale>
<asrwt>0</asrwt>
<pdfrwt beam="2">  1        2 0.14316365E-01 0.23748136E+02</pdfrwt>
<pdfrwt beam="1">  1       -2 0.23309857E-03 0.23748136E+02</pdfrwt>
<totfact> 0.35321195E+06</totfact>
</mgrwt>
</event>
<event>
 4    1  0.3704929E-001  0.2594338E+02  0.7818608E-02  0.1647810E+00
         -2   -1    0    0    0  501 -0.00000000000E+00  0.00000000000E+00  0.12809503957E+01  0.12809530343E+01  0.26000000000E-02 0. -1.
          2   -1    0    0  501    0  0.00000000000E+00 -0.00000000000E+00 -0.13135912227E+03  0.13135912230E+03  0.26000000000E-02 0.  1.
        -13    1    1    2    0    0  0.54394431281E+01  0.11725313299E+02 -0.59478218587E+02  0.60866576807E+02  0.10570000000E+00 0. -1.
         13    1    1    2    0    0 -0.54394431281E+01 -0.11725313299E+02 -0.70599953290E+02  0.71773498525E+02  0.10570000000E+00 0.  1.
<mgrwt>
<rscale>  0 0.25943377E+02</rscale>
<asrwt>0</asrwt>
<pdfrwt beam="2">  1        2 0.20209085E-01 0.25943377E+02</pdfrwt>
<pdfrwt beam="1">  1       -2 0.19706960E-03 0.25943377E+02</pdfrwt>
<totfact> 0.31407447E+06</totfact>
</mgrwt>
</event>
<event>
 4    1  0.3704929E-001  0.4241454E+02  0.7818608E-02  0.1491159E+00
          2   -1    0    0  501    0  0.00000000000E+00  0.00000000000E+00  0.18435985401E+03  0.18435985403E+03  0.26000000000E-02 0. -1.
         -2   -1    0    0    0  501 -0.00000000000E+00 -0.00000000000E+00 -0.24395128429E+01  0.24395142284E+01  0.26000000000E-02 0.  1.
        -13    1    1    2    0    0 -0.15650313821E+02  0.12939861394E+02  0.64039104118E+02  0.67181771072E+02  0.10570000000E+00 0. -1.
         13    1    1    2    0    0  0.15650313821E+02 -0.12939861394E+02  0.11788123705E+03  0.11961759719E+03  0.10570000000E+00 0.  1.
<mgrwt>
<rscale>  0 0.42414543E+02</rscale>
<asrwt>0</asrwt>
<pdfrwt beam="1">  1        2 0.28363042E-01 0.42414543E+02</pdfrwt>
<pdfrwt beam="2">  1       -2 0.37530994E-03 0.42414543E+02</pdfrwt>
<totfact> 0.10780243E+06</totfact>
</mgrwt>
</event>
<event>
 4    1  0.3704929E-001  0.4659358E+02  0.7818608E-02  0.1464632E+00
          2   -1    0    0  501    0  0.00000000000E+00  0.00000000000E+00  0.26625322755E+02  0.26625322882E+02  0.26000000000E-02 0. -1.
         -2   -1    0    0    0  501 -0.00000000000E+00 -0.00000000000E+00 -0.20384366608E+02  0.20384366774E+02  0.26000000000E-02 0.  1.
        -13    1    1    2    0    0 -0.91703480338E+01  0.20444658295E+02  0.95531402966E+01  0.24358838188E+02  0.10570000000E+00 0. -1.
         13    1    1    2    0    0  0.91703480338E+01 -0.20444658295E+02 -0.33121841504E+01  0.22650851468E+02  0.10570000000E+00 0.  1.
<mgrwt>
<rscale>  0 0.46593577E+02</rscale>
<asrwt>0</asrwt>
<pdfrwt beam="1">  1        2 0.40962035E-02 0.46593577E+02</pdfrwt>
<pdfrwt beam="2">  1       -2 0.31360564E-02 0.46593577E+02</pdfrwt>
<totfact> 0.55384034E+05</totfact>
</mgrwt>
</event>
<event>
 4    1  0.3704929E-001  0.2211695E+02  0.7818608E-02  0.1706237E+00
          2   -1    0    0  501    0  0.00000000000E+00  0.00000000000E+00  0.17182511543E+02  0.17182511740E+02  0.26000000000E-02 0. -1.
         -2   -1    0    0    0  501 -0.00000000000E+00 -0.00000000000E+00 -0.71171105619E+01  0.71171110369E+01  0.26000000000E-02 0.  1.
        -13    1    1    2    0    0 -0.75185600193E+01  0.80703606637E+01  0.41681482572E+01  0.11791696163E+02  0.10570000000E+00 0.  1.
         13    1    1    2    0    0  0.75185600193E+01 -0.80703606637E+01  0.58972527240E+01  0.12507926614E+02  0.10570000000E+00 0. -1.
<mgrwt>
<rscale>  0 0.22116948E+02</rscale>
<asrwt>0</asrwt>
<pdfrwt beam="1">  1        2 0.26434634E-02 0.22116948E+02</pdfrwt>
<pdfrwt beam="2">  1       -2 0.10949401E-02 0.22116948E+02</pdfrwt>
<totfact> 0.32693557E+06</totfact>
</mgrwt>
</event>
<event>
 4    1  0.3704929E-001  0.3535648E+02  0.7818608E-02  0.1545458E+00
          2   -1    0    0  501    0  0.00000000000E+00  0.00000000000E+00  0.51759525516E+02  0.51759525581E+02  0.26000000000E-02 0. -1.
         -2   -1    0    0    0  501 -0.00000000000E+00 -0.00000000000E+00 -0.60379259444E+01  0.60379265042E+01  0.26000000000E-02 0.  1.
        -13    1    1    2    0    0 -0.11124328827E+02 -0.39453906429E+01  0.44373942150E+02  0.45917041647E+02  0.10570000000E+00 0. -1.
         13    1    1    2    0    0  0.11124328827E+02  0.39453906429E+01  0.13476574212E+01  0.11880410438E+02  0.10570000000E+00 0.  1.
<mgrwt>
<rscale>  0 0.35356482E+02</rscale>
<asrwt>0</asrwt>
<pdfrwt beam="1">  1        2 0.79630039E-02 0.35356482E+02</pdfrwt>
<pdfrwt beam="2">  1       -2 0.92891174E-03 0.35356482E+02</pdfrwt>
<totfact> 0.12305671E+06</totfact>
</mgrwt>
</event>
<event>
 4    1  0.3704929E-001  0.3043101E+02  0.7818608E-02  0.1593373E+00
          2   -1    0    0  501    0  0.00000000000E+00  0.00000000000E+00  0.94832043261E+02  0.94832043297E+02  0.26000000000E-02 0. -1.
         -2   -1    0    0    0  501 -0.00000000000E+00 -0.00000000000E+00 -0.24412790082E+01  0.24412803927E+01  0.26000000000E-02 0.  1.
        -13    1    1    2    0    0 -0.47911614258E+01  0.11481028296E+02  0.18195046156E+02  0.22041781136E+02  0.10570000000E+00 0.  1.
         13    1    1    2    0    0  0.47911614258E+01 -0.11481028296E+02  0.74195718097E+02  0.75231542553E+02  0.10570000000E+00 0. -1.
<mgrwt>
<rscale>  0 0.30431007E+02</rscale>
<asrwt>0</asrwt>
<pdfrwt beam="1">  1        2 0.14589542E-01 0.30431007E+02</pdfrwt>
<pdfrwt beam="2">  1       -2 0.37558157E-03 0.30431007E+02</pdfrwt>
<totfact> 0.19949114E+06</totfact>
</mgrwt>
</event>
<event>
 4    1  0.3704929E-001  0.4214304E+02  0.7818608E-02  0.1493008E+00
          2   -1    0    0  501    0  0.00000000000E+00  0.00000000000E+00  0.14338716928E+02  0.14338717164E+02  0.26000000000E-02 0. -1.
         -2   -1    0    0    0  501 -0.00000000000E+00 -0.00000000000E+00 -0.30965737030E+02  0.30965737139E+02  0.26000000000E-02 0.  1.
        -13    1    1    2    0    0  0.95649882587E+01 -0.55892393109E+01 -0.27582084177E+02  0.29723915228E+02  0.10570000000E+00 0.  1.
         13    1    1    2    0    0 -0.95649882587E+01  0.55892393109E+01  0.10955064075E+02  0.15580539074E+02  0.10570000000E+00 0. -1.
<mgrwt>
<rscale>  0 0.42143040E+02</rscale>
<asrwt>0</asrwt>
<pdfrwt beam="1">  1        2 0.22059565E-02 0.42143040E+02</pdfrwt>
<pdfrwt beam="2">  1       -2 0.47639595E-02 0.42143040E+02</pdfrwt>
<totfact> 0.65887302E+05</totfact>
</mgrwt>
</event>
<event>
 4    1  0.3704929E-001  0.4255696E+02  0.7818608E-02  0.1490196E+00
         -2   -1    0    0    0  501 -0.00000000000E+00  0.00000000000E+00  0.57272384043E+01  0.57272389944E+01  0.26000000000E-02 0. -1.
          2   -1    0    0  501    0  0.00000000000E+00 -0.00000000000E+00 -0.79056193971E+02  0.79056194014E+02  0.26000000000E-02 0.  1.
        -13    1    1    2    0    0  0.14264020254E+02 -0.13083755906E+02 -0.54272445942E+02  0.57620799226E+02  0.10570000000E+00 0.  1.
         13    1    1    2    0    0 -0.14264020254E+02  0.13083755906E+02 -0.19056509625E+02  0.27162633782E+02  0.10570000000E+00 0. -1.
<mgrwt>
<rscale>  0 0.42556959E+02</rscale>
<asrwt>0</asrwt>
<pdfrwt beam="2">  1        2 0.12162491E-01 0.42556959E+02</pdfrwt>
<pdfrwt beam="1">  1       -2 0.88111371E-03 0.42556959E+02</pdfrwt>
<totfact> 0.84767803E+05</totfact>
</mgrwt>
</event>
<event>
 4    1  0.3704929E-001  0.2270257E+02  0.7818608E-02  0.1696377E+00
         -2   -1    0    0    0  501 -0.00000000000E+00  0.00000000000E+00  0.29820501883E+01  0.29820513217E+01  0.26000000000E-02 0.  1.
          2   -1    0    0  501    0  0.00000000000E+00 -0.00000000000E+00 -0.43209083020E+02  0.43209083099E+02  0.26000000000E-02 0. -1.
        -13    1    1    2    0    0  0.92107011474E+01 -0.39510394297E+01 -0.30954971032E+02  0.32537196135E+02  0.10570000000E+00 0. -1.
         13    1    1    2    0    0 -0.92107011474E+01  0.39510394297E+01 -0.92720617997E+01  0.13653938286E+02  0.10570000000E+00 0.  1.
<mgrwt>
<rscale>  0 0.22702571E+02</rscale>
<asrwt>0</asrwt>
<pdfrwt beam="2">  1        2 0.66475509E-02 0.22702571E+02</pdfrwt>
<pdfrwt beam="1">  1       -2 0.45877708E-03 0.22702571E+02</pdfrwt>
<totfact> 0.34072244E+06</totfact>
</mgrwt>
</event>
<event>
 4    1  0.3704929E-001  0.2498317E+02  0.7818608E-02  0.1661244E+00
         -2   -1    0    0    0  501 -0.00000000000E+00  0.00000000000E+00  0.23324110567E+02  0.23324110712E+02  0.26000000000E-02 0.  1.
          2   -1    0    0  501    0  0.00000000000E+00 -0.00000000000E+00 -0.66900617625E+01  0.66900622677E+01  0.26000000000E-02 0. -1.
        -13    1    1    2    0    0 -0.65264714114E+01 -0.85915741648E+01  0.75516958608E+00  0.10816257639E+02  0.10570000000E+00 0. -1.
         13    1    1    2    0    0  0.65264714114E+01  0.85915741648E+01  0.15878879219E+02  0.19197915341E+02  0.10570000000E+00 0.  1.
<mgrwt>
<rscale>  0 0.24983174E+02</rscale>
<asrwt>0</asrwt>
<pdfrwt beam="2">  1        2 0.10292404E-02 0.24983174E+02</pdfrwt>
<pdfrwt beam="1">  1       -2 0.35883246E-02 0.24983174E+02</pdfrwt>
<totfact> 0.22605557E+06</totfact>
</mgrwt>
</event>
<event>
 4    1  0.3704929E-001  0.2240418E+02  0.7818608E-02  0.1701354E+00
         -2   -1    0    0    0  501 -0.00000000000E+00  0.00000000000E+00  0.80318320450E+01  0.80318324658E+01  0.26000000000E-02 0.  1.
          2   -1    0    0  501    0  0.00000000000E+00 -0.00000000000E+00 -0.15623684990E+02  0.15623685206E+02  0.26000000000E-02 0. -1.
        -13    1    1    2    0    0 -0.19776812406E+01 -0.99098025252E+01 -0.88991201185E+01  0.13465545683E+02  0.10570000000E+00 0. -1.
         13    1    1    2    0    0  0.19776812406E+01  0.99098025252E+01  0.13072671735E+01  0.10189971989E+02  0.10570000000E+00 0.  1.
<mgrwt>
<rscale>  0 0.22404180E+02</rscale>
<asrwt>0</asrwt>
<pdfrwt beam="2">  1        2 0.24036439E-02 0.22404180E+02</pdfrwt>
<pdfrwt beam="1">  1       -2 0.12356665E-02 0.22404180E+02</pdfrwt>
<totfact> 0.31475072E+06</totfact>
</mgrwt>
</event>
<event>
 4    1  0.3704929E-001  0.2876607E+02  0.7818608E-02  0.1612143E+00
         -2   -1    0    0    0  501 -0.00000000000E+00  0.00000000000E+00  0.52528220867E+02  0.52528220931E+02  0.26000000000E-02 0. -1.
          2   -1    0    0  501    0  0.00000000000E+00 -0.00000000000E+00 -0.39382963021E+01  0.39382971603E+01  0.26000000000E-02 0.  1.
        -13    1    1    2    0    0  0.11462902603E+02 -0.30908628742E+01  0.83588365211E+01  0.14520085739E+02  0.10570000000E+00 0.  1.
         13    1    1    2    0    0 -0.11462902603E+02  0.30908628742E+01  0.40231088044E+02  0.41946432352E+02  0.10570000000E+00 0. -1.
<mgrwt>
<rscale>  0 0.28766072E+02</rscale>
<asrwt>0</asrwt>
<pdfrwt beam="2">  1        2 0.60589185E-03 0.28766072E+02</pdfrwt>
<pdfrwt beam="1">  1       -2 0.80812643E-02 0.28766072E+02</pdfrwt>
<totfact> 0.14883873E+06</totfact>
</mgrwt>
</event>
<event>
 4    1  0.3704929E-001  0.2762212E+02  0.7818608E-02  0.1625965E+00
         -2   -1    0    0    0  501 -0.00000000000E+00  0.00000000000E+00  0.55566379647E+02  0.55566379708E+02  0.26000000000E-02 0.  1.
          2   -1    0    0  501    0  0.00000000000E+00 -0.00000000000E+00 -0.34327464540E+01  0.34327474387E+01  0.26000000000E-02 0. -1.
        -13    1    1    2    0    0  0.13807756386E+02  0.10933756465E+00  0.26624046463E+02  0.29991950815E+02  0.10570000000E+00 0. -1.
         13    1    1    2    0    0 -0.13807756386E+02 -0.10933756465E+00  0.25509586730E+02  0.29007176332E+02  0.10570000000E+00 0.  1.
<mgrwt>
<rscale>  0 0.27622116E+02</rscale>
<asrwt>0</asrwt>
<pdfrwt beam="2">  1        2 0.52811498E-03 0.27622116E+02</pdfrwt>
<pdfrwt beam="1">  1       -2 0.85486730E-02 0.27622116E+02</pdfrwt>
<totfact> 0.16192419E+06</totfact>
</mgrwt>
</event>
<event>
 4    1  0.3704929E-001  0.2379890E+02  0.7818608E-02  0.1678878E+00
          2   -1    0    0  501    0  0.00000000000E+00  0.00000000000E+00  0.82457125341E+01  0.82457129440E+01  0.26000000000E-02 0. -1.
         -2   -1    0    0    0  501 -0.00000000000E+00 -0.00000000000E+00 -0.17172182644E+02  0.17172182841E+02  0.26000000000E-02 0.  1.
        -13    1    1    2    0    0  0.10269469629E+02 -0.27739711267E+01  0.12313484477E+01  0.10709076233E+02  0.10570000000E+00 0. -1.
         13    1    1    2    0    0 -0.10269469629E+02  0.27739711267E+01 -0.10157818558E+02  0.14708819552E+02  0.10570000000E+00 0.  1.
<mgrwt>
<rscale>  0 0.23798898E+02</rscale>
<asrwt>0</asrwt>
<pdfrwt beam="1">  1        2 0.12685712E-02 0.23798898E+02</pdfrwt>
<pdfrwt beam="2">  1       -2 0.26418743E-02 0.23798898E+02</pdfrwt>
<totfact> 0.25897538E+06</totfact>
</mgrwt>
</event>
<event>
 4    1  0.3704929E-001  0.2765229E+02  0.7818608E-02  0.1625590E+00
          2   -1    0    0  501    0  0.00000000000E+00  0.00000000000E+00  0.18873859031E+02  0.18873859211E+02  0.26000000000E-02 0.  1.
         -2   -1    0    0    0  501 -0.00000000000E+00 -0.00000000000E+00 -0.10128416209E+02  0.10128416543E+02  0.26000000000E-02 0. -1.
        -13    1    1    2    0    0 -0.94058453282E+00  0.13602343161E+02  0.67741976092E+01  0.15225287008E+02  0.10570000000E+00 0.  1.
         13    1    1    2    0    0  0.94058453282E+00 -0.13602343161E+02  0.19712452129E+01  0.13776988746E+02  0.10570000000E+00 0. -1.
<mgrwt>
<rscale>  0 0.27652292E+02</rscale>
<asrwt>0</asrwt>
<pdfrwt beam="1">  1        2 0.29036706E-02 0.27652292E+02</pdfrwt>
<pdfrwt beam="2">  1       -2 0.15582179E-02 0.27652292E+02</pdfrwt>
<totfact> 0.19515577E+06</totfact>
</mgrwt>
</event>
<event>
 4    1  0.3704929E-001  0.3058623E+02  0.7818608E-02  0.1591698E+00
         -2   -1    0    0    0  501 -0.00000000000E+00  0.00000000000E+00  0.58046995077E+02  0.58046995135E+02  0.26000000000E-02 0. -1.
          2   -1    0    0  501    0  0.00000000000E+00 -0.00000000000E+00 -0.40291378080E+01  0.40291386469E+01  0.26000000000E-02 0.  1.
        -13    1    1    2    0    0 -0.10438523762E+02 -0.21422609722E+01  0.47471096362E+01  0.11666116869E+02  0.10570000000E+00 0.  1.
         13    1    1    2    0    0  0.10438523762E+02  0.21422609722E+01  0.49270747633E+02  0.50410016913E+02  0.10570000000E+00 0. -1.
<mgrwt>
<rscale>  0 0.30586230E+02</rscale>
<asrwt>0</asrwt>
<pdfrwt beam="2">  1        2 0.61986741E-03 0.30586230E+02</pdfrwt>
<pdfrwt beam="1">  1       -2 0.89303072E-02 0.30586230E+02</pdfrwt>
<totfact> 0.12715948E+06</totfact>
</mgrwt>
</event>
<event>
 4    1  0.3704929E-001  0.3111751E+02  0.7818608E-02  0.1586055E+00
          2   -1    0    0  501    0  0.00000000000E+00  0.00000000000E+00  0.28387665912E+02  0.28387666031E+02  0.26000000000E-02 0.  1.
         -2   -1    0    0    0  501 -0.00000000000E+00 -0.00000000000E+00 -0.85274646524E+01  0.85274650488E+01  0.26000000000E-02 0. -1.
        -13    1    1    2    0    0  0.85507030013E+01 -0.12974952564E+02  0.10848815343E+02  0.18951830590E+02  0.10570000000E+00 0. -1.
         13    1    1    2    0    0 -0.85507030013E+01  0.12974952564E+02  0.90113859162E+01  0.17963300490E+02  0.10570000000E+00 0.  1.
<mgrwt>
<rscale>  0 0.31117508E+02</rscale>
<asrwt>0</asrwt>
<pdfrwt beam="1">  1        2 0.43673333E-02 0.31117508E+02</pdfrwt>
<pdfrwt beam="2">  1       -2 0.13119177E-02 0.31117508E+02</pdfrwt>
<totfact> 0.15370384E+06</totfact>
</mgrwt>
</event>
<event>
 4    1  0.3704929E-001  0.5079113E+02  0.7818608E-02  0.1441121E+00
         -2   -1    0    0    0  501 -0.00000000000E+00  0.00000000000E+00  0.46844232942E+02  0.46844233014E+02  0.26000000000E-02 0. -1.
          2   -1    0    0  501    0  0.00000000000E+00 -0.00000000000E+00 -0.13767641085E+02  0.13767641331E+02  0.26000000000E-02 0.  1.
        -13    1    1    2    0    0 -0.52338192962E+01  0.14796964620E+02  0.40363018333E+02  0.43307360204E+02  0.10570000000E+00 0. -1.
         13    1    1    2    0    0  0.52338192962E+01 -0.14796964620E+02 -0.72864264759E+01  0.17304514142E+02  0.10570000000E+00 0.  1.
<mgrwt>
<rscale>  0 0.50791125E+02</rscale>
<asrwt>0</asrwt>
<pdfrwt beam="2">  1        2 0.21180986E-02 0.50791125E+02</pdfrwt>
<pdfrwt beam="1">  1       -2 0.72068052E-02 0.50791125E+02</pdfrwt>
<totfact> 0.39711666E+05</totfact>
</mgrwt>
</event>
<event>
 4    1  0.3704929E-001  0.2594668E+02  0.7818608E-02  0.1647765E+00
         -2   -1    0    0    0  501 -0.00000000000E+00  0.00000000000E+00  0.10491815797E+02  0.10491816119E+02  0.26000000000E-02 0.  1.
          2   -1    0    0  501    0  0.00000000000E+00 -0.00000000000E+00 -0.16041792471E+02  0.16041792681E+02  0.26000000000E-02 0. -1.
        -13    1    1    2    0    0  0.10593403248E+02 -0.54159458425E+01 -0.80634008482E+01  0.14372970030E+02  0.10570000000E+00 0. -1.
         13    1    1    2    0    0 -0.10593403248E+02  0.54159458425E+01  0.25134241745E+01  0.12160638771E+02  0.10570000000E+00 0.  1.
<mgrwt>
<rscale>  0 0.25946679E+02</rscale>
<asrwt>0</asrwt>
<pdfrwt beam="2">  1        2 0.24679681E-02 0.25946679E+02</pdfrwt>
<pdfrwt beam="1">  1       -2 0.16141255E-02 0.25946679E+02</pdfrwt>
<totfact> 0.22360316E+06</totfact>
</mgrwt>
</event>
<event>
 4    1  0.3704929E-001  0.3027454E+02  0.7818608E-02  0.1595074E+00
          2   -1    0    0  501    0  0.00000000000E+00  0.00000000000E+00  0.10398599853E+02  0.10398600178E+02  0.26000000000E-02 0.  1.
         -2   -1    0    0    0  501 -0.00000000000E+00 -0.00000000000E+00 -0.22035370249E+02  0.22035370403E+02  0.26000000000E-02 0. -1.
        -13    1    1    2    0    0 -0.70044177159E+01 -0.13270760807E+02 -0.36889273416E+01  0.15452971150E+02  0.10570000000E+00 0. -1.
         13    1    1    2    0    0  0.70044177159E+01  0.13270760807E+02 -0.79478430549E+01  0.16980999430E+02  0.10570000000E+00 0.  1.
<mgrwt>
<rscale>  0 0.30274544E+02</rscale>
<asrwt>0</asrwt>
<pdfrwt beam="1">  1        2 0.15997846E-02 0.30274544E+02</pdfrwt>
<pdfrwt beam="2">  1       -2 0.33900570E-02 0.30274544E+02</pdfrwt>
<totfact> 0.14740030E+06</totfact>
</mgrwt>
</event>
<event>
 4    1  0.3704929E-001  0.2232692E+02  0.7818608E-02  0.1702659E+00
          2   -1    0    0  501    0  0.00000000000E+00  0.00000000000E+00  0.24835597311E+02  0.24835597447E+02  0.26000000000E-02 0. -1.
         -2   -1    0    0    0  501 -0.00000000000E+00 -0.00000000000E+00 -0.50179118517E+01  0.50179125252E+01  0.26000000000E-02 0.  1.
        -13    1    1    2    0    0 -0.98750998263E+01  0.25511226922E+01  0.15975521641E+02  0.18954004531E+02  0.10570000000E+00 0. -1.
         13    1    1    2    0    0  0.98750998263E+01 -0.25511226922E+01  0.38421638187E+01  0.10899505442E+02  0.10570000000E+00 0.  1.
<mgrwt>
<rscale>  0 0.22326921E+02</rscale>
<asrwt>0</asrwt>
<pdfrwt beam="1">  1        2 0.38208612E-02 0.22326921E+02</pdfrwt>
<pdfrwt beam="2">  1       -2 0.77198651E-03 0.22326921E+02</pdfrwt>
<totfact> 0.33118584E+06</totfact>
</mgrwt>
</event>
<event>
 4    1  0.3704929E-001  0.3047953E+02  0.7818608E-02  0.1592848E+00
          2   -1    0    0  501    0  0.00000000000E+00  0.00000000000E+00  0.23093595437E+01  0.23093610073E+01  0.26000000000E-02 0. -1.
         -2   -1    0    0    0  501 -0.00000000000E+00 -0.00000000000E+00 -0.10056913580E+03  0.10056913584E+03  0.26000000000E-02 0.  1.
        -13    1    1    2    0    0  0.70296265440E+01  0.12859071953E+02 -0.63236922560E+02  0.64912948849E+02  0.10570000000E+00 0.  1.
         13    1    1    2    0    0 -0.70296265440E+01 -0.12859071953E+02 -0.35022853699E+02  0.37965547995E+02  0.10570000000E+00 0. -1.
<mgrwt>
<rscale>  0 0.30479526E+02</rscale>
<asrwt>0</asrwt>
<pdfrwt beam="1">  1        2 0.35528628E-03 0.30479526E+02</pdfrwt>
<pdfrwt beam="2">  1       -2 0.15472172E-01 0.30479526E+02</pdfrwt>
<totfact> 0.11481545E+06</totfact>
</mgrwt>
</event>
<event>
 4    1  0.3704929E-001  0.2872889E+02  0.7818608E-02  0.1612580E+00
          2   -1    0    0  501    0  0.00000000000E+00  0.00000000000E+00  0.77490700544E+02  0.77490700587E+02  0.26000000000E-02 0. -1.
         -2   -1    0    0    0  501 -0.00000000000E+00 -0.00000000000E+00 -0.26627349325E+01  0.26627362019E+01  0.26000000000E-02 0.  1.
        -13    1    1    2    0    0 -0.13562404158E+02  0.47069702875E+01  0.38756951715E+02  0.41330459163E+02  0.10570000000E+00 0.  1.
         13    1    1    2    0    0  0.13562404158E+02 -0.47069702875E+01  0.36071013896E+02  0.38822977627E+02  0.10570000000E+00 0. -1.
<mgrwt>
<rscale>  0 0.28728888E+02</rscale>
<asrwt>0</asrwt>
<pdfrwt beam="1">  1        2 0.11921645E-01 0.28728888E+02</pdfrwt>
<pdfrwt beam="2">  1       -2 0.40965169E-03 0.28728888E+02</pdfrwt>
<totfact> 0.21850323E+06</totfact>
</mgrwt>
</event>
<event>
 4    1  0.3704929E-001  0.2229047E+02  0.7818608E-02  0.1703276E+00
         -2   -1    0    0    0  501 -0.00000000000E+00  0.00000000000E+00  0.50883444709E+01  0.50883451351E+01  0.26000000000E-02 0. -1.
          2   -1    0    0  501    0  0.00000000000E+00 -0.00000000000E+00 -0.24411910024E+02  0.24411910163E+02  0.26000000000E-02 0.  1.
        -13    1    1    2    0    0  0.34447071978E+00  0.10696711916E+02 -0.13776563187E+02  0.17445434120E+02  0.10570000000E+00 0. -1.
         13    1    1    2    0    0 -0.34447071978E+00 -0.10696711916E+02 -0.55470023670E+01  0.12054821178E+02  0.10570000000E+00 0.  1.
<mgrwt>
<rscale>  0 0.22290466E+02</rscale>
<asrwt>0</asrwt>
<pdfrwt beam="2">  1        2 0.37556785E-02 0.22290466E+02</pdfrwt>
<pdfrwt beam="1">  1       -2 0.78282230E-03 0.22290466E+02</pdfrwt>
<totfact> 0.33184720E+06</totfact>
</mgrwt>
</event>
<event>
 4    1  0.3704929E-001  0.3243903E+02  0.7818608E-02  0.1572594E+00
          2   -1    0    0  501    0  0.00000000000E+00  0.00000000000E+00  0.23897842130E+02  0.23897842271E+02  0.26000000000E-02 0.  1.
         -2   -1    0    0    0  501 -0.00000000000E+00 -0.00000000000E+00 -0.11008218062E+02  0.11008218369E+02  0.26000000000E-02 0. -1.
        -13    1    1    2    0    0  0.11137165706E+02  0.18637020669E+01  0.18972916924E+02  0.22079234462E+02  0.10570000000E+00 0.  1.
         13    1    1    2    0    0 -0.11137165706E+02 -0.18637020669E+01 -0.60832928557E+01  0.12826826178E+02  0.10570000000E+00 0. -1.
<mgrwt>
<rscale>  0 0.32439030E+02</rscale>
<asrwt>0</asrwt>
<pdfrwt beam="1">  1        2 0.36765911E-02 0.32439030E+02</pdfrwt>
<pdfrwt beam="2">  1       -2 0.16935721E-02 0.32439030E+02</pdfrwt>
<totfact> 0.13604496E+06</totfact>
</mgrwt>
</event>
<event>
 4    1  0.3704929E-001  0.2885270E+02  0.7818608E-02  0.1611128E+00
         -2   -1    0    0    0  501 -0.00000000000E+00  0.00000000000E+00  0.18606290846E+02  0.18606291027E+02  0.26000000000E-02 0. -1.
          2   -1    0    0  501    0  0.00000000000E+00 -0.00000000000E+00 -0.11185439981E+02  0.11185440283E+02  0.26000000000E-02 0.  1.
        -13    1    1    2    0    0  0.10693034426E+02 -0.91431654078E+01  0.70032468886E+01  0.15716077703E+02  0.10570000000E+00 0. -1.
         13    1    1    2    0    0 -0.10693034426E+02  0.91431654078E+01  0.41760397607E+00  0.14075653607E+02  0.10570000000E+00 0.  1.
<mgrwt>
<rscale>  0 0.28852699E+02</rscale>
<asrwt>0</asrwt>
<pdfrwt beam="2">  1        2 0.17208370E-02 0.28852699E+02</pdfrwt>
<pdfrwt beam="1">  1       -2 0.28625063E-02 0.28852699E+02</pdfrwt>
<totfact> 0.16723241E+06</totfact>
</mgrwt>
</event>
<event>
 4    1  0.3704929E-001  0.2284454E+02  0.7818608E-02  0.1694043E+00
         -2   -1    0    0    0  501 -0.00000000000E+00  0.00000000000E+00  0.15633604481E+01  0.15633626101E+01  0.26000000000E-02 0.  1.
          2   -1    0    0  501    0  0.00000000000E+00 -0.00000000000E+00 -0.83453651028E+02  0.83453651068E+02  0.26000000000E-02 0. -1.
        -13    1    1    2    0    0  0.10581778944E+01  0.10874962997E+02 -0.53328726705E+02  0.54436649650E+02  0.10570000000E+00 0. -1.
         13    1    1    2    0    0 -0.10581778944E+01 -0.10874962997E+02 -0.28561563875E+02  0.30580364029E+02  0.10570000000E+00 0.  1.
<mgrwt>
<rscale>  0 0.22844538E+02</rscale>
<asrwt>0</asrwt>
<pdfrwt beam="2">  1        2 0.12839020E-01 0.22844538E+02</pdfrwt>
<pdfrwt beam="1">  1       -2 0.24051723E-03 0.22844538E+02</pdfrwt>
<totfact> 0.37670362E+06</totfact>
</mgrwt>
</event>
<event>
 4    1  0.3704929E-001  0.2584218E+02  0.7818608E-02  0.1649192E+00
         -2   -1    0    0    0  501 -0.00000000000E+00  0.00000000000E+00  0.46197904665E+01  0.46197911981E+01  0.26000000000E-02 0.  1.
          2   -1    0    0  501    0  0.00000000000E+00 -0.00000000000E+00 -0.36138975700E+02  0.36138975794E+02  0.26000000000E-02 0. -1.
        -13    1    1    2    0    0 -0.79092303610E+01  0.65060809575E+01 -0.28184466451E+02  0.29987669732E+02  0.10570000000E+00 0. -1.
         13    1    1    2    0    0  0.79092303610E+01 -0.65060809575E+01 -0.33347187823E+01  0.10771097260E+02  0.10570000000E+00 0.  1.
<mgrwt>
<rscale>  0 0.25842176E+02</rscale>
<asrwt>0</asrwt>
<pdfrwt beam="2">  1        2 0.55598423E-02 0.25842176E+02</pdfrwt>
<pdfrwt beam="1">  1       -2 0.71073708E-03 0.25842176E+02</pdfrwt>
<totfact> 0.24653866E+06</totfact>
</mgrwt>
</event>
<event>
 4    1  0.3704929E-001  0.3161598E+02  0.7818608E-02  0.1580884E+00
         -2   -1    0    0    0  501 -0.00000000000E+00  0.00000000000E+00  0.30671204170E+02  0.30671204280E+02  0.26000000000E-02 0.  1.
          2   -1    0    0  501    0  0.00000000000E+00 -0.00000000000E+00 -0.81474647021E+01  0.81474651170E+01  0.26000000000E-02 0. -1.
        -13    1    1    2    0    0 -0.21521730025E+01  0.12476637256E+02  0.22882961809E+02  0.26152235841E+02  0.10570000000E+00 0.  1.
         13    1    1    2    0    0  0.21521730025E+01 -0.12476637256E+02 -0.35922234161E+00  0.12666433556E+02  0.10570000000E+00 0. -1.
<mgrwt>
<rscale>  0 0.31615981E+02</rscale>
<asrwt>0</asrwt>
<pdfrwt beam="2">  1        2 0.12534561E-02 0.31615981E+02</pdfrwt>
<pdfrwt beam="1">  1       -2 0.47186469E-02 0.31615981E+02</pdfrwt>
<totfact> 0.12864289E+06</totfact>
</mgrwt>
</event>
<event>
 4    1  0.3704929E-001  0.2189254E+02  0.7818608E-02  0.1710117E+00
         -2   -1    0    0    0  501 -0.00000000000E+00  0.00000000000E+00  0.32186994707E+01  0.32187005208E+01  0.26000000000E-02 0. -1.
          2   -1    0    0  501    0  0.00000000000E+00 -0.00000000000E+00 -0.37226455201E+02  0.37226455291E+02  0.26000000000E-02 0.  1.
        -13    1    1    2    0    0  0.50049835038E+01 -0.91947676768E+01 -0.11098997974E+02  0.15257540464E+02  0.10570000000E+00 0.  1.
         13    1    1    2    0    0 -0.50049835038E+01  0.91947676768E+01 -0.22908757756E+02  0.25187615348E+02  0.10570000000E+00 0. -1.
<mgrwt>
<rscale>  0 0.21892537E+02</rscale>
<asrwt>0</asrwt>
<pdfrwt beam="2">  1        2 0.57271468E-02 0.21892537E+02</pdfrwt>
<pdfrwt beam="1">  1       -2 0.49518465E-03 0.21892537E+02</pdfrwt>
<totfact> 0.36277241E+06</totfact>
</mgrwt>
</event>
<event>
 4    1  0.3704929E-001  0.3974225E+02  0.7818608E-02  0.1510117E+00
         -2   -1    0    0    0  501 -0.00000000000E+00  0.00000000000E+00  0.14760507014E+02  0.14760507243E+02  0.26000000000E-02 0.  1.
          2   -1    0    0  501    0  0.00000000000E+00 -0.00000000000E+00 -0.26751226006E+02  0.26751226133E+02  0.26000000000E-02 0. -1.
        -13    1    1    2    0    0 -0.60958082937E+01  0.14959266404E+02  0.60919063817E+01  0.17264443981E+02  0.10570000000E+00 0.  1.
         13    1    1    2    0    0  0.60958082937E+01 -0.14959266404E+02 -0.18082625374E+02  0.24247289395E+02  0.10570000000E+00 0. -1.
<mgrwt>
<rscale>  0 0.39742253E+02</rscale>
<asrwt>0</asrwt>
<pdfrwt beam="2">  1        2 0.41155733E-02 0.39742253E+02</pdfrwt>
<pdfrwt beam="1">  1       -2 0.22708473E-02 0.39742253E+02</pdfrwt>
<totfact> 0.83292197E+05</totfact>
</mgrwt>
</event>
<event>
 4    1  0.3704929E-001  0.3624189E+02  0.7818608E-02  0.1537841E+00
          2   -1    0    0  501    0  0.00000000000E+00  0.00000000000E+00  0.79189126681E+01  0.79189130949E+01  0.26000000000E-02 0. -1.
         -2   -1    0    0    0  501 -0.00000000000E+00 -0.00000000000E+00 -0.41466371480E+02  0.41466371561E+02  0.26000000000E-02 0.  1.
        -13    1    1    2    0    0 -0.16337302726E+02 -0.59061506626E+01 -0.97501129466E+01  0.19921494697E+02  0.10570000000E+00 0. -1.
         13    1    1    2    0    0  0.16337302726E+02  0.59061506626E+01 -0.23797345865E+02  0.29463789959E+02  0.10570000000E+00 0.  1.
<mgrwt>
<rscale>  0 0.36241887E+02</rscale>
<asrwt>0</asrwt>
<pdfrwt beam="1">  1        2 0.12182943E-02 0.36241887E+02</pdfrwt>
<pdfrwt beam="2">  1       -2 0.63794417E-02 0.36241887E+02</pdfrwt>
<totfact> 0.90108996E+05</totfact>
</mgrwt>
</event>
<event>
 4    1  0.3704929E-001  0.5495338E+02  0.7818608E-02  0.1420319E+00
          2   -1    0    0  501    0  0.00000000000E+00  0.00000000000E+00  0.76622917454E+01  0.76622921865E+01  0.26000000000E-02 0.  1.
         -2   -1    0    0    0  501 -0.00000000000E+00 -0.00000000000E+00 -0.98530371969E+02  0.98530372004E+02  0.26000000000E-02 0. -1.
        -13    1    1    2    0    0 -0.10456074460E+02 -0.10769516290E+02 -0.89906657080E+02  0.91151138962E+02  0.10570000000E+00 0. -1.
         13    1    1    2    0    0  0.10456074460E+02  0.10769516290E+02 -0.96142314393E+00  0.15041525228E+02  0.10570000000E+00 0.  1.
<mgrwt>
<rscale>  0 0.54953380E+02</rscale>
<asrwt>0</asrwt>
<pdfrwt beam="1">  1        2 0.11788142E-02 0.54953380E+02</pdfrwt>
<pdfrwt beam="2">  1       -2 0.15158518E-01 0.54953380E+02</pdfrwt>
<totfact> 0.28116289E+05</totfact>
</mgrwt>
</event>
<event>
 4    1  0.3704929E-001  0.3200353E+02  0.7818608E-02  0.1576943E+00
         -2   -1    0    0    0  501 -0.00000000000E+00  0.00000000000E+00  0.29812700576E+01  0.29812711913E+01  0.26000000000E-02 0. -1.
          2   -1    0    0  501    0  0.00000000000E+00 -0.00000000000E+00 -0.85888361920E+02  0.85888361959E+02  0.26000000000E-02 0.  1.
        -13    1    1    2    0    0 -0.12220338159E+02 -0.16324993946E+01 -0.13128988340E+02  0.18010642029E+02  0.10570000000E+00 0. -1.
         13    1    1    2    0    0  0.12220338159E+02  0.16324993946E+01 -0.69778103523E+02  0.70858991121E+02  0.10570000000E+00 0.  1.
<mgrwt>
<rscale>  0 0.32003528E+02</rscale>
<asrwt>0</asrwt>
<pdfrwt beam="2">  1        2 0.13213592E-01 0.32003528E+02</pdfrwt>
<pdfrwt beam="1">  1       -2 0.45865709E-03 0.32003528E+02</pdfrwt>
<totfact> 0.17299105E+06</totfact>
</mgrwt>
</event>
<event>
 4    1  0.3704929E-001  0.5796969E+02  0.7818608E-02  0.1406555E+00
         -2   -1    0    0    0  501 -0.00000000000E+00  0.00000000000E+00  0.12822167586E+02  0.12822167849E+02  0.26000000000E-02 0. -1.
          2   -1    0    0  501    0  0.00000000000E+00 -0.00000000000E+00 -0.65520999697E+02  0.65520999749E+02  0.26000000000E-02 0.  1.
        -13    1    1    2    0    0 -0.15441268106E+02  0.58785083547E+01  0.58344196836E+01  0.17522592466E+02  0.10570000000E+00 0. -1.
         13    1    1    2    0    0  0.15441268106E+02 -0.58785083547E+01 -0.58533251795E+02  0.60820575132E+02  0.10570000000E+00 0.  1.
<mgrwt>
<rscale>  0 0.57969690E+02</rscale>
<asrwt>0</asrwt>
<pdfrwt beam="2">  1        2 0.10080154E-01 0.57969690E+02</pdfrwt>
<pdfrwt beam="1">  1       -2 0.19726412E-02 0.57969690E+02</pdfrwt>
<totfact> 0.36970322E+05</totfact>
</mgrwt>
</event>
<event>
 4    1  0.3704929E-001  0.2304854E+02  0.7818608E-02  0.1690725E+00
          2   -1    0    0  501    0  0.00000000000E+00  0.00000000000E+00  0.15189103334E+01  0.15189125587E+01  0.26000000000E-02 0.  1.
         -2   -1    0    0    0  501 -0.00000000000E+00 -0.00000000000E+00 -0.87436799838E+02  0.87436799877E+02  0.26000000000E-02 0. -1.
        -13    1    1    2    0    0 -0.53287162646E+01 -0.10176544766E+02 -0.46496875848E+02  0.47894967549E+02  0.10570000000E+00 0. -1.
         13    1    1    2    0    0  0.53287162646E+01  0.10176544766E+02 -0.39421013656E+02  0.41060744886E+02  0.10570000000E+00 0.  1.
<mgrwt>
<rscale>  0 0.23048537E+02</rscale>
<asrwt>0</asrwt>
<pdfrwt beam="1">  1        2 0.23367876E-03 0.23048537E+02</pdfrwt>
<pdfrwt beam="2">  1       -2 0.13451812E-01 0.23048537E+02</pdfrwt>
<totfact> 0.22421038E+06</totfact>
</mgrwt>
</event>
<event>
 4    1  0.3704929E-001  0.2049193E+02  0.7818608E-02  0.1735719E+00
          2   -1    0    0  501    0  0.00000000000E+00  0.00000000000E+00  0.95804361569E+00  0.95804714371E+00  0.26000000000E-02 0. -1.
         -2   -1    0    0    0  501 -0.00000000000E+00 -0.00000000000E+00 -0.10957703598E+03  0.10957703601E+03  0.26000000000E-02 0.  1.
        -13    1    1    2    0    0 -0.87419185339E+01  0.52589450353E+01 -0.49217984178E+02  0.50264289327E+02  0.10570000000E+00 0.  1.
         13    1    1    2    0    0  0.87419185339E+01 -0.52589450353E+01 -0.59401008189E+02  0.60270793830E+02  0.10570000000E+00 0. -1.
<mgrwt>
<rscale>  0 0.20491928E+02</rscale>
<asrwt>0</asrwt>
<pdfrwt beam="1">  1        2 0.14739169E-03 0.20491928E+02</pdfrwt>
<pdfrwt beam="2">  1       -2 0.16857996E-01 0.20491928E+02</pdfrwt>
<totfact> 0.27547965E+06</totfact>
</mgrwt>
</event>
<event>
 4    1  0.3704929E-001  0.2246734E+02  0.7818608E-02  0.1700293E+00
         -2   -1    0    0    0  501 -0.00000000000E+00  0.00000000000E+00  0.30474928412E+02  0.30474928523E+02  0.26000000000E-02 0.  1.
          2   -1    0    0  501    0  0.00000000000E+00 -0.00000000000E+00 -0.41409547240E+01  0.41409555402E+01  0.26000000000E-02 0. -1.
        -13    1    1    2    0    0 -0.72233218966E+01 -0.70036455969E+01  0.54700575823E+01  0.11452516462E+02  0.10570000000E+00 0. -1.
         13    1    1    2    0    0  0.72233218966E+01  0.70036455969E+01  0.20863916106E+02  0.23163367601E+02  0.10570000000E+00 0.  1.
<mgrwt>
<rscale>  0 0.22467338E+02</rscale>
<asrwt>0</asrwt>
<pdfrwt beam="2">  1        2 0.63707001E-03 0.22467338E+02</pdfrwt>
<pdfrwt beam="1">  1       -2 0.46884508E-02 0.22467338E+02</pdfrwt>
<totfact> 0.27873858E+06</totfact>
</mgrwt>
</event>
<event>
 4    1  0.3704929E-001  0.2961885E+02  0.7818608E-02  0.1602340E+00
          2   -1    0    0  501    0  0.00000000000E+00  0.00000000000E+00  0.79718461629E+02  0.79718461671E+02  0.26000000000E-02 0.  1.
         -2   -1    0    0    0  501 -0.00000000000E+00 -0.00000000000E+00 -0.27511705365E+01  0.27511717650E+01  0.26000000000E-02 0. -1.
        -13    1    1    2    0    0  0.14221903748E+01  0.13931668804E+02  0.25074130058E+02  0.28719978965E+02  0.10570000000E+00 0. -1.
         13    1    1    2    0    0 -0.14221903748E+01 -0.13931668804E+02  0.51893161034E+02  0.53749654471E+02  0.10570000000E+00 0.  1.
<mgrwt>
<rscale>  0 0.29618854E+02</rscale>
<asrwt>0</asrwt>
<pdfrwt beam="1">  1        2 0.12264378E-01 0.29618854E+02</pdfrwt>
<pdfrwt beam="2">  1       -2 0.42325712E-03 0.29618854E+02</pdfrwt>
<totfact> 0.20456781E+06</totfact>
</mgrwt>
</event>
<event>
 4    1  0.3704929E-001  0.2083990E+02  0.7818608E-02  0.1729124E+00
         -2   -1    0    0    0  501 -0.00000000000E+00  0.00000000000E+00  0.60225317566E+02  0.60225317622E+02  0.26000000000E-02 0. -1.
          2   -1    0    0  501    0  0.00000000000E+00 -0.00000000000E+00 -0.18028179392E+01  0.18028198140E+01  0.26000000000E-02 0.  1.
        -13    1    1    2    0    0  0.12470280034E+01 -0.10334059951E+02  0.30595510137E+02  0.32317863279E+02  0.10570000000E+00 0.  1.
         13    1    1    2    0    0 -0.12470280034E+01  0.10334059951E+02  0.27826989490E+02  0.29710274157E+02  0.10570000000E+00 0. -1.
<mgrwt>
<rscale>  0 0.20839899E+02</rscale>
<asrwt>0</asrwt>
<pdfrwt beam="2">  1        2 0.27735677E-03 0.20839899E+02</pdfrwt>
<pdfrwt beam="1">  1       -2 0.92654331E-02 0.20839899E+02</pdfrwt>
<totfact> 0.30097341E+06</totfact>
</mgrwt>
</event>
<event>
 4    1  0.3704929E-001  0.2679788E+02  0.7818608E-02  0.1636445E+00
         -2   -1    0    0    0  501 -0.00000000000E+00  0.00000000000E+00  0.34782735062E+01  0.34782744780E+01  0.26000000000E-02 0. -1.
          2   -1    0    0  501    0  0.00000000000E+00 -0.00000000000E+00 -0.51615143312E+02  0.51615143377E+02  0.26000000000E-02 0.  1.
        -13    1    1    2    0    0  0.13366306568E+02  0.50029170224E+00 -0.22460107591E+02  0.26141462250E+02  0.10570000000E+00 0. -1.
         13    1    1    2    0    0 -0.13366306568E+02 -0.50029170224E+00 -0.25676762214E+02  0.28951955605E+02  0.10570000000E+00 0.  1.
<mgrwt>
<rscale>  0 0.26797882E+02</rscale>
<asrwt>0</asrwt>
<pdfrwt beam="2">  1        2 0.79407908E-02 0.26797882E+02</pdfrwt>
<pdfrwt beam="1">  1       -2 0.53511912E-03 0.26797882E+02</pdfrwt>
<totfact> 0.23858116E+06</totfact>
</mgrwt>
</event>
<event>
 4    1  0.3704929E-001  0.5901347E+02  0.7818608E-02  0.1402019E+00
         -2   -1    0    0    0  501 -0.00000000000E+00  0.00000000000E+00  0.72031208715E+02  0.72031208762E+02  0.26000000000E-02 0.  1.
          2   -1    0    0  501    0  0.00000000000E+00 -0.00000000000E+00 -0.12087085772E+02  0.12087086052E+02  0.26000000000E-02 0. -1.
        -13    1    1    2    0    0 -0.40584979539E+01 -0.29220501561E+02  0.29156804951E+02  0.41478181790E+02  0.10570000000E+00 0. -1.
         13    1    1    2    0    0  0.40584979539E+01  0.29220501561E+02  0.30787317992E+02  0.42640113024E+02  0.10570000000E+00 0.  1.
<mgrwt>
<rscale>  0 0.59013470E+02</rscale>
<asrwt>0</asrwt>
<pdfrwt beam="2">  1        2 0.18595517E-02 0.59013470E+02</pdfrwt>
<pdfrwt beam="1">  1       -2 0.11081725E-01 0.59013470E+02</pdfrwt>
<totfact> 0.25410793E+05</totfact>
</mgrwt>
</event>
<event>
 4    1  0.3704929E-001  0.1719621E+03  0.7818608E-02  0.1175817E+00
         -2   -1    0    0    0  501 -0.00000000000E+00  0.00000000000E+00  0.43244161584E+03  0.43244161584E+03  0.26000000000E-02 0.  1.
          2   -1    0    0  501    0  0.00000000000E+00 -0.00000000000E+00 -0.17095349144E+02  0.17095349342E+02  0.26000000000E-02 0. -1.
        -13    1    1    2    0    0 -0.11257871337E+02 -0.82949542699E+02  0.15635537470E+03  0.17735382903E+03  0.10570000000E+00 0.  1.
         13    1    1    2    0    0  0.11257871337E+02  0.82949542699E+02  0.25899089199E+03  0.27218313616E+03  0.10570000000E+00 0. -1.
<mgrwt>
<rscale>  0 0.17196209E+03</rscale>
<asrwt>0</asrwt>
<pdfrwt beam="2">  1        2 0.26300535E-02 0.17196209E+03</pdfrwt>
<pdfrwt beam="1">  1       -2 0.66529484E-01 0.17196209E+03</pdfrwt>
<totfact> 0.76691822E+03</totfact>
</mgrwt>
</event>
<event>
 4    1  0.3704929E-001  0.3843617E+02  0.7818608E-02  0.1520045E+00
          2   -1    0    0  501    0  0.00000000000E+00  0.00000000000E+00  0.96243046446E+01  0.96243049958E+01  0.26000000000E-02 0.  1.
         -2   -1    0    0    0  501 -0.00000000000E+00 -0.00000000000E+00 -0.38375216412E+02  0.38375216500E+02  0.26000000000E-02 0. -1.
        -13    1    1    2    0    0  0.57296934106E+01 -0.15192999198E+02 -0.27212543225E+02  0.31688961681E+02  0.10570000000E+00 0. -1.
         13    1    1    2    0    0 -0.57296934106E+01  0.15192999198E+02 -0.15383685427E+01  0.16310559815E+02  0.10570000000E+00 0.  1.
<mgrwt>
<rscale>  0 0.38436170E+02</rscale>
<asrwt>0</asrwt>
<pdfrwt beam="1">  1        2 0.14806623E-02 0.38436170E+02</pdfrwt>
<pdfrwt beam="2">  1       -2 0.59038794E-02 0.38436170E+02</pdfrwt>
<totfact> 0.79361815E+05</totfact>
</mgrwt>
</event>
<event>
 4    1  0.3704929E-001  0.5437186E+02  0.7818608E-02  0.1423093E+00
          2   -1    0    0  501    0  0.00000000000E+00  0.00000000000E+00  0.23482541448E+02  0.23482541592E+02  0.26000000000E-02 0.  1.
         -2   -1    0    0    0  501 -0.00000000000E+00 -0.00000000000E+00 -0.31473369479E+02  0.31473369587E+02  0.26000000000E-02 0. -1.
        -13    1    1    2    0    0 -0.22427918193E+02  0.70006724267E+01  0.98278474265E+01  0.25467993373E+02  0.10570000000E+00 0.  1.
         13    1    1    2    0    0  0.22427918193E+02 -0.70006724267E+01 -0.17818675458E+02  0.29487917805E+02  0.10570000000E+00 0. -1.
<mgrwt>
<rscale>  0 0.54371857E+02</rscale>
<asrwt>0</asrwt>
<pdfrwt beam="1">  1        2 0.36126987E-02 0.54371857E+02</pdfrwt>
<pdfrwt beam="2">  1       -2 0.48420569E-02 0.54371857E+02</pdfrwt>
<totfact> 0.36106924E+05</totfact>
</mgrwt>
</event>
<event>
 4    1  0.3704929E-001  0.2380036E+02  0.7818608E-02  0.1678856E+00
          2   -1    0    0  501    0  0.00000000000E+00  0.00000000000E+00  0.82584961946E+02  0.82584961987E+02  0.26000000000E-02 0.  1.
         -2   -1    0    0    0  501 -0.00000000000E+00 -0.00000000000E+00 -0.17147699032E+01  0.17147718743E+01  0.26000000000E-02 0. -1.
        -13    1    1    2    0    0  0.10938283520E+02 -0.20595517611E+01  0.55343019753E+02  0.56451295891E+02  0.10570000000E+00 0.  1.
         13    1    1    2    0    0 -0.10938283520E+02  0.20595517611E+01  0.25527172289E+02  0.27848437970E+02  0.10570000000E+00 0. -1.
<mgrwt>
<rscale>  0 0.23800361E+02</rscale>
<asrwt>0</asrwt>
<pdfrwt beam="1">  1        2 0.12705378E-01 0.23800361E+02</pdfrwt>
<pdfrwt beam="2">  1       -2 0.26381093E-03 0.23800361E+02</pdfrwt>
<totfact> 0.34245218E+06</totfact>
</mgrwt>
</event>
<event>
 4    1  0.3704929E-001  0.3482190E+02  0.7818608E-02  0.1550188E+00
         -2   -1    0    0    0  501 -0.00000000000E+00  0.00000000000E+00  0.12976879428E+02  0.12976879689E+02  0.26000000000E-02 0. -1.
          2   -1    0    0  501    0  0.00000000000E+00 -0.00000000000E+00 -0.23360097414E+02  0.23360097559E+02  0.26000000000E-02 0.  1.
        -13    1    1    2    0    0 -0.65857748350E+01  0.13097900522E+02  0.46086367671E+01  0.15368088157E+02  0.10570000000E+00 0.  1.
         13    1    1    2    0    0  0.65857748350E+01 -0.13097900522E+02 -0.14991854753E+02  0.20968889090E+02  0.10570000000E+00 0. -1.
<mgrwt>
<rscale>  0 0.34821900E+02</rscale>
<asrwt>0</asrwt>
<pdfrwt beam="2">  1        2 0.35938612E-02 0.34821900E+02</pdfrwt>
<pdfrwt beam="1">  1       -2 0.19964430E-02 0.34821900E+02</pdfrwt>
<totfact> 0.11394640E+06</totfact>
</mgrwt>
</event>
<event>
 4    1  0.3704929E-001  0.2412812E+02  0.7818608E-02  0.1673850E+00
          2   -1    0    0  501    0  0.00000000000E+00  0.00000000000E+00  0.35453639562E+02  0.35453639657E+02  0.26000000000E-02 0.  1.
         -2   -1    0    0    0  501 -0.00000000000E+00 -0.00000000000E+00 -0.41051217526E+01  0.41051225759E+01  0.26000000000E-02 0. -1.
        -13    1    1    2    0    0 -0.38390351192E+01 -0.96662070379E+01  0.25695071249E+02  0.27720418614E+02  0.10570000000E+00 0.  1.
         13    1    1    2    0    0  0.38390351192E+01  0.96662070379E+01  0.56534465601E+01  0.11838343619E+02  0.10570000000E+00 0. -1.
<mgrwt>
<rscale>  0 0.24128118E+02</rscale>
<asrwt>0</asrwt>
<pdfrwt beam="1">  1        2 0.54544062E-02 0.24128118E+02</pdfrwt>
<pdfrwt beam="2">  1       -2 0.63155726E-03 0.24128118E+02</pdfrwt>
<totfact> 0.28850466E+06</totfact>
</mgrwt>
</event>
<event>
 4    1  0.3704929E-001  0.4681708E+02  0.7818608E-02  0.1463307E+00
          2   -1    0    0  501    0  0.00000000000E+00  0.00000000000E+00  0.23826285292E+02  0.23826285434E+02  0.26000000000E-02 0. -1.
         -2   -1    0    0    0  501 -0.00000000000E+00 -0.00000000000E+00 -0.22998121168E+02  0.22998121315E+02  0.26000000000E-02 0.  1.
        -13    1    1    2    0    0  0.12105713405E+02 -0.91675529137E+01  0.18231366141E+02  0.23727330388E+02  0.10570000000E+00 0. -1.
         13    1    1    2    0    0 -0.12105713405E+02  0.91675529137E+01 -0.17403202017E+02  0.23097076360E+02  0.10570000000E+00 0.  1.
<mgrwt>
<rscale>  0 0.46817082E+02</rscale>
<asrwt>0</asrwt>
<pdfrwt beam="1">  1        2 0.36655824E-02 0.46817082E+02</pdfrwt>
<pdfrwt beam="2">  1       -2 0.35381725E-02 0.46817082E+02</pdfrwt>
<totfact> 0.53794778E+05</totfact>
</mgrwt>
</event>
<event>
 4    1  0.3704929E-001  0.2214338E+02  0.7818608E-02  0.1705784E+00
          2   -1    0    0  501    0  0.00000000000E+00  0.00000000000E+00  0.39445296310E+01  0.39445304879E+01  0.26000000000E-02 0.  1.
         -2   -1    0    0    0  501 -0.00000000000E+00 -0.00000000000E+00 -0.31076524637E+02  0.31076524746E+02  0.26000000000E-02 0. -1.
        -13    1    1    2    0    0 -0.78783806567E+01 -0.76859684237E+01 -0.11675968917E+02  0.16046258599E+02  0.10570000000E+00 0.  1.
         13    1    1    2    0    0  0.78783806567E+01  0.76859684237E+01 -0.15456026089E+02  0.18974796635E+02  0.10570000000E+00 0. -1.
<mgrwt>
<rscale>  0 0.22143377E+02</rscale>
<asrwt>0</asrwt>
<pdfrwt beam="1">  1        2 0.60685081E-03 0.22143377E+02</pdfrwt>
<pdfrwt beam="2">  1       -2 0.47810037E-02 0.22143377E+02</pdfrwt>
<totfact> 0.28725702E+06</totfact>
</mgrwt>
</event>
<event>
 4    1  0.3704929E-001  0.4352930E+02  0.7818608E-02  0.1483737E+00
         -2   -1    0    0    0  501 -0.00000000000E+00  0.00000000000E+00  0.47821852096E+02  0.47821852167E+02  0.26000000000E-02 0.  1.
          2   -1    0    0  501    0  0.00000000000E+00 -0.00000000000E+00 -0.99055128592E+01  0.99055132005E+01  0.26000000000E-02 0. -1.
        -13    1    1    2    0    0 -0.44005057114E+01  0.10134348228E+02 -0.59095772345E+01  0.12530113332E+02  0.10570000000E+00 0. -1.
         13    1    1    2    0    0  0.44005057114E+01 -0.10134348228E+02  0.43825916471E+02  0.45197252036E+02  0.10570000000E+00 0.  1.
<mgrwt>
<rscale>  0 0.43529300E+02</rscale>
<asrwt>0</asrwt>
<pdfrwt beam="2">  1        2 0.15239251E-02 0.43529300E+02</pdfrwt>
<pdfrwt beam="1">  1       -2 0.73572082E-02 0.43529300E+02</pdfrwt>
<totfact> 0.57211288E+05</totfact>
</mgrwt>
</event>
<event>
 4    1  0.3704929E-001  0.5603085E+02  0.7818608E-02  0.1415286E+00
          2   -1    0    0  501    0  0.00000000000E+00  0.00000000000E+00  0.39224702994E+01  0.39224711611E+01  0.26000000000E-02 0.  1.
         -2   -1    0    0    0  501 -0.00000000000E+00 -0.00000000000E+00 -0.20009430036E+03  0.20009430037E+03  0.26000000000E-02 0. -1.
        -13    1    1    2    0    0 -0.68016231842E+01 -0.23502073691E+02 -0.48394768917E+02  0.54227985181E+02  0.10570000000E+00 0.  1.
         13    1    1    2    0    0  0.68016231842E+01  0.23502073691E+02 -0.14777706114E+03  0.14978878635E+03  0.10570000000E+00 0. -1.
<mgrwt>
<rscale>  0 0.56030850E+02</rscale>
<asrwt>0</asrwt>
<pdfrwt beam="1">  1        2 0.60345719E-03 0.56030850E+02</pdfrwt>
<pdfrwt beam="2">  1       -2 0.30783731E-01 0.56030850E+02</pdfrwt>
<totfact> 0.21277927E+05</totfact>
</mgrwt>
</event>
<event>
 4    1  0.3704929E-001  0.2014862E+02  0.7818608E-02  0.1742389E+00
          2   -1    0    0  501    0  0.00000000000E+00  0.00000000000E+00  0.10753642988E+02  0.10753643303E+02  0.26000000000E-02 0. -1.
         -2   -1    0    0    0  501 -0.00000000000E+00 -0.00000000000E+00 -0.94378947628E+01  0.94378951209E+01  0.26000000000E-02 0.  1.
        -13    1    1    2    0    0 -0.73314483146E+01  0.68242726381E+01 -0.42133825137E+00  0.10025444122E+02  0.10570000000E+00 0.  1.
         13    1    1    2    0    0  0.73314483146E+01 -0.68242726381E+01  0.17370864768E+01  0.10166094302E+02  0.10570000000E+00 0. -1.
<mgrwt>
<rscale>  0 0.20148624E+02</rscale>
<asrwt>0</asrwt>
<pdfrwt beam="1">  1        2 0.16544067E-02 0.20148624E+02</pdfrwt>
<pdfrwt beam="2">  1       -2 0.14519839E-02 0.20148624E+02</pdfrwt>
<totfact> 0.39009835E+06</totfact>
</mgrwt>
</event>
<event>
 4    1  0.3704929E-001  0.4391861E+02  0.7818608E-02  0.1481208E+00
          2   -1    0    0  501    0  0.00000000000E+00  0.00000000000E+00  0.46213981559E+02  0.46213981632E+02  0.26000000000E-02 0.  1.
         -2   -1    0    0    0  501 -0.00000000000E+00 -0.00000000000E+00 -0.10434313452E+02  0.10434313776E+02  0.26000000000E-02 0. -1.
        -13    1    1    2    0    0 -0.92288858593E+01  0.18866430740E+02  0.96221796067E+01  0.23102208897E+02  0.10570000000E+00 0. -1.
         13    1    1    2    0    0  0.92288858593E+01 -0.18866430740E+02  0.26157488501E+02  0.33546086511E+02  0.10570000000E+00 0.  1.
<mgrwt>
<rscale>  0 0.43918615E+02</rscale>
<asrwt>0</asrwt>
<pdfrwt beam="1">  1        2 0.71098436E-02 0.43918615E+02</pdfrwt>
<pdfrwt beam="2">  1       -2 0.16052790E-02 0.43918615E+02</pdfrwt>
<totfact> 0.70396931E+05</totfact>
</mgrwt>
</event>
<event>
 4    1  0.3704929E-001  0.2385042E+02  0.7818608E-02  0.1678085E+00
         -2   -1    0    0    0  501 -0.00000000000E+00  0.00000000000E+00  0.75902199245E+02  0.75902199290E+02  0.26000000000E-02 0. -1.
          2   -1    0    0  501    0  0.00000000000E+00 -0.00000000000E+00 -0.18736020415E+01  0.18736038455E+01  0.26000000000E-02 0.  1.
        -13    1    1    2    0    0  0.71771464776E+01  0.89360563232E+01  0.26280322839E+02  0.28671084304E+02  0.10570000000E+00 0.  1.
         13    1    1    2    0    0 -0.71771464776E+01 -0.89360563232E+01  0.47748274365E+02  0.49104718831E+02  0.10570000000E+00 0. -1.
<mgrwt>
<rscale>  0 0.23850416E+02</rscale>
<asrwt>0</asrwt>
<pdfrwt beam="2">  1        2 0.28824667E-03 0.23850416E+02</pdfrwt>
<pdfrwt beam="1">  1       -2 0.11677259E-01 0.23850416E+02</pdfrwt>
<totfact> 0.21386248E+06</totfact>
</mgrwt>
</event>
<event>
 4    1  0.3704929E-001  0.2633974E+02  0.7818608E-02  0.1642472E+00
          2   -1    0    0  501    0  0.00000000000E+00  0.00000000000E+00  0.15936476138E+01  0.15936497347E+01  0.26000000000E-02 0. -1.
         -2   -1    0    0    0  501 -0.00000000000E+00 -0.00000000000E+00 -0.10883542819E+03  0.10883542823E+03  0.26000000000E-02 0.  1.
        -13    1    1    2    0    0  0.11532546436E+02  0.58312015765E+01 -0.42988379535E+02  0.44888912736E+02  0.10570000000E+00 0. -1.
         13    1    1    2    0    0 -0.11532546436E+02 -0.58312015765E+01 -0.64253401046E+02  0.65540165224E+02  0.10570000000E+00 0.  1.
<mgrwt>
<rscale>  0 0.26339737E+02</rscale>
<asrwt>0</asrwt>
<pdfrwt beam="1">  1        2 0.24517681E-03 0.26339737E+02</pdfrwt>
<pdfrwt beam="2">  1       -2 0.16743906E-01 0.26339737E+02</pdfrwt>
<totfact> 0.15748482E+06</totfact>
</mgrwt>
</event>
<event>
 4    1  0.3704929E-001  0.3324060E+02  0.7818608E-02  0.1564803E+00
          2   -1    0    0  501    0  0.00000000000E+00  0.00000000000E+00  0.33999901966E+01  0.33999911907E+01  0.26000000000E-02 0.  1.
         -2   -1    0    0    0  501 -0.00000000000E+00 -0.00000000000E+00 -0.81245620534E+02  0.81245620575E+02  0.26000000000E-02 0. -1.
        -13    1    1    2    0    0  0.58276937921E+01  0.11793877335E+02 -0.64787257379E+02  0.66109435399E+02  0.10570000000E+00 0. -1.
         13    1    1    2    0    0 -0.58276937921E+01 -0.11793877335E+02 -0.13058372958E+02  0.18536176367E+02  0.10570000000E+00 0.  1.
<mgrwt>
<rscale>  0 0.33240599E+02</rscale>
<asrwt>0</asrwt>
<pdfrwt beam="1">  1        2 0.52307555E-03 0.33240599E+02</pdfrwt>
<pdfrwt beam="2">  1       -2 0.12499325E-01 0.33240599E+02</pdfrwt>
<totfact> 0.98398048E+05</totfact>
</mgrwt>
</event>
<event>
 4    1  0.3704929E-001  0.3964984E+02  0.7818608E-02  0.1510804E+00
          2   -1    0    0  501    0  0.00000000000E+00  0.00000000000E+00  0.13833818689E+03  0.13833818692E+03  0.26000000000E-02 0. -1.
         -2   -1    0    0    0  501 -0.00000000000E+00 -0.00000000000E+00 -0.28410615052E+01  0.28410626949E+01  0.26000000000E-02 0.  1.
        -13    1    1    2    0    0 -0.92467216033E+01  0.17224918934E+02  0.79459002535E+02  0.81828747694E+02  0.10570000000E+00 0. -1.
         13    1    1    2    0    0  0.92467216033E+01 -0.17224918934E+02  0.56038122851E+02  0.59350501918E+02  0.10570000000E+00 0.  1.
<mgrwt>
<rscale>  0 0.39649836E+02</rscale>
<asrwt>0</asrwt>
<pdfrwt beam="1">  1        2 0.21282802E-01 0.39649836E+02</pdfrwt>
<pdfrwt beam="2">  1       -2 0.43708641E-03 0.39649836E+02</pdfrwt>
<totfact> 0.11651338E+06</totfact>
</mgrwt>
</event>
<event>
 4    1  0.3704929E-001  0.2574199E+02  0.7818608E-02  0.1650568E+00
         -2   -1    0    0    0  501 -0.00000000000E+00  0.00000000000E+00  0.71613107952E+01  0.71613112672E+01  0.26000000000E-02 0. -1.
          2   -1    0    0  501    0  0.00000000000E+00 -0.00000000000E+00 -0.23132991486E+02  0.23132991632E+02  0.26000000000E-02 0.  1.
        -13    1    1    2    0    0  0.70623134536E+01  0.82338286790E+01  0.16580303965E+00  0.10849464004E+02  0.10570000000E+00 0. -1.
         13    1    1    2    0    0 -0.70623134536E+01 -0.82338286790E+01 -0.16137483731E+02  0.19444838896E+02  0.10570000000E+00 0.  1.
<mgrwt>
<rscale>  0 0.25741993E+02</rscale>
<asrwt>0</asrwt>
<pdfrwt beam="2">  1        2 0.35589218E-02 0.25741993E+02</pdfrwt>
<pdfrwt beam="1">  1       -2 0.11017402E-02 0.25741993E+02</pdfrwt>
<totfact> 0.23618006E+06</totfact>
</mgrwt>
</event>
<event>
 4    1  0.3704929E-001  0.2250332E+02  0.7818608E-02  0.1699690E+00
         -2   -1    0    0    0  501 -0.00000000000E+00  0.00000000000E+00  0.13139074766E+01  0.13139100491E+01  0.26000000000E-02 0.  1.
          2   -1    0    0  501    0  0.00000000000E+00 -0.00000000000E+00 -0.96353571130E+02  0.96353571165E+02  0.26000000000E-02 0. -1.
        -13    1    1    2    0    0 -0.87081405247E+01  0.70932338804E+01 -0.44631262303E+02  0.46022890234E+02  0.10570000000E+00 0.  1.
         13    1    1    2    0    0  0.87081405247E+01 -0.70932338804E+01 -0.50408401350E+02  0.51644590980E+02  0.10570000000E+00 0. -1.
<mgrwt>
<rscale>  0 0.22503316E+02</rscale>
<asrwt>0</asrwt>
<pdfrwt beam="2">  1        2 0.14823621E-01 0.22503316E+02</pdfrwt>
<pdfrwt beam="1">  1       -2 0.20213989E-03 0.22503316E+02</pdfrwt>
<totfact> 0.40215727E+06</totfact>
</mgrwt>
</event>
<event>
 4    1  0.3704929E-001  0.2133208E+02  0.7818608E-02  0.1720066E+00
          2   -1    0    0  501    0  0.00000000000E+00  0.00000000000E+00  0.83066628925E+02  0.83066628966E+02  0.26000000000E-02 0. -1.
         -2   -1    0    0    0  501 -0.00000000000E+00 -0.00000000000E+00 -0.13695547352E+01  0.13695572031E+01  0.26000000000E-02 0.  1.
        -13    1    1    2    0    0 -0.38996703205E+01 -0.95983342635E+01  0.30821149432E+02  0.32515994127E+02  0.10570000000E+00 0. -1.
         13    1    1    2    0    0  0.38996703205E+01  0.95983342635E+01  0.50875924758E+02  0.51920192042E+02  0.10570000000E+00 0.  1.
<mgrwt>
<rscale>  0 0.21332079E+02</rscale>
<asrwt>0</asrwt>
<pdfrwt beam="1">  1        2 0.12779484E-01 0.21332079E+02</pdfrwt>
<pdfrwt beam="2">  1       -2 0.21070089E-03 0.21332079E+02</pdfrwt>
<totfact> 0.43909517E+06</totfact>
</mgrwt>
</event>
<event>
 4    1  0.3704929E-001  0.3866807E+02  0.7818608E-02  0.1518248E+00
          2   -1    0    0  501    0  0.00000000000E+00  0.00000000000E+00  0.80795635914E+02  0.80795635956E+02  0.26000000000E-02 0.  1.
         -2   -1    0    0    0  501 -0.00000000000E+00 -0.00000000000E+00 -0.46265467802E+01  0.46265475108E+01  0.26000000000E-02 0. -1.
        -13    1    1    2    0    0 -0.91852370606E+01  0.14722172242E+02  0.19250925089E+02  0.25917565947E+02  0.10570000000E+00 0. -1.
         13    1    1    2    0    0  0.91852370606E+01 -0.14722172242E+02  0.56918164045E+02  0.59504617519E+02  0.10570000000E+00 0.  1.
<mgrwt>
<rscale>  0 0.38668065E+02</rscale>
<asrwt>0</asrwt>
<pdfrwt beam="1">  1        2 0.12430097E-01 0.38668065E+02</pdfrwt>
<pdfrwt beam="2">  1       -2 0.71177652E-03 0.38668065E+02</pdfrwt>
<totfact> 0.10793885E+06</totfact>
</mgrwt>
</event>
<event>
 4    1  0.3704929E-001  0.7648818E+02  0.7818608E-02  0.1339324E+00
          2   -1    0    0  501    0  0.00000000000E+00  0.00000000000E+00  0.21160467190E+02  0.21160467350E+02  0.26000000000E-02 0. -1.
         -2   -1    0    0    0  501 -0.00000000000E+00 -0.00000000000E+00 -0.69119940600E+02  0.69119940648E+02  0.26000000000E-02 0.  1.
        -13    1    1    2    0    0  0.30139376689E+02 -0.12014530759E+02 -0.83953534897E-01  0.32446096795E+02  0.10570000000E+00 0. -1.
         13    1    1    2    0    0 -0.30139376689E+02  0.12014530759E+02 -0.47875519875E+02  0.57834311203E+02  0.10570000000E+00 0.  1.
<mgrwt>
<rscale>  0 0.76488175E+02</rscale>
<asrwt>0</asrwt>
<pdfrwt beam="1">  1        2 0.32554566E-02 0.76488175E+02</pdfrwt>
<pdfrwt beam="2">  1       -2 0.10633837E-01 0.76488175E+02</pdfrwt>
<totfact> 0.13593217E+05</totfact>
</mgrwt>
</event>
<event>
 4    1  0.3704929E-001  0.3432761E+02  0.7818608E-02  0.1554654E+00
          2   -1    0    0  501    0  0.00000000000E+00  0.00000000000E+00  0.12039874655E+02  0.12039874935E+02  0.26000000000E-02 0. -1.
         -2   -1    0    0    0  501 -0.00000000000E+00 -0.00000000000E+00 -0.24468380883E+02  0.24468381021E+02  0.26000000000E-02 0.  1.
        -13    1    1    2    0    0 -0.15538472684E+02 -0.70356252751E+01 -0.41849220054E+01  0.17563282753E+02  0.10570000000E+00 0.  1.
         13    1    1    2    0    0  0.15538472684E+02  0.70356252751E+01 -0.82435842231E+01  0.18944973204E+02  0.10570000000E+00 0. -1.
<mgrwt>
<rscale>  0 0.34327613E+02</rscale>
<asrwt>0</asrwt>
<pdfrwt beam="1">  1        2 0.18522884E-02 0.34327613E+02</pdfrwt>
<pdfrwt beam="2">  1       -2 0.37643663E-02 0.34327613E+02</pdfrwt>
<totfact> 0.10931252E+06</totfact>
</mgrwt>
</event>
<event>
 4    1  0.3704929E-001  0.7189233E+02  0.7818608E-02  0.1353774E+00
         -2   -1    0    0    0  501 -0.00000000000E+00  0.00000000000E+00  0.45171162743E+02  0.45171162818E+02  0.26000000000E-02 0.  1.
          2   -1    0    0  501    0  0.00000000000E+00 -0.00000000000E+00 -0.28605126775E+02  0.28605126893E+02  0.26000000000E-02 0. -1.
        -13    1    1    2    0    0  0.11113337766E+02 -0.32601862921E+02 -0.22688440276E+01  0.34518785725E+02  0.10570000000E+00 0. -1.
         13    1    1    2    0    0 -0.11113337766E+02  0.32601862921E+02  0.18834879996E+02  0.39257503986E+02  0.10570000000E+00 0.  1.
<mgrwt>
<rscale>  0 0.71892332E+02</rscale>
<asrwt>0</asrwt>
<pdfrwt beam="2">  1        2 0.44007888E-02 0.71892332E+02</pdfrwt>
<pdfrwt beam="1">  1       -2 0.69494096E-02 0.71892332E+02</pdfrwt>
<totfact> 0.17378196E+05</totfact>
</mgrwt>
</event>
<event>
 4    1  0.3704929E-001  0.7497654E+02  0.7818608E-02  0.1343944E+00
          2   -1    0    0  501    0  0.00000000000E+00  0.00000000000E+00  0.21266016359E+02  0.21266016518E+02  0.26000000000E-02 0. -1.
         -2   -1    0    0    0  501 -0.00000000000E+00 -0.00000000000E+00 -0.66085263058E+02  0.66085263109E+02  0.26000000000E-02 0.  1.
        -13    1    1    2    0    0 -0.50216048592E+01 -0.36900442841E+02 -0.27420674917E+02  0.46246770510E+02  0.10570000000E+00 0. -1.
         13    1    1    2    0    0  0.50216048592E+01  0.36900442841E+02 -0.17398571782E+02  0.41104509117E+02  0.10570000000E+00 0.  1.
<mgrwt>
<rscale>  0 0.74976538E+02</rscale>
<asrwt>0</asrwt>
<pdfrwt beam="1">  1        2 0.32716949E-02 0.74976538E+02</pdfrwt>
<pdfrwt beam="2">  1       -2 0.10166963E-01 0.74976538E+02</pdfrwt>
<totfact> 0.14426671E+05</totfact>
</mgrwt>
</event>
<event>
 4    1  0.3704929E-001  0.3490113E+02  0.7818608E-02  0.1549480E+00
         -2   -1    0    0    0  501 -0.00000000000E+00  0.00000000000E+00  0.13035314728E+02  0.13035314987E+02  0.26000000000E-02 0. -1.
          2   -1    0    0  501    0  0.00000000000E+00 -0.00000000000E+00 -0.23361318266E+02  0.23361318411E+02  0.26000000000E-02 0.  1.
        -13    1    1    2    0    0 -0.10014014743E+02 -0.93617859655E+01  0.60972387901E+01  0.15003700247E+02  0.10570000000E+00 0. -1.
         13    1    1    2    0    0  0.10014014743E+02  0.93617859655E+01 -0.16423242329E+02  0.21392933151E+02  0.10570000000E+00 0.  1.
<mgrwt>
<rscale>  0 0.34901126E+02</rscale>
<asrwt>0</asrwt>
<pdfrwt beam="2">  1        2 0.35940490E-02 0.34901126E+02</pdfrwt>
<pdfrwt beam="1">  1       -2 0.20054331E-02 0.34901126E+02</pdfrwt>
<totfact> 0.11330749E+06</totfact>
</mgrwt>
</event>
<event>
 4    1  0.3704929E-001  0.2175213E+02  0.7818608E-02  0.1712574E+00
         -2   -1    0    0    0  501 -0.00000000000E+00  0.00000000000E+00  0.60804132054E+01  0.60804137613E+01  0.26000000000E-02 0. -1.
          2   -1    0    0  501    0  0.00000000000E+00 -0.00000000000E+00 -0.19454076265E+02  0.19454076439E+02  0.26000000000E-02 0.  1.
        -13    1    1    2    0    0  0.91079319779E+01  0.47355444750E+01 -0.10902670661E+02  0.14975286522E+02  0.10570000000E+00 0.  1.
         13    1    1    2    0    0 -0.91079319779E+01 -0.47355444750E+01 -0.24709923987E+01  0.10559203678E+02  0.10570000000E+00 0. -1.
<mgrwt>
<rscale>  0 0.21752134E+02</rscale>
<asrwt>0</asrwt>
<pdfrwt beam="2">  1        2 0.29929348E-02 0.21752134E+02</pdfrwt>
<pdfrwt beam="1">  1       -2 0.93544825E-03 0.21752134E+02</pdfrwt>
<totfact> 0.34344088E+06</totfact>
</mgrwt>
</event>
<event>
 4    1  0.3704929E-001  0.3544170E+02  0.7818608E-02  0.1544713E+00
          2   -1    0    0  501    0  0.00000000000E+00  0.00000000000E+00  0.20401201915E+02  0.20401202081E+02  0.26000000000E-02 0. -1.
         -2   -1    0    0    0  501 -0.00000000000E+00 -0.00000000000E+00 -0.15392651037E+02  0.15392651257E+02  0.26000000000E-02 0.  1.
        -13    1    1    2    0    0 -0.11782625437E+02  0.51966593548E+01 -0.97896740181E+01  0.16176662836E+02  0.10570000000E+00 0.  1.
         13    1    1    2    0    0  0.11782625437E+02 -0.51966593548E+01  0.14798224896E+02  0.19617190502E+02  0.10570000000E+00 0. -1.
<mgrwt>
<rscale>  0 0.35441704E+02</rscale>
<asrwt>0</asrwt>
<pdfrwt beam="1">  1        2 0.31386465E-02 0.35441704E+02</pdfrwt>
<pdfrwt beam="2">  1       -2 0.23681002E-02 0.35441704E+02</pdfrwt>
<totfact> 0.10728811E+06</totfact>
</mgrwt>
</event>
<event>
 4    1  0.3704929E-001  0.2541364E+02  0.7818608E-02  0.1655131E+00
         -2   -1    0    0    0  501 -0.00000000000E+00  0.00000000000E+00  0.49913509431E+02  0.49913509498E+02  0.26000000000E-02 0. -1.
          2   -1    0    0  501    0  0.00000000000E+00 -0.00000000000E+00 -0.32348607576E+01  0.32348618025E+01  0.26000000000E-02 0.  1.
        -13    1    1    2    0    0 -0.12256450225E+02 -0.17753022262E+01  0.17394699476E+02  0.21353196774E+02  0.10570000000E+00 0. -1.
         13    1    1    2    0    0  0.12256450225E+02  0.17753022262E+01  0.29283949197E+02  0.31795174526E+02  0.10570000000E+00 0.  1.
<mgrwt>
<rscale>  0 0.25413641E+02</rscale>
<asrwt>0</asrwt>
<pdfrwt beam="2">  1        2 0.49767097E-03 0.25413641E+02</pdfrwt>
<pdfrwt beam="1">  1       -2 0.76790016E-02 0.25413641E+02</pdfrwt>
<totfact> 0.19894670E+06</totfact>
</mgrwt>
</event>
<event>
 4    1  0.3704929E-001  0.2191329E+02  0.7818608E-02  0.1709756E+00
         -2   -1    0    0    0  501 -0.00000000000E+00  0.00000000000E+00  0.21044688990E+01  0.21044705051E+01  0.26000000000E-02 0.  1.
          2   -1    0    0  501    0  0.00000000000E+00 -0.00000000000E+00 -0.57044311026E+02  0.57044311085E+02  0.26000000000E-02 0. -1.
        -13    1    1    2    0    0 -0.40540540971E+01 -0.10176232772E+02 -0.28047498233E+02  0.30110868431E+02  0.10570000000E+00 0. -1.
         13    1    1    2    0    0  0.40540540971E+01  0.10176232772E+02 -0.26892343894E+02  0.29037913159E+02  0.10570000000E+00 0.  1.
<mgrwt>
<rscale>  0 0.21913286E+02</rscale>
<asrwt>0</asrwt>
<pdfrwt beam="2">  1        2 0.87760468E-02 0.21913286E+02</pdfrwt>
<pdfrwt beam="1">  1       -2 0.32376462E-03 0.21913286E+02</pdfrwt>
<totfact> 0.38534129E+06</totfact>
</mgrwt>
</event>
<event>
 4    1  0.3704929E-001  0.2601779E+02  0.7818608E-02  0.1646799E+00
         -2   -1    0    0    0  501 -0.00000000000E+00  0.00000000000E+00  0.36391074548E+01  0.36391083836E+01  0.26000000000E-02 0.  1.
          2   -1    0    0  501    0  0.00000000000E+00 -0.00000000000E+00 -0.46503508232E+02  0.46503508305E+02  0.26000000000E-02 0. -1.
        -13    1    1    2    0    0 -0.20188369407E+01 -0.10437788870E+02 -0.35879715076E+02  0.37421761925E+02  0.10570000000E+00 0. -1.
         13    1    1    2    0    0  0.20188369407E+01  0.10437788870E+02 -0.69846857007E+01  0.12720854763E+02  0.10570000000E+00 0.  1.
<mgrwt>
<rscale>  0 0.26017785E+02</rscale>
<asrwt>0</asrwt>
<pdfrwt beam="2">  1        2 0.71543856E-02 0.26017785E+02</pdfrwt>
<pdfrwt beam="1">  1       -2 0.55986279E-03 0.26017785E+02</pdfrwt>
<totfact> 0.25146772E+06</totfact>
</mgrwt>
</event>
<event>
 4    1  0.3704929E-001  0.3262154E+02  0.7818608E-02  0.1570796E+00
         -2   -1    0    0    0  501 -0.00000000000E+00  0.00000000000E+00  0.22296786635E+01  0.22296801794E+01  0.26000000000E-02 0.  1.
          2   -1    0    0  501    0  0.00000000000E+00 -0.00000000000E+00 -0.11931816957E+03  0.11931816960E+03  0.26000000000E-02 0. -1.
        -13    1    1    2    0    0  0.14976966863E+02 -0.63474934451E+01 -0.54088771524E+02  0.56481913803E+02  0.10570000000E+00 0. -1.
         13    1    1    2    0    0 -0.14976966863E+02  0.63474934451E+01 -0.62999719383E+02  0.65065935975E+02  0.10570000000E+00 0.  1.
<mgrwt>
<rscale>  0 0.32621543E+02</rscale>
<asrwt>0</asrwt>
<pdfrwt beam="2">  1        2 0.18356637E-01 0.32621543E+02</pdfrwt>
<pdfrwt beam="1">  1       -2 0.34302770E-03 0.32621543E+02</pdfrwt>
<totfact> 0.17910121E+06</totfact>
</mgrwt>
</event>
<event>
 4    1  0.3704929E-001  0.3577554E+02  0.7818608E-02  0.1541819E+00
          2   -1    0    0  501    0  0.00000000000E+00  0.00000000000E+00  0.84942379515E+01  0.84942383494E+01  0.26000000000E-02 0. -1.
         -2   -1    0    0    0  501 -0.00000000000E+00 -0.00000000000E+00 -0.37669331210E+02  0.37669331299E+02  0.26000000000E-02 0.  1.
        -13    1    1    2    0    0 -0.13177618829E+02 -0.12092727571E+02 -0.14228547545E+02  0.22854899602E+02  0.10570000000E+00 0. -1.
         13    1    1    2    0    0  0.13177618829E+02  0.12092727571E+02 -0.14946545713E+02  0.23308670047E+02  0.10570000000E+00 0.  1.
<mgrwt>
<rscale>  0 0.35775538E+02</rscale>
<asrwt>0</asrwt>
<pdfrwt beam="1">  1        2 0.13068059E-02 0.35775538E+02</pdfrwt>
<pdfrwt beam="2">  1       -2 0.57952817E-02 0.35775538E+02</pdfrwt>
<totfact> 0.94127731E+05</totfact>
</mgrwt>
</event>
<event>
 4    1  0.3704929E-001  0.2693262E+02  0.7818608E-02  0.1634700E+00
          2   -1    0    0  501    0  0.00000000000E+00  0.00000000000E+00  0.48061137482E+01  0.48061144514E+01  0.26000000000E-02 0. -1.
         -2   -1    0    0    0  501 -0.00000000000E+00 -0.00000000000E+00 -0.37731415618E+02  0.37731415707E+02  0.26000000000E-02 0.  1.
        -13    1    1    2    0    0  0.67283305828E+01  0.10857388657E+02 -0.97289353106E+01  0.16056670752E+02  0.10570000000E+00 0.  1.
         13    1    1    2    0    0 -0.67283305828E+01 -0.10857388657E+02 -0.23196366559E+02  0.26480859406E+02  0.10570000000E+00 0. -1.
<mgrwt>
<rscale>  0 0.26932619E+02</rscale>
<asrwt>0</asrwt>
<pdfrwt beam="1">  1        2 0.73940220E-03 0.26932619E+02</pdfrwt>
<pdfrwt beam="2">  1       -2 0.58048330E-02 0.26932619E+02</pdfrwt>
<totfact> 0.18106135E+06</totfact>
</mgrwt>
</event>
<event>
 4    1  0.3704929E-001  0.2444824E+02  0.7818608E-02  0.1669056E+00
         -2   -1    0    0    0  501 -0.00000000000E+00  0.00000000000E+00  0.17969754474E+01  0.17969773283E+01  0.26000000000E-02 0.  1.
          2   -1    0    0  501    0  0.00000000000E+00 -0.00000000000E+00 -0.83155878825E+02  0.83155878866E+02  0.26000000000E-02 0. -1.
        -13    1    1    2    0    0 -0.10786360437E+02  0.55053300186E+01 -0.46456151817E+02  0.48008743414E+02  0.10570000000E+00 0. -1.
         13    1    1    2    0    0  0.10786360437E+02 -0.55053300186E+01 -0.34902751561E+02  0.36944112780E+02  0.10570000000E+00 0.  1.
<mgrwt>
<rscale>  0 0.24448244E+02</rscale>
<asrwt>0</asrwt>
<pdfrwt beam="2">  1        2 0.12793209E-01 0.24448244E+02</pdfrwt>
<pdfrwt beam="1">  1       -2 0.27645797E-03 0.24448244E+02</pdfrwt>
<totfact> 0.32253954E+06</totfact>
</mgrwt>
</event>
<event>
 4    1  0.3704929E-001  0.2852530E+03  0.7818608E-02  0.1092854E+00
         -2   -1    0    0    0  501 -0.00000000000E+00  0.00000000000E+00  0.53588382253E+02  0.53588382316E+02  0.26000000000E-02 0. -1.
          2   -1    0    0  501    0  0.00000000000E+00 -0.00000000000E+00 -0.37960325970E+03  0.37960325971E+03  0.26000000000E-02 0.  1.
        -13    1    1    2    0    0  0.46279087946E+02 -0.94166240219E+02 -0.30971986494E+03  0.32700984800E+03  0.10570000000E+00 0.  1.
         13    1    1    2    0    0 -0.46279087946E+02  0.94166240219E+02 -0.16295012512E+02  0.10618179403E+03  0.10570000000E+00 0. -1.
<mgrwt>
<rscale>  0 0.28525304E+03</rscale>
<asrwt>0</asrwt>
<pdfrwt beam="2">  1        2 0.58400500E-01 0.28525304E+03</pdfrwt>
<pdfrwt beam="1">  1       -2 0.82443667E-02 0.28525304E+03</pdfrwt>
<totfact> 0.75882239E+03</totfact>
</mgrwt>
</event>
<event>
 4    1  0.3704929E-001  0.2296504E+02  0.7818608E-02  0.1692077E+00
         -2   -1    0    0    0  501 -0.00000000000E+00  0.00000000000E+00  0.99416429798E+01  0.99416433197E+01  0.26000000000E-02 0.  1.
          2   -1    0    0  501    0  0.00000000000E+00 -0.00000000000E+00 -0.13262221053E+02  0.13262221308E+02  0.26000000000E-02 0. -1.
        -13    1    1    2    0    0 -0.47252160210E+01 -0.88171238882E+01  0.40346149663E+01  0.10786965770E+02  0.10570000000E+00 0.  1.
         13    1    1    2    0    0  0.47252160210E+01  0.88171238882E+01 -0.73551930398E+01  0.12416898858E+02  0.10570000000E+00 0. -1.
<mgrwt>
<rscale>  0 0.22965041E+02</rscale>
<asrwt>0</asrwt>
<pdfrwt beam="2">  1        2 0.20403417E-02 0.22965041E+02</pdfrwt>
<pdfrwt beam="1">  1       -2 0.15294836E-02 0.22965041E+02</pdfrwt>
<totfact> 0.29311467E+06</totfact>
</mgrwt>
</event>
<event>
 4    1  0.3704929E-001  0.4116681E+02  0.7818608E-02  0.1499796E+00
          2   -1    0    0  501    0  0.00000000000E+00  0.00000000000E+00  0.15667280238E+02  0.15667280454E+02  0.26000000000E-02 0. -1.
         -2   -1    0    0    0  501 -0.00000000000E+00 -0.00000000000E+00 -0.27042125468E+02  0.27042125593E+02  0.26000000000E-02 0.  1.
        -13    1    1    2    0    0 -0.96162154749E+01  0.67768542875E+01 -0.23210197149E+02  0.26021563717E+02  0.10570000000E+00 0.  1.
         13    1    1    2    0    0  0.96162154749E+01 -0.67768542875E+01  0.11835351919E+02  0.16687842330E+02  0.10570000000E+00 0. -1.
<mgrwt>
<rscale>  0 0.41166810E+02</rscale>
<asrwt>0</asrwt>
<pdfrwt beam="1">  1        2 0.24103508E-02 0.41166810E+02</pdfrwt>
<pdfrwt beam="2">  1       -2 0.41603270E-02 0.41166810E+02</pdfrwt>
<totfact> 0.70890229E+05</totfact>
</mgrwt>
</event>
<event>
 4    1  0.3704929E-001  0.2427277E+02  0.7818608E-02  0.1671672E+00
          2   -1    0    0  501    0  0.00000000000E+00  0.00000000000E+00  0.17722051720E+01  0.17722070792E+01  0.26000000000E-02 0.  1.
         -2   -1    0    0    0  501 -0.00000000000E+00 -0.00000000000E+00 -0.83112147677E+02  0.83112147718E+02  0.26000000000E-02 0. -1.
        -13    1    1    2    0    0  0.69440299829E+01  0.91816838065E+01 -0.54104404832E+02  0.55315645749E+02  0.10570000000E+00 0.  1.
         13    1    1    2    0    0 -0.69440299829E+01 -0.91816838065E+01 -0.27235537674E+02  0.29568709049E+02  0.10570000000E+00 0. -1.
<mgrwt>
<rscale>  0 0.24272772E+02</rscale>
<asrwt>0</asrwt>
<pdfrwt beam="1">  1        2 0.27264716E-03 0.24272772E+02</pdfrwt>
<pdfrwt beam="2">  1       -2 0.12786481E-01 0.24272772E+02</pdfrwt>
<totfact> 0.20183623E+06</totfact>
</mgrwt>
</event>
<event>
 4    1  0.3704929E-001  0.3852526E+02  0.7818608E-02  0.1519353E+00
          2   -1    0    0  501    0  0.00000000000E+00  0.00000000000E+00  0.51417458844E+01  0.51417465418E+01  0.26000000000E-02 0.  1.
         -2   -1    0    0    0  501 -0.00000000000E+00 -0.00000000000E+00 -0.72164001280E+02  0.72164001326E+02  0.26000000000E-02 0. -1.
        -13    1    1    2    0    0 -0.15435531171E+02  0.46877440281E+01 -0.12388388102E+02  0.20339958183E+02  0.10570000000E+00 0.  1.
         13    1    1    2    0    0  0.15435531171E+02 -0.46877440281E+01 -0.54633867293E+02  0.56965789685E+02  0.10570000000E+00 0. -1.
<mgrwt>
<rscale>  0 0.38525264E+02</rscale>
<asrwt>0</asrwt>
<pdfrwt beam="1">  1        2 0.79103794E-03 0.38525264E+02</pdfrwt>
<pdfrwt beam="2">  1       -2 0.11102153E-01 0.38525264E+02</pdfrwt>
<totfact> 0.71135188E+05</totfact>
</mgrwt>
</event>
<event>
 4    1  0.3704929E-001  0.2391560E+02  0.7818608E-02  0.1677084E+00
         -2   -1    0    0    0  501 -0.00000000000E+00  0.00000000000E+00  0.27295312367E+01  0.27295324750E+01  0.26000000000E-02 0.  1.
          2   -1    0    0  501    0  0.00000000000E+00 -0.00000000000E+00 -0.52385915008E+02  0.52385915073E+02  0.26000000000E-02 0. -1.
        -13    1    1    2    0    0  0.96110560556E+01 -0.37859007050E+01 -0.38707895920E+02  0.40062673671E+02  0.10570000000E+00 0. -1.
         13    1    1    2    0    0 -0.96110560556E+01  0.37859007050E+01 -0.10948487852E+02  0.15052773877E+02  0.10570000000E+00 0.  1.
<mgrwt>
<rscale>  0 0.23915604E+02</rscale>
<asrwt>0</asrwt>
<pdfrwt beam="2">  1        2 0.80593708E-02 0.23915604E+02</pdfrwt>
<pdfrwt beam="1">  1       -2 0.41992802E-03 0.23915604E+02</pdfrwt>
<totfact> 0.31137273E+06</totfact>
</mgrwt>
</event>
<event>
 4    1  0.3704929E-001  0.3943593E+02  0.7818608E-02  0.1512404E+00
          2   -1    0    0  501    0  0.00000000000E+00  0.00000000000E+00  0.17762080657E+02  0.17762080848E+02  0.26000000000E-02 0. -1.
         -2   -1    0    0    0  501 -0.00000000000E+00 -0.00000000000E+00 -0.21889219828E+02  0.21889219982E+02  0.26000000000E-02 0.  1.
        -13    1    1    2    0    0  0.18557379718E+01 -0.16117247519E+02 -0.13330906519E+02  0.20998420706E+02  0.10570000000E+00 0.  1.
         13    1    1    2    0    0 -0.18557379718E+01  0.16117247519E+02  0.92037673489E+01  0.18652880124E+02  0.10570000000E+00 0. -1.
<mgrwt>
<rscale>  0 0.39435928E+02</rscale>
<asrwt>0</asrwt>
<pdfrwt beam="1">  1        2 0.27326278E-02 0.39435928E+02</pdfrwt>
<pdfrwt beam="2">  1       -2 0.33675723E-02 0.39435928E+02</pdfrwt>
<totfact> 0.80500526E+05</totfact>
</mgrwt>
</event>
<event>
 4    1  0.3704929E-001  0.2303306E+02  0.7818608E-02  0.1690975E+00
         -2   -1    0    0    0  501 -0.00000000000E+00  0.00000000000E+00  0.33590211405E+02  0.33590211505E+02  0.26000000000E-02 0.  1.
          2   -1    0    0  501    0  0.00000000000E+00 -0.00000000000E+00 -0.39484849798E+01  0.39484858358E+01  0.26000000000E-02 0. -1.
        -13    1    1    2    0    0  0.28004017806E+01  0.98500714180E+01  0.62350077704E+01  0.11989689381E+02  0.10570000000E+00 0.  1.
         13    1    1    2    0    0 -0.28004017806E+01 -0.98500714180E+01  0.23406718654E+02  0.25549007960E+02  0.10570000000E+00 0. -1.
<mgrwt>
<rscale>  0 0.23033060E+02</rscale>
<asrwt>0</asrwt>
<pdfrwt beam="2">  1        2 0.60745931E-03 0.23033060E+02</pdfrwt>
<pdfrwt beam="1">  1       -2 0.51677248E-02 0.23033060E+02</pdfrwt>
<totfact> 0.26098080E+06</totfact>
</mgrwt>
</event>
<event>
 4    1  0.3704929E-001  0.5590526E+02  0.7818608E-02  0.1415866E+00
         -2   -1    0    0    0  501 -0.00000000000E+00  0.00000000000E+00  0.44856863604E+02  0.44856863679E+02  0.26000000000E-02 0.  1.
          2   -1    0    0  501    0  0.00000000000E+00 -0.00000000000E+00 -0.17418726354E+02  0.17418726548E+02  0.26000000000E-02 0. -1.
        -13    1    1    2    0    0  0.24461743829E+02  0.95017910571E+01  0.29951886195E+01  0.26412937584E+02  0.10570000000E+00 0. -1.
         13    1    1    2    0    0 -0.24461743829E+02 -0.95017910571E+01  0.24442948630E+02  0.35862652644E+02  0.10570000000E+00 0.  1.
<mgrwt>
<rscale>  0 0.55905257E+02</rscale>
<asrwt>0</asrwt>
<pdfrwt beam="2">  1        2 0.26798041E-02 0.55905257E+02</pdfrwt>
<pdfrwt beam="1">  1       -2 0.69010560E-02 0.55905257E+02</pdfrwt>
<totfact> 0.31792050E+05</totfact>
</mgrwt>
</event>
<event>
 4    1  0.3704929E-001  0.2203269E+02  0.7818608E-02  0.1707687E+00
          2   -1    0    0  501    0  0.00000000000E+00  0.00000000000E+00  0.21298974276E+02  0.21298974435E+02  0.26000000000E-02 0. -1.
         -2   -1    0    0    0  501 -0.00000000000E+00 -0.00000000000E+00 -0.56979195108E+01  0.56979201040E+01  0.26000000000E-02 0.  1.
        -13    1    1    2    0    0 -0.71112595352E+01  0.77890716528E+01  0.11696366604E+02  0.15749787732E+02  0.10570000000E+00 0. -1.
         13    1    1    2    0    0  0.71112595352E+01 -0.77890716528E+01  0.39046881614E+01  0.11247106807E+02  0.10570000000E+00 0.  1.
<mgrwt>
<rscale>  0 0.22032689E+02</rscale>
<asrwt>0</asrwt>
<pdfrwt beam="1">  1        2 0.32767653E-02 0.22032689E+02</pdfrwt>
<pdfrwt beam="2">  1       -2 0.87660305E-03 0.22032689E+02</pdfrwt>
<totfact> 0.33629924E+06</totfact>
</mgrwt>
</event>
<event>
 4    1  0.3704929E-001  0.2552847E+02  0.7818608E-02  0.1653525E+00
         -2   -1    0    0    0  501 -0.00000000000E+00  0.00000000000E+00  0.48499273559E+01  0.48499280529E+01  0.26000000000E-02 0. -1.
          2   -1    0    0  501    0  0.00000000000E+00 -0.00000000000E+00 -0.33593434270E+02  0.33593434371E+02  0.26000000000E-02 0.  1.
        -13    1    1    2    0    0 -0.90494714072E+01  0.85801885880E+01 -0.10274708118E+02  0.16158383841E+02  0.10570000000E+00 0. -1.
         13    1    1    2    0    0  0.90494714072E+01 -0.85801885880E+01 -0.18468798797E+02  0.22284978583E+02  0.10570000000E+00 0.  1.
<mgrwt>
<rscale>  0 0.25528473E+02</rscale>
<asrwt>0</asrwt>
<pdfrwt beam="2">  1        2 0.51682206E-02 0.25528473E+02</pdfrwt>
<pdfrwt beam="1">  1       -2 0.74614275E-03 0.25528473E+02</pdfrwt>
<totfact> 0.25131825E+06</totfact>
</mgrwt>
</event>
<event>
 4    1  0.3704929E-001  0.2816678E+02  0.7818608E-02  0.1619284E+00
          2   -1    0    0  501    0  0.00000000000E+00  0.00000000000E+00  0.11114961845E+03  0.11114961848E+03  0.26000000000E-02 0. -1.
         -2   -1    0    0    0  501 -0.00000000000E+00 -0.00000000000E+00 -0.17844579398E+01  0.17844598340E+01  0.26000000000E-02 0.  1.
        -13    1    1    2    0    0 -0.46314514250E+01 -0.12630595131E+02  0.71382656805E+02  0.72639363576E+02  0.10570000000E+00 0. -1.
         13    1    1    2    0    0  0.46314514250E+01  0.12630595131E+02  0.37982503707E+02  0.40294714740E+02  0.10570000000E+00 0.  1.
<mgrwt>
<rscale>  0 0.28166784E+02</rscale>
<asrwt>0</asrwt>
<pdfrwt beam="1">  1        2 0.17099937E-01 0.28166784E+02</pdfrwt>
<pdfrwt beam="2">  1       -2 0.27453222E-03 0.28166784E+02</pdfrwt>
<totfact> 0.24862637E+06</totfact>
</mgrwt>
</event>
<event>
 4    1  0.3704929E-001  0.3988917E+02  0.7818608E-02  0.1509029E+00
         -2   -1    0    0    0  501 -0.00000000000E+00  0.00000000000E+00  0.32015578438E+01  0.32015588996E+01  0.26000000000E-02 0.  1.
          2   -1    0    0  501    0  0.00000000000E+00 -0.00000000000E+00 -0.12424774046E+03  0.12424774049E+03  0.26000000000E-02 0. -1.
        -13    1    1    2    0    0 -0.17540774955E+02 -0.72191020984E+01 -0.80213997813E+02  0.82426275172E+02  0.10570000000E+00 0. -1.
         13    1    1    2    0    0  0.17540774955E+02  0.72191020984E+01 -0.40832184803E+02  0.45023024214E+02  0.10570000000E+00 0.  1.
<mgrwt>
<rscale>  0 0.39889166E+02</rscale>
<asrwt>0</asrwt>
<pdfrwt beam="2">  1        2 0.19115033E-01 0.39889166E+02</pdfrwt>
<pdfrwt beam="1">  1       -2 0.49254754E-03 0.39889166E+02</pdfrwt>
<totfact> 0.11138159E+06</totfact>
</mgrwt>
</event>
<event>
 4    1  0.3704929E-001  0.2224513E+02  0.7818608E-02  0.1704047E+00
          2   -1    0    0  501    0  0.00000000000E+00  0.00000000000E+00  0.30533333441E+02  0.30533333552E+02  0.26000000000E-02 0.  1.
         -2   -1    0    0    0  501 -0.00000000000E+00 -0.00000000000E+00 -0.40516830497E+01  0.40516838840E+01  0.26000000000E-02 0. -1.
        -13    1    1    2    0    0  0.10049448277E+02  0.44677282569E+01  0.10663439409E+02  0.15319011684E+02  0.10570000000E+00 0. -1.
         13    1    1    2    0    0 -0.10049448277E+02 -0.44677282569E+01  0.15818210982E+02  0.19266005752E+02  0.10570000000E+00 0.  1.
<mgrwt>
<rscale>  0 0.22245126E+02</rscale>
<asrwt>0</asrwt>
<pdfrwt beam="1">  1        2 0.46974357E-02 0.22245126E+02</pdfrwt>
<pdfrwt beam="2">  1       -2 0.62333597E-03 0.22245126E+02</pdfrwt>
<totfact> 0.34151881E+06</totfact>
</mgrwt>
</event>
<event>
 4    1  0.3704929E-001  0.2053852E+02  0.7818608E-02  0.1734826E+00
          2   -1    0    0  501    0  0.00000000000E+00  0.00000000000E+00  0.45524794266E+01  0.45524801690E+01  0.26000000000E-02 0. -1.
         -2   -1    0    0    0  501 -0.00000000000E+00 -0.00000000000E+00 -0.23164897260E+02  0.23164897406E+02  0.26000000000E-02 0.  1.
        -13    1    1    2    0    0  0.77479944261E+01  0.65207319443E+01 -0.11602473168E+02  0.15400646701E+02  0.10570000000E+00 0.  1.
         13    1    1    2    0    0 -0.77479944261E+01 -0.65207319443E+01 -0.70099446661E+01  0.12316730874E+02  0.10570000000E+00 0. -1.
<mgrwt>
<rscale>  0 0.20538523E+02</rscale>
<asrwt>0</asrwt>
<pdfrwt beam="1">  1        2 0.70038153E-03 0.20538523E+02</pdfrwt>
<pdfrwt beam="2">  1       -2 0.35638303E-02 0.20538523E+02</pdfrwt>
<totfact> 0.34882907E+06</totfact>
</mgrwt>
</event>
<event>
 4    1  0.3704929E-001  0.3640173E+02  0.7818608E-02  0.1536494E+00
         -2   -1    0    0    0  501 -0.00000000000E+00  0.00000000000E+00  0.42361298278E+02  0.42361298358E+02  0.26000000000E-02 0. -1.
          2   -1    0    0  501    0  0.00000000000E+00 -0.00000000000E+00 -0.78201460060E+01  0.78201464382E+01  0.26000000000E-02 0.  1.
        -13    1    1    2    0    0 -0.44654251988E+01 -0.12214086372E+02 -0.28283095740E+00  0.13008270213E+02  0.10570000000E+00 0.  1.
         13    1    1    2    0    0  0.44654251988E+01  0.12214086372E+02  0.34823983230E+02  0.37173174583E+02  0.10570000000E+00 0. -1.
<mgrwt>
<rscale>  0 0.36401733E+02</rscale>
<asrwt>0</asrwt>
<pdfrwt beam="2">  1        2 0.12030994E-02 0.36401733E+02</pdfrwt>
<pdfrwt beam="1">  1       -2 0.65171228E-02 0.36401733E+02</pdfrwt>
<totfact> 0.88912151E+05</totfact>
</mgrwt>
</event>
<event>
 4    1  0.3704929E-001  0.3892774E+02  0.7818608E-02  0.1516254E+00
         -2   -1    0    0    0  501 -0.00000000000E+00  0.00000000000E+00  0.25365700855E+02  0.25365700989E+02  0.26000000000E-02 0.  1.
          2   -1    0    0  501    0  0.00000000000E+00 -0.00000000000E+00 -0.14935213958E+02  0.14935214184E+02  0.26000000000E-02 0. -1.
        -13    1    1    2    0    0 -0.14772578530E+02 -0.11668644333E+02  0.10333803653E+02  0.21475218449E+02  0.10570000000E+00 0. -1.
         13    1    1    2    0    0  0.14772578530E+02  0.11668644333E+02  0.96683245135E-01  0.18825696724E+02  0.10570000000E+00 0.  1.
<mgrwt>
<rscale>  0 0.38927737E+02</rscale>
<asrwt>0</asrwt>
<pdfrwt beam="2">  1        2 0.22977252E-02 0.38927737E+02</pdfrwt>
<pdfrwt beam="1">  1       -2 0.39024156E-02 0.38927737E+02</pdfrwt>
<totfact> 0.81399694E+05</totfact>
</mgrwt>
</event>
<event>
 4    1  0.3704929E-001  0.3205271E+02  0.7818608E-02  0.1576447E+00
          2   -1    0    0  501    0  0.00000000000E+00  0.00000000000E+00  0.89630141328E+02  0.89630141366E+02  0.26000000000E-02 0. -1.
         -2   -1    0    0    0  501 -0.00000000000E+00 -0.00000000000E+00 -0.28655993834E+01  0.28656005629E+01  0.26000000000E-02 0.  1.
        -13    1    1    2    0    0 -0.11091999947E+02  0.10860538139E+02  0.54870702216E+02  0.57024458661E+02  0.10570000000E+00 0. -1.
         13    1    1    2    0    0  0.11091999947E+02 -0.10860538139E+02  0.31893839729E+02  0.35471283267E+02  0.10570000000E+00 0.  1.
<mgrwt>
<rscale>  0 0.32052715E+02</rscale>
<asrwt>0</asrwt>
<pdfrwt beam="1">  1        2 0.13789254E-01 0.32052715E+02</pdfrwt>
<pdfrwt beam="2">  1       -2 0.44086149E-03 0.32052715E+02</pdfrwt>
<totfact> 0.17403657E+06</totfact>
</mgrwt>
</event>
<event>
 4    1  0.3704929E-001  0.4543285E+02  0.7818608E-02  0.1471657E+00
          2   -1    0    0  501    0  0.00000000000E+00  0.00000000000E+00  0.79020613573E+02  0.79020613615E+02  0.26000000000E-02 0.  1.
         -2   -1    0    0    0  501 -0.00000000000E+00 -0.00000000000E+00 -0.65303958247E+01  0.65303963423E+01  0.26000000000E-02 0. -1.
        -13    1    1    2    0    0 -0.18237966283E+02 -0.12911184443E+02  0.43940801713E+02  0.49296321622E+02  0.10570000000E+00 0. -1.
         13    1    1    2    0    0  0.18237966283E+02  0.12911184443E+02  0.28549416035E+02  0.36254688335E+02  0.10570000000E+00 0.  1.
<mgrwt>
<rscale>  0 0.45432848E+02</rscale>
<asrwt>0</asrwt>
<pdfrwt beam="1">  1        2 0.12157017E-01 0.45432848E+02</pdfrwt>
<pdfrwt beam="2">  1       -2 0.10046763E-02 0.45432848E+02</pdfrwt>
<totfact> 0.71969822E+05</totfact>
</mgrwt>
</event>
<event>
 4    1  0.3704929E-001  0.4599985E+02  0.7818608E-02  0.1468195E+00
         -2   -1    0    0    0  501 -0.00000000000E+00  0.00000000000E+00  0.28152243286E+01  0.28152255292E+01  0.26000000000E-02 0. -1.
          2   -1    0    0  501    0  0.00000000000E+00 -0.00000000000E+00 -0.18790564564E+03  0.18790564566E+03  0.26000000000E-02 0.  1.
        -13    1    1    2    0    0  0.69482559367E+01  0.21409374492E+02 -0.11214452162E+03  0.11438113690E+03  0.10570000000E+00 0.  1.
         13    1    1    2    0    0 -0.69482559367E+01 -0.21409374492E+02 -0.72945899690E+02  0.76339734286E+02  0.10570000000E+00 0. -1.
<mgrwt>
<rscale>  0 0.45999855E+02</rscale>
<asrwt>0</asrwt>
<pdfrwt beam="2">  1        2 0.28908551E-01 0.45999855E+02</pdfrwt>
<pdfrwt beam="1">  1       -2 0.43311168E-03 0.45999855E+02</pdfrwt>
<totfact> 0.88780542E+05</totfact>
</mgrwt>
</event>
<event>
 4    1  0.3704929E-001  0.2855465E+02  0.7818608E-02  0.1614637E+00
         -2   -1    0    0    0  501 -0.00000000000E+00  0.00000000000E+00  0.15076558296E+02  0.15076558520E+02  0.26000000000E-02 0.  1.
          2   -1    0    0  501    0  0.00000000000E+00 -0.00000000000E+00 -0.13520460218E+02  0.13520460468E+02  0.26000000000E-02 0. -1.
        -13    1    1    2    0    0 -0.39919497587E+01 -0.11305197608E+02  0.85411753856E+01  0.14720937650E+02  0.10570000000E+00 0. -1.
         13    1    1    2    0    0  0.39919497587E+01  0.11305197608E+02 -0.69850773079E+01  0.13876081339E+02  0.10570000000E+00 0.  1.
<mgrwt>
<rscale>  0 0.28554650E+02</rscale>
<asrwt>0</asrwt>
<pdfrwt beam="2">  1        2 0.20800708E-02 0.28554650E+02</pdfrwt>
<pdfrwt beam="1">  1       -2 0.23194705E-02 0.28554650E+02</pdfrwt>
<totfact> 0.17476184E+06</totfact>
</mgrwt>
</event>
<event>
 4    1  0.3704929E-001  0.2147121E+02  0.7818608E-02  0.1717561E+00
         -2   -1    0    0    0  501 -0.00000000000E+00  0.00000000000E+00  0.22966957122E+01  0.22966971839E+01  0.26000000000E-02 0. -1.
          2   -1    0    0  501    0  0.00000000000E+00 -0.00000000000E+00 -0.50182160598E+02  0.50182160666E+02  0.26000000000E-02 0.  1.
        -13    1    1    2    0    0  0.53641741287E+01 -0.90013265543E+01 -0.29645400123E+02  0.31442950955E+02  0.10570000000E+00 0. -1.
         13    1    1    2    0    0 -0.53641741287E+01  0.90013265543E+01 -0.18240064763E+02  0.21035906895E+02  0.10570000000E+00 0.  1.
<mgrwt>
<rscale>  0 0.21471208E+02</rscale>
<asrwt>0</asrwt>
<pdfrwt beam="2">  1        2 0.77203317E-02 0.21471208E+02</pdfrwt>
<pdfrwt beam="1">  1       -2 0.35333796E-03 0.21471208E+02</pdfrwt>
<totfact> 0.39531008E+06</totfact>
</mgrwt>
</event>
<event>
 4    1  0.3704929E-001  0.3026512E+02  0.7818608E-02  0.1595176E+00
          2   -1    0    0  501    0  0.00000000000E+00  0.00000000000E+00  0.28099363375E+01  0.28099375403E+01  0.26000000000E-02 0.  1.
         -2   -1    0    0    0  501 -0.00000000000E+00 -0.00000000000E+00 -0.81494483400E+02  0.81494483441E+02  0.26000000000E-02 0. -1.
        -13    1    1    2    0    0  0.31832712329E+01 -0.14661816258E+02 -0.44829923569E+02  0.47274044585E+02  0.10570000000E+00 0.  1.
         13    1    1    2    0    0 -0.31832712329E+01  0.14661816258E+02 -0.33854623493E+02  0.37030376396E+02  0.10570000000E+00 0. -1.
<mgrwt>
<rscale>  0 0.30265119E+02</rscale>
<asrwt>0</asrwt>
<pdfrwt beam="1">  1        2 0.43229806E-03 0.30265119E+02</pdfrwt>
<pdfrwt beam="2">  1       -2 0.12537611E-01 0.30265119E+02</pdfrwt>
<totfact> 0.12237678E+06</totfact>
</mgrwt>
</event>
<event>
 4    1  0.3704929E-001  0.4837870E+02  0.7818608E-02  0.1454288E+00
         -2   -1    0    0    0  501 -0.00000000000E+00  0.00000000000E+00  0.15874632616E+02  0.15874632829E+02  0.26000000000E-02 0.  1.
          2   -1    0    0  501    0  0.00000000000E+00 -0.00000000000E+00 -0.36859104158E+02  0.36859104250E+02  0.26000000000E-02 0. -1.
        -13    1    1    2    0    0 -0.90645537967E+01 -0.63981194973E+01 -0.33921611452E+02  0.35690180227E+02  0.10570000000E+00 0. -1.
         13    1    1    2    0    0  0.90645537967E+01  0.63981194973E+01  0.12937139910E+02  0.17043556852E+02  0.10570000000E+00 0.  1.
<mgrwt>
<rscale>  0 0.48378704E+02</rscale>
<asrwt>0</asrwt>
<pdfrwt beam="2">  1        2 0.56706314E-02 0.48378704E+02</pdfrwt>
<pdfrwt beam="1">  1       -2 0.24422512E-02 0.48378704E+02</pdfrwt>
<totfact> 0.52897231E+05</totfact>
</mgrwt>
</event>
<event>
 4    1  0.3704929E-001  0.2129070E+02  0.7818608E-02  0.1720816E+00
         -2   -1    0    0    0  501 -0.00000000000E+00  0.00000000000E+00  0.25948399202E+01  0.25948412228E+01  0.26000000000E-02 0.  1.
          2   -1    0    0  501    0  0.00000000000E+00 -0.00000000000E+00 -0.43672602253E+02  0.43672602330E+02  0.26000000000E-02 0. -1.
        -13    1    1    2    0    0  0.43302699171E+01 -0.96602433068E+01 -0.22959490880E+02  0.25282818914E+02  0.10570000000E+00 0.  1.
         13    1    1    2    0    0 -0.43302699171E+01  0.96602433068E+01 -0.18118271453E+02  0.20984624639E+02  0.10570000000E+00 0. -1.
<mgrwt>
<rscale>  0 0.21290697E+02</rscale>
<asrwt>0</asrwt>
<pdfrwt beam="2">  1        2 0.67188614E-02 0.21290697E+02</pdfrwt>
<pdfrwt beam="1">  1       -2 0.39920628E-03 0.21290697E+02</pdfrwt>
<totfact> 0.39478414E+06</totfact>
</mgrwt>
</event>
<event>
 4    1  0.3704929E-001  0.2847743E+02  0.7818608E-02  0.1615555E+00
          2   -1    0    0  501    0  0.00000000000E+00  0.00000000000E+00  0.41131805247E+02  0.41131805329E+02  0.26000000000E-02 0.  1.
         -2   -1    0    0    0  501 -0.00000000000E+00 -0.00000000000E+00 -0.49290563486E+01  0.49290570343E+01  0.26000000000E-02 0. -1.
        -13    1    1    2    0    0  0.23529896857E+01 -0.11089455320E+02  0.41671209937E+01  0.12078437384E+02  0.10570000000E+00 0. -1.
         13    1    1    2    0    0 -0.23529896857E+01  0.11089455320E+02  0.32035627904E+02  0.33982424979E+02  0.10570000000E+00 0.  1.
<mgrwt>
<rscale>  0 0.28477430E+02</rscale>
<asrwt>0</asrwt>
<pdfrwt beam="1">  1        2 0.63279699E-02 0.28477430E+02</pdfrwt>
<pdfrwt beam="2">  1       -2 0.75831644E-03 0.28477430E+02</pdfrwt>
<totfact> 0.19968637E+06</totfact>
</mgrwt>
</event>
<event>
 4    1  0.3704929E-001  0.2779883E+02  0.7818608E-02  0.1623777E+00
         -2   -1    0    0    0  501 -0.00000000000E+00  0.00000000000E+00  0.99864719948E+01  0.99864723333E+01  0.26000000000E-02 0. -1.
          2   -1    0    0  501    0  0.00000000000E+00 -0.00000000000E+00 -0.19345550033E+02  0.19345550208E+02  0.26000000000E-02 0.  1.
        -13    1    1    2    0    0  0.11884387284E+02  0.58428904684E+01 -0.91318092219E+01  0.16086613761E+02  0.10570000000E+00 0.  1.
         13    1    1    2    0    0 -0.11884387284E+02 -0.58428904684E+01 -0.22726881669E+00  0.13245408780E+02  0.10570000000E+00 0. -1.
<mgrwt>
<rscale>  0 0.27798835E+02</rscale>
<asrwt>0</asrwt>
<pdfrwt beam="2">  1        2 0.29762385E-02 0.27798835E+02</pdfrwt>
<pdfrwt beam="1">  1       -2 0.15363803E-02 0.27798835E+02</pdfrwt>
<totfact> 0.19318533E+06</totfact>
</mgrwt>
</event>
<event>
 4    1  0.3704929E-001  0.3292307E+02  0.7818608E-02  0.1567857E+00
         -2   -1    0    0    0  501 -0.00000000000E+00  0.00000000000E+00  0.22908431354E+02  0.22908431501E+02  0.26000000000E-02 0. -1.
          2   -1    0    0  501    0  0.00000000000E+00 -0.00000000000E+00 -0.11828926974E+02  0.11828927260E+02  0.26000000000E-02 0.  1.
        -13    1    1    2    0    0 -0.11087241842E+02 -0.42445991821E+01 -0.64915864702E+01  0.13531275671E+02  0.10570000000E+00 0.  1.
         13    1    1    2    0    0  0.11087241842E+02  0.42445991821E+01  0.17571090850E+02  0.21206083090E+02  0.10570000000E+00 0. -1.
<mgrwt>
<rscale>  0 0.32923072E+02</rscale>
<asrwt>0</asrwt>
<pdfrwt beam="2">  1        2 0.18198350E-02 0.32923072E+02</pdfrwt>
<pdfrwt beam="1">  1       -2 0.35243740E-02 0.32923072E+02</pdfrwt>
<totfact> 0.12121215E+06</totfact>
</mgrwt>
</event>
<event>
 4    1  0.3704929E-001  0.2252549E+02  0.7818608E-02  0.1699319E+00
          2   -1    0    0  501    0  0.00000000000E+00  0.00000000000E+00  0.33125261156E+01  0.33125271360E+01  0.26000000000E-02 0. -1.
         -2   -1    0    0    0  501 -0.00000000000E+00 -0.00000000000E+00 -0.38293867276E+02  0.38293867364E+02  0.26000000000E-02 0.  1.
        -13    1    1    2    0    0  0.10079827507E+02 -0.47836335035E+01 -0.14657816615E+02  0.18421423193E+02  0.10570000000E+00 0. -1.
         13    1    1    2    0    0 -0.10079827507E+02  0.47836335035E+01 -0.20323524546E+02  0.23184971307E+02  0.10570000000E+00 0.  1.
<mgrwt>
<rscale>  0 0.22525493E+02</rscale>
<asrwt>0</asrwt>
<pdfrwt beam="1">  1        2 0.50961951E-03 0.22525493E+02</pdfrwt>
<pdfrwt beam="2">  1       -2 0.58913640E-02 0.22525493E+02</pdfrwt>
<totfact> 0.27009323E+06</totfact>
</mgrwt>
</event>
<event>
 4    1  0.3704929E-001  0.4458630E+02  0.7818608E-02  0.1476941E+00
          2   -1    0    0  501    0  0.00000000000E+00  0.00000000000E+00  0.41891337524E+02  0.41891337605E+02  0.26000000000E-02 0. -1.
         -2   -1    0    0    0  501 -0.00000000000E+00 -0.00000000000E+00 -0.11863657764E+02  0.11863658049E+02  0.26000000000E-02 0.  1.
        -13    1    1    2    0    0 -0.10468894675E+02  0.14983609185E+02  0.30400132930E+02  0.35472320964E+02  0.10570000000E+00 0. -1.
         13    1    1    2    0    0  0.10468894675E+02 -0.14983609185E+02 -0.37245317026E+00  0.18282674690E+02  0.10570000000E+00 0.  1.
<mgrwt>
<rscale>  0 0.44586298E+02</rscale>
<asrwt>0</asrwt>
<pdfrwt beam="1">  1        2 0.64448212E-02 0.44586298E+02</pdfrwt>
<pdfrwt beam="2">  1       -2 0.18251782E-02 0.44586298E+02</pdfrwt>
<totfact> 0.66619611E+05</totfact>
</mgrwt>
</event>
<event>
 4    1  0.3704929E-001  0.2435611E+02  0.7818608E-02  0.1670426E+00
          2   -1    0    0  501    0  0.00000000000E+00  0.00000000000E+00  0.77911585866E+02  0.77911585910E+02  0.26000000000E-02 0.  1.
         -2   -1    0    0    0  501 -0.00000000000E+00 -0.00000000000E+00 -0.19035026029E+01  0.19035043786E+01  0.26000000000E-02 0. -1.
        -13    1    1    2    0    0 -0.66755832944E-01 -0.12176801208E+02  0.37604534401E+02  0.39527093543E+02  0.10570000000E+00 0. -1.
         13    1    1    2    0    0  0.66755832944E-01  0.12176801208E+02  0.38403548863E+02  0.40287996745E+02  0.10570000000E+00 0.  1.
<mgrwt>
<rscale>  0 0.24356106E+02</rscale>
<asrwt>0</asrwt>
<pdfrwt beam="1">  1        2 0.11986399E-01 0.24356106E+02</pdfrwt>
<pdfrwt beam="2">  1       -2 0.29284667E-03 0.24356106E+02</pdfrwt>
<totfact> 0.32096754E+06</totfact>
</mgrwt>
</event>
<event>
 4    1  0.3704929E-001  0.2598526E+02  0.7818608E-02  0.1647241E+00
          2   -1    0    0  501    0  0.00000000000E+00  0.00000000000E+00  0.93467232160E+02  0.93467232197E+02  0.26000000000E-02 0.  1.
         -2   -1    0    0    0  501 -0.00000000000E+00 -0.00000000000E+00 -0.18060702124E+01  0.18060720838E+01  0.26000000000E-02 0. -1.
        -13    1    1    2    0    0  0.10687550311E+02  0.73696925921E+01  0.47704419142E+02  0.49439446586E+02  0.10570000000E+00 0. -1.
         13    1    1    2    0    0 -0.10687550311E+02 -0.73696925921E+01  0.43956742806E+02  0.45833857695E+02  0.10570000000E+00 0.  1.
<mgrwt>
<rscale>  0 0.25985263E+02</rscale>
<asrwt>0</asrwt>
<pdfrwt beam="1">  1        2 0.14379577E-01 0.25985263E+02</pdfrwt>
<pdfrwt beam="2">  1       -2 0.27785706E-03 0.25985263E+02</pdfrwt>
<totfact> 0.28761791E+06</totfact>
</mgrwt>
</event>
<event>
 4    1  0.3704929E-001  0.2673942E+02  0.7818608E-02  0.1637206E+00
         -2   -1    0    0    0  501 -0.00000000000E+00  0.00000000000E+00  0.81595572166E+02  0.81595572208E+02  0.26000000000E-02 0. -1.
          2   -1    0    0  501    0  0.00000000000E+00 -0.00000000000E+00 -0.21906706968E+01  0.21906722397E+01  0.26000000000E-02 0.  1.
        -13    1    1    2    0    0  0.11506139822E+01 -0.12195346086E+02  0.56485369326E+02  0.57798429902E+02  0.10570000000E+00 0. -1.
         13    1    1    2    0    0 -0.11506139822E+01  0.12195346086E+02  0.22919532143E+02  0.25987814546E+02  0.10570000000E+00 0.  1.
<mgrwt>
<rscale>  0 0.26739416E+02</rscale>
<asrwt>0</asrwt>
<pdfrwt beam="2">  1        2 0.33702644E-03 0.26739416E+02</pdfrwt>
<pdfrwt beam="1">  1       -2 0.12553163E-01 0.26739416E+02</pdfrwt>
<totfact> 0.16268219E+06</totfact>
</mgrwt>
</event>
<event>
 4    1  0.3704929E-001  0.2471528E+02  0.7818608E-02  0.1665125E+00
          2   -1    0    0  501    0  0.00000000000E+00  0.00000000000E+00  0.31095849848E+02  0.31095849957E+02  0.26000000000E-02 0.  1.
         -2   -1    0    0    0  501 -0.00000000000E+00 -0.00000000000E+00 -0.49109854637E+01  0.49109861519E+01  0.26000000000E-02 0. -1.
        -13    1    1    2    0    0  0.93348006548E+01 -0.60096931290E+01  0.51869818707E+01  0.12254422393E+02  0.10570000000E+00 0. -1.
         13    1    1    2    0    0 -0.93348006548E+01  0.60096931290E+01  0.20997882514E+02  0.23752413716E+02  0.10570000000E+00 0.  1.
<mgrwt>
<rscale>  0 0.24715281E+02</rscale>
<asrwt>0</asrwt>
<pdfrwt beam="1">  1        2 0.47839770E-02 0.24715281E+02</pdfrwt>
<pdfrwt beam="2">  1       -2 0.75553629E-03 0.24715281E+02</pdfrwt>
<totfact> 0.26849116E+06</totfact>
</mgrwt>
</event>
<event>
 4    1  0.3704929E-001  0.3567919E+02  0.7818608E-02  0.1542651E+00
          2   -1    0    0  501    0  0.00000000000E+00  0.00000000000E+00  0.72360424640E+02  0.72360424686E+02  0.26000000000E-02 0.  1.
         -2   -1    0    0    0  501 -0.00000000000E+00 -0.00000000000E+00 -0.43981384861E+01  0.43981392546E+01  0.26000000000E-02 0. -1.
        -13    1    1    2    0    0 -0.94338463851E+01  0.13374006963E+02  0.18711303700E+02  0.24859315729E+02  0.10570000000E+00 0. -1.
         13    1    1    2    0    0  0.94338463851E+01 -0.13374006963E+02  0.49250982454E+02  0.51899248212E+02  0.10570000000E+00 0.  1.
<mgrwt>
<rscale>  0 0.35679193E+02</rscale>
<asrwt>0</asrwt>
<pdfrwt beam="1">  1        2 0.11132372E-01 0.35679193E+02</pdfrwt>
<pdfrwt beam="2">  1       -2 0.67663683E-03 0.35679193E+02</pdfrwt>
<totfact> 0.12829837E+06</totfact>
</mgrwt>
</event>
<event>
 4    1  0.3704929E-001  0.2141706E+02  0.7818608E-02  0.1718533E+00
          2   -1    0    0  501    0  0.00000000000E+00  0.00000000000E+00  0.69529078304E+01  0.69529083166E+01  0.26000000000E-02 0. -1.
         -2   -1    0    0    0  501 -0.00000000000E+00 -0.00000000000E+00 -0.16492750747E+02  0.16492750951E+02  0.26000000000E-02 0.  1.
        -13    1    1    2    0    0 -0.10544197689E+02 -0.33811593315E+00 -0.27611839483E+01  0.10905491120E+02  0.10570000000E+00 0. -1.
         13    1    1    2    0    0  0.10544197689E+02  0.33811593315E+00 -0.67786589678E+01  0.12540168148E+02  0.10570000000E+00 0.  1.
<mgrwt>
<rscale>  0 0.21417057E+02</rscale>
<asrwt>0</asrwt>
<pdfrwt beam="1">  1        2 0.10696782E-02 0.21417057E+02</pdfrwt>
<pdfrwt beam="2">  1       -2 0.25373463E-02 0.21417057E+02</pdfrwt>
<totfact> 0.32758280E+06</totfact>
</mgrwt>
</event>
<event>
 4    1  0.3704929E-001  0.5043081E+02  0.7818608E-02  0.1443032E+00
         -2   -1    0    0    0  501 -0.00000000000E+00  0.00000000000E+00  0.21044264785E+02  0.21044264945E+02  0.26000000000E-02 0. -1.
          2   -1    0    0  501    0  0.00000000000E+00 -0.00000000000E+00 -0.30213299184E+02  0.30213299296E+02  0.26000000000E-02 0.  1.
        -13    1    1    2    0    0  0.12632159988E+02 -0.18248580107E+02 -0.16748307997E+02  0.27804660313E+02  0.10570000000E+00 0.  1.
         13    1    1    2    0    0 -0.12632159988E+02  0.18248580107E+02  0.75792735974E+01  0.23452903928E+02  0.10570000000E+00 0. -1.
<mgrwt>
<rscale>  0 0.50430811E+02</rscale>
<asrwt>0</asrwt>
<pdfrwt beam="2">  1        2 0.46481999E-02 0.50430811E+02</pdfrwt>
<pdfrwt beam="1">  1       -2 0.32375792E-02 0.50430811E+02</pdfrwt>
<totfact> 0.45954464E+05</totfact>
</mgrwt>
</event>
<event>
 4    1  0.3704929E-001  0.3795155E+02  0.7818608E-02  0.1523851E+00
         -2   -1    0    0    0  501 -0.00000000000E+00  0.00000000000E+00  0.62342423116E+01  0.62342428538E+01  0.26000000000E-02 0.  1.
          2   -1    0    0  501    0  0.00000000000E+00 -0.00000000000E+00 -0.57758437775E+02  0.57758437833E+02  0.26000000000E-02 0. -1.
        -13    1    1    2    0    0  0.75558312113E+01  0.89256975060E+01 -0.50959461044E+02  0.52284189806E+02  0.10570000000E+00 0. -1.
         13    1    1    2    0    0 -0.75558312113E+01 -0.89256975060E+01 -0.56473441917E+00  0.11708490881E+02  0.10570000000E+00 0.  1.
<mgrwt>
<rscale>  0 0.37951554E+02</rscale>
<asrwt>0</asrwt>
<pdfrwt beam="2">  1        2 0.88859132E-02 0.37951554E+02</pdfrwt>
<pdfrwt beam="1">  1       -2 0.95911429E-03 0.37951554E+02</pdfrwt>
<totfact> 0.10549248E+06</totfact>
</mgrwt>
</event>
<event>
 4    1  0.3704929E-001  0.4130537E+02  0.7818608E-02  0.1498819E+00
          2   -1    0    0  501    0  0.00000000000E+00  0.00000000000E+00  0.39903559907E+01  0.39903568377E+01  0.26000000000E-02 0.  1.
         -2   -1    0    0    0  501 -0.00000000000E+00 -0.00000000000E+00 -0.10689105310E+03  0.10689105314E+03  0.26000000000E-02 0. -1.
        -13    1    1    2    0    0 -0.67332863934E+01 -0.16013857053E+02 -0.21468552618E+02  0.27616855132E+02  0.10570000000E+00 0.  1.
         13    1    1    2    0    0  0.67332863934E+01  0.16013857053E+02 -0.81432144496E+02  0.83264554842E+02  0.10570000000E+00 0. -1.
<mgrwt>
<rscale>  0 0.41305370E+02</rscale>
<asrwt>0</asrwt>
<pdfrwt beam="1">  1        2 0.61390107E-03 0.41305370E+02</pdfrwt>
<pdfrwt beam="2">  1       -2 0.16444775E-01 0.41305370E+02</pdfrwt>
<totfact> 0.55119768E+05</totfact>
</mgrwt>
</event>
<event>
 4    1  0.3704929E-001  0.4697551E+02  0.7818608E-02  0.1462373E+00
         -2   -1    0    0    0  501 -0.00000000000E+00  0.00000000000E+00  0.46425144944E+01  0.46425152224E+01  0.26000000000E-02 0.  1.
          2   -1    0    0  501    0  0.00000000000E+00 -0.00000000000E+00 -0.11883099761E+03  0.11883099764E+03  0.26000000000E-02 0. -1.
        -13    1    1    2    0    0 -0.83785530294E+01  0.19627339066E+02 -0.82878793454E+02  0.85582347283E+02  0.10570000000E+00 0. -1.
         13    1    1    2    0    0  0.83785530294E+01 -0.19627339066E+02 -0.31309689667E+02  0.37891165583E+02  0.10570000000E+00 0.  1.
<mgrwt>
<rscale>  0 0.46975512E+02</rscale>
<asrwt>0</asrwt>
<pdfrwt beam="2">  1        2 0.18281690E-01 0.46975512E+02</pdfrwt>
<pdfrwt beam="1">  1       -2 0.71423315E-03 0.46975512E+02</pdfrwt>
<totfact> 0.73379969E+05</totfact>
</mgrwt>
</event>
<event>
 4    1  0.3704929E-001  0.5814724E+02  0.7818608E-02  0.1405776E+00
          2   -1    0    0  501    0  0.00000000000E+00  0.00000000000E+00  0.43667609426E+01  0.43667617166E+01  0.26000000000E-02 0. -1.
         -2   -1    0    0    0  501 -0.00000000000E+00 -0.00000000000E+00 -0.19357032048E+03  0.19357032050E+03  0.26000000000E-02 0.  1.
        -13    1    1    2    0    0  0.28511793209E+02  0.56056304428E+01 -0.91338885845E+02  0.95849614942E+02  0.10570000000E+00 0. -1.
         13    1    1    2    0    0 -0.28511793209E+02 -0.56056304428E+01 -0.97864673697E+02  0.10208746728E+03  0.10570000000E+00 0.  1.
<mgrwt>
<rscale>  0 0.58147240E+02</rscale>
<asrwt>0</asrwt>
<pdfrwt beam="1">  1        2 0.67180959E-03 0.58147240E+02</pdfrwt>
<pdfrwt beam="2">  1       -2 0.29780043E-01 0.58147240E+02</pdfrwt>
<totfact> 0.19670179E+05</totfact>
</mgrwt>
</event>
<event>
 4    1  0.3704929E-001  0.4232462E+02  0.7818608E-02  0.1491770E+00
         -2   -1    0    0    0  501 -0.00000000000E+00  0.00000000000E+00  0.70378418879E+02  0.70378418927E+02  0.26000000000E-02 0.  1.
          2   -1    0    0  501    0  0.00000000000E+00 -0.00000000000E+00 -0.63633614038E+01  0.63633619350E+01  0.26000000000E-02 0. -1.
        -13    1    1    2    0    0 -0.13728076827E+01  0.11087098224E+02 -0.58034994588E+00  0.11187328837E+02  0.10570000000E+00 0. -1.
         13    1    1    2    0    0  0.13728076827E+01 -0.11087098224E+02  0.64595407421E+02  0.65554452026E+02  0.10570000000E+00 0.  1.
<mgrwt>
<rscale>  0 0.42324619E+02</rscale>
<asrwt>0</asrwt>
<pdfrwt beam="2">  1        2 0.97897868E-03 0.42324619E+02</pdfrwt>
<pdfrwt beam="1">  1       -2 0.10827450E-01 0.42324619E+02</pdfrwt>
<totfact> 0.57121259E+05</totfact>
</mgrwt>
</event>
<event>
 4    1  0.3704929E-001  0.2084991E+02  0.7818608E-02  0.1728936E+00
         -2   -1    0    0    0  501 -0.00000000000E+00  0.00000000000E+00  0.66547038408E+02  0.66547038459E+02  0.26000000000E-02 0.  1.
          2   -1    0    0  501    0  0.00000000000E+00 -0.00000000000E+00 -0.16331245420E+01  0.16331266116E+01  0.26000000000E-02 0. -1.
        -13    1    1    2    0    0 -0.40400202316E+01 -0.95826086779E+01  0.30098102195E+02  0.31844231515E+02  0.10570000000E+00 0. -1.
         13    1    1    2    0    0  0.40400202316E+01  0.95826086779E+01  0.34815811672E+02  0.36335933556E+02  0.10570000000E+00 0.  1.
<mgrwt>
<rscale>  0 0.20849909E+02</rscale>
<asrwt>0</asrwt>
<pdfrwt beam="2">  1        2 0.25125018E-03 0.20849909E+02</pdfrwt>
<pdfrwt beam="1">  1       -2 0.10238002E-01 0.20849909E+02</pdfrwt>
<totfact> 0.29554987E+06</totfact>
</mgrwt>
</event>
<event>
 4    1  0.3704929E-001  0.2487803E+02  0.7818608E-02  0.1662760E+00
          2   -1    0    0  501    0  0.00000000000E+00  0.00000000000E+00  0.58968798755E+02  0.58968798812E+02  0.26000000000E-02 0.  1.
         -2   -1    0    0    0  501 -0.00000000000E+00 -0.00000000000E+00 -0.26239146687E+01  0.26239159569E+01  0.26000000000E-02 0. -1.
        -13    1    1    2    0    0 -0.58134917144E+01  0.84990885854E+01  0.45447471257E+02  0.46599517260E+02  0.10570000000E+00 0.  1.
         13    1    1    2    0    0  0.58134917144E+01 -0.84990885854E+01  0.10897412829E+02  0.14993197509E+02  0.10570000000E+00 0. -1.
<mgrwt>
<rscale>  0 0.24878033E+02</rscale>
<asrwt>0</asrwt>
<pdfrwt beam="1">  1        2 0.90721225E-02 0.24878033E+02</pdfrwt>
<pdfrwt beam="2">  1       -2 0.40367931E-03 0.24878033E+02</pdfrwt>
<totfact> 0.29002282E+06</totfact>
</mgrwt>
</event>
<event>
 4    1  0.3704929E-001  0.3151655E+02  0.7818608E-02  0.1581906E+00
          2   -1    0    0  501    0  0.00000000000E+00  0.00000000000E+00  0.62697229060E+01  0.62697234451E+01  0.26000000000E-02 0.  1.
         -2   -1    0    0    0  501 -0.00000000000E+00 -0.00000000000E+00 -0.39606741216E+02  0.39606741302E+02  0.26000000000E-02 0. -1.
        -13    1    1    2    0    0  0.61566520447E+01 -0.12423866501E+02 -0.27566830031E+02  0.30857707525E+02  0.10570000000E+00 0. -1.
         13    1    1    2    0    0 -0.61566520447E+01  0.12423866501E+02 -0.57701882792E+01  0.15018757222E+02  0.10570000000E+00 0.  1.
<mgrwt>
<rscale>  0 0.31516555E+02</rscale>
<asrwt>0</asrwt>
<pdfrwt beam="1">  1        2 0.96457283E-03 0.31516555E+02</pdfrwt>
<pdfrwt beam="2">  1       -2 0.60933447E-02 0.31516555E+02</pdfrwt>
<totfact> 0.12550324E+06</totfact>
</mgrwt>
</event>
<event>
 4    1  0.3704929E-001  0.3161750E+02  0.7818608E-02  0.1580868E+00
          2   -1    0    0  501    0  0.00000000000E+00  0.00000000000E+00  0.17224873060E+02  0.17224873256E+02  0.26000000000E-02 0.  1.
         -2   -1    0    0    0  501 -0.00000000000E+00 -0.00000000000E+00 -0.14509049395E+02  0.14509049628E+02  0.26000000000E-02 0. -1.
        -13    1    1    2    0    0 -0.13953221285E+02 -0.51413514139E+01  0.67423179747E+01  0.16327764781E+02  0.10570000000E+00 0. -1.
         13    1    1    2    0    0  0.13953221285E+02  0.51413514139E+01 -0.40264943092E+01  0.15406158103E+02  0.10570000000E+00 0.  1.
<mgrwt>
<rscale>  0 0.31617498E+02</rscale>
<asrwt>0</asrwt>
<pdfrwt beam="1">  1        2 0.26499805E-02 0.31617498E+02</pdfrwt>
<pdfrwt beam="2">  1       -2 0.22321615E-02 0.31617498E+02</pdfrwt>
<totfact> 0.13964437E+06</totfact>
</mgrwt>
</event>
<event>
 4    1  0.3704929E-001  0.2195060E+02  0.7818608E-02  0.1709108E+00
          2   -1    0    0  501    0  0.00000000000E+00  0.00000000000E+00  0.15417830645E+01  0.15417852568E+01  0.26000000000E-02 0. -1.
         -2   -1    0    0    0  501 -0.00000000000E+00 -0.00000000000E+00 -0.78128418606E+02  0.78128418649E+02  0.26000000000E-02 0.  1.
        -13    1    1    2    0    0 -0.95793488062E+01  0.51805412102E+01 -0.33364565833E+02  0.35097113221E+02  0.10570000000E+00 0. -1.
         13    1    1    2    0    0  0.95793488062E+01 -0.51805412102E+01 -0.43222069709E+02  0.44573090685E+02  0.10570000000E+00 0.  1.
<mgrwt>
<rscale>  0 0.21950596E+02</rscale>
<asrwt>0</asrwt>
<pdfrwt beam="1">  1        2 0.23719763E-03 0.21950596E+02</pdfrwt>
<pdfrwt beam="2">  1       -2 0.12019754E-01 0.21950596E+02</pdfrwt>
<totfact> 0.25590845E+06</totfact>
</mgrwt>
</event>
<event>
 4    1  0.3704929E-001  0.1690597E+03  0.7818608E-02  0.1178832E+00
         -2   -1    0    0    0  501 -0.00000000000E+00  0.00000000000E+00  0.72114360803E+02  0.72114360850E+02  0.26000000000E-02 0.  1.
          2   -1    0    0  501    0  0.00000000000E+00 -0.00000000000E+00 -0.99082829546E+02  0.99082829580E+02  0.26000000000E-02 0. -1.
        -13    1    1    2    0    0 -0.82395448715E+02 -0.18338741595E+02 -0.89595941541E+01  0.84885834579E+02  0.10570000000E+00 0.  1.
         13    1    1    2    0    0  0.82395448715E+02  0.18338741595E+02 -0.18008874589E+02  0.86311355851E+02  0.10570000000E+00 0. -1.
<mgrwt>
<rscale>  0 0.16905969E+03</rscale>
<asrwt>0</asrwt>
<pdfrwt beam="2">  1        2 0.15243512E-01 0.16905969E+03</pdfrwt>
<pdfrwt beam="1">  1       -2 0.11094517E-01 0.16905969E+03</pdfrwt>
<totfact> 0.20311745E+04</totfact>
</mgrwt>
</event>
<event>
 4    1  0.3704929E-001  0.2331416E+02  0.7818608E-02  0.1686468E+00
          2   -1    0    0  501    0  0.00000000000E+00  0.00000000000E+00  0.73929581608E+02  0.73929581654E+02  0.26000000000E-02 0.  1.
         -2   -1    0    0    0  501 -0.00000000000E+00 -0.00000000000E+00 -0.18380655698E+01  0.18380674087E+01  0.26000000000E-02 0. -1.
        -13    1    1    2    0    0 -0.97517767913E+01  0.47665066218E+01  0.22234987185E+02  0.24743131645E+02  0.10570000000E+00 0. -1.
         13    1    1    2    0    0  0.97517767913E+01 -0.47665066218E+01  0.49856528853E+02  0.51024517418E+02  0.10570000000E+00 0.  1.
<mgrwt>
<rscale>  0 0.23314158E+02</rscale>
<asrwt>0</asrwt>
<pdfrwt beam="1">  1        2 0.11373782E-01 0.23314158E+02</pdfrwt>
<pdfrwt beam="2">  1       -2 0.28277946E-03 0.23314158E+02</pdfrwt>
<totfact> 0.35094790E+06</totfact>
</mgrwt>
</event>
<event>
 4    1  0.3704929E-001  0.2508859E+02  0.7818608E-02  0.1659733E+00
         -2   -1    0    0    0  501 -0.00000000000E+00  0.00000000000E+00  0.59708837835E+01  0.59708843496E+01  0.26000000000E-02 0. -1.
          2   -1    0    0  501    0  0.00000000000E+00 -0.00000000000E+00 -0.26354439933E+02  0.26354440061E+02  0.26000000000E-02 0.  1.
        -13    1    1    2    0    0  0.10096011946E+02 -0.61251084887E+01 -0.15643254312E+02  0.19600229314E+02  0.10570000000E+00 0.  1.
         13    1    1    2    0    0 -0.10096011946E+02  0.61251084887E+01 -0.47403018373E+01  0.12725095096E+02  0.10570000000E+00 0. -1.
<mgrwt>
<rscale>  0 0.25088588E+02</rscale>
<asrwt>0</asrwt>
<pdfrwt beam="2">  1        2 0.40545292E-02 0.25088588E+02</pdfrwt>
<pdfrwt beam="1">  1       -2 0.91859757E-03 0.25088588E+02</pdfrwt>
<totfact> 0.25440543E+06</totfact>
</mgrwt>
</event>
<event>
 4    1  0.3704929E-001  0.3469443E+02  0.7818608E-02  0.1551331E+00
          2   -1    0    0  501    0  0.00000000000E+00  0.00000000000E+00  0.16590797562E+03  0.16590797564E+03  0.26000000000E-02 0. -1.
         -2   -1    0    0    0  501 -0.00000000000E+00 -0.00000000000E+00 -0.18138109893E+01  0.18138128528E+01  0.26000000000E-02 0.  1.
        -13    1    1    2    0    0  0.32303171909E+01  0.17020112413E+02  0.86358847057E+02  0.88079400618E+02  0.10570000000E+00 0. -1.
         13    1    1    2    0    0 -0.32303171909E+01 -0.17020112413E+02  0.77735317575E+02  0.79642387877E+02  0.10570000000E+00 0.  1.
<mgrwt>
<rscale>  0 0.34694430E+02</rscale>
<asrwt>0</asrwt>
<pdfrwt beam="1">  1        2 0.25524304E-01 0.34694430E+02</pdfrwt>
<pdfrwt beam="2">  1       -2 0.27904799E-03 0.34694430E+02</pdfrwt>
<totfact> 0.16977300E+06</totfact>
</mgrwt>
</event>
<event>
 4    1  0.3704929E-001  0.3713935E+02  0.7818608E-02  0.1530384E+00
          2   -1    0    0  501    0  0.00000000000E+00  0.00000000000E+00  0.34310100912E+01  0.34310110763E+01  0.26000000000E-02 0.  1.
         -2   -1    0    0    0  501 -0.00000000000E+00 -0.00000000000E+00 -0.10050475789E+03  0.10050475792E+03  0.26000000000E-02 0. -1.
        -13    1    1    2    0    0 -0.12344735339E+02  0.81819573907E+01 -0.79886059306E+02  0.81247341872E+02  0.10570000000E+00 0. -1.
         13    1    1    2    0    0  0.12344735339E+02 -0.81819573907E+01 -0.17187688492E+02  0.22688427128E+02  0.10570000000E+00 0.  1.
<mgrwt>
<rscale>  0 0.37139353E+02</rscale>
<asrwt>0</asrwt>
<pdfrwt beam="1">  1        2 0.52784786E-03 0.37139353E+02</pdfrwt>
<pdfrwt beam="2">  1       -2 0.15462268E-01 0.37139353E+02</pdfrwt>
<totfact> 0.72171533E+05</totfact>
</mgrwt>
</event>
<event>
 4    1  0.3704929E-001  0.2923435E+02  0.7818608E-02  0.1606709E+00
          2   -1    0    0  501    0  0.00000000000E+00  0.00000000000E+00  0.20900873851E+01  0.20900890023E+01  0.26000000000E-02 0.  1.
         -2   -1    0    0    0  501 -0.00000000000E+00 -0.00000000000E+00 -0.10222624493E+03  0.10222624496E+03  0.26000000000E-02 0. -1.
        -13    1    1    2    0    0 -0.13726572594E+02 -0.11917745782E+01 -0.32655909371E+02  0.35443740084E+02  0.10570000000E+00 0.  1.
         13    1    1    2    0    0  0.13726572594E+02  0.11917745782E+01 -0.67480248169E+02  0.68872593876E+02  0.10570000000E+00 0. -1.
<mgrwt>
<rscale>  0 0.29234355E+02</rscale>
<asrwt>0</asrwt>
<pdfrwt beam="1">  1        2 0.32155211E-03 0.29234355E+02</pdfrwt>
<pdfrwt beam="2">  1       -2 0.15727111E-01 0.29234355E+02</pdfrwt>
<totfact> 0.12596315E+06</totfact>
</mgrwt>
</event>
<event>
 4    1  0.3704929E-001  0.2509625E+02  0.7818608E-02  0.1659623E+00
         -2   -1    0    0    0  501 -0.00000000000E+00  0.00000000000E+00  0.25657309218E+01  0.25657322392E+01  0.26000000000E-02 0. -1.
          2   -1    0    0  501    0  0.00000000000E+00 -0.00000000000E+00 -0.61368608108E+02  0.61368608163E+02  0.26000000000E-02 0.  1.
        -13    1    1    2    0    0 -0.27664527188E+01  0.11330187226E+02 -0.17611462941E+02  0.21123475155E+02  0.10570000000E+00 0.  1.
         13    1    1    2    0    0  0.27664527188E+01 -0.11330187226E+02 -0.41191414246E+02  0.42810865248E+02  0.10570000000E+00 0. -1.
<mgrwt>
<rscale>  0 0.25096245E+02</rscale>
<asrwt>0</asrwt>
<pdfrwt beam="2">  1        2 0.94413233E-02 0.25096245E+02</pdfrwt>
<pdfrwt beam="1">  1       -2 0.39472799E-03 0.25096245E+02</pdfrwt>
<totfact> 0.28623628E+06</totfact>
</mgrwt>
</event>
<event>
 4    1  0.3704929E-001  0.9799727E+02  0.7818608E-02  0.1284565E+00
         -2   -1    0    0    0  501 -0.00000000000E+00  0.00000000000E+00  0.15562261391E+03  0.15562261393E+03  0.26000000000E-02 0.  1.
          2   -1    0    0  501    0  0.00000000000E+00 -0.00000000000E+00 -0.15427488367E+02  0.15427488586E+02  0.26000000000E-02 0. -1.
        -13    1    1    2    0    0  0.20797130338E+02  0.16688756940E+02  0.14184882672E+03  0.14433341974E+03  0.10570000000E+00 0.  1.
         13    1    1    2    0    0 -0.20797130338E+02 -0.16688756940E+02 -0.16537011822E+01  0.26716682776E+02  0.10570000000E+00 0. -1.
<mgrwt>
<rscale>  0 0.97997267E+02</rscale>
<asrwt>0</asrwt>
<pdfrwt beam="2">  1        2 0.23734598E-02 0.97997267E+02</pdfrwt>
<pdfrwt beam="1">  1       -2 0.23941940E-01 0.97997267E+02</pdfrwt>
<totfact> 0.57389218E+04</totfact>
</mgrwt>
</event>
<event>
 4    1  0.3704929E-001  0.4883121E+02  0.7818608E-02  0.1451750E+00
          2   -1    0    0  501    0  0.00000000000E+00  0.00000000000E+00  0.39667643809E+02  0.39667643894E+02  0.26000000000E-02 0.  1.
         -2   -1    0    0    0  501 -0.00000000000E+00 -0.00000000000E+00 -0.15027909460E+02  0.15027909685E+02  0.26000000000E-02 0. -1.
        -13    1    1    2    0    0  0.99872326550E+01  0.22203576701E+02  0.10264574884E+02  0.26421890630E+02  0.10570000000E+00 0.  1.
         13    1    1    2    0    0 -0.99872326550E+01 -0.22203576701E+02  0.14375159465E+02  0.28273662949E+02  0.10570000000E+00 0. -1.
<mgrwt>
<rscale>  0 0.48831210E+02</rscale>
<asrwt>0</asrwt>
<pdfrwt beam="1">  1        2 0.61027143E-02 0.48831210E+02</pdfrwt>
<pdfrwt beam="2">  1       -2 0.23119862E-02 0.48831210E+02</pdfrwt>
<totfact> 0.52287937E+05</totfact>
</mgrwt>
</event>
<event>
 4    1  0.3704929E-001  0.6150454E+02  0.7818608E-02  0.1391624E+00
          2   -1    0    0  501    0  0.00000000000E+00  0.00000000000E+00  0.21521824635E+02  0.21521824792E+02  0.26000000000E-02 0. -1.
         -2   -1    0    0    0  501 -0.00000000000E+00 -0.00000000000E+00 -0.43941542435E+02  0.43941542511E+02  0.26000000000E-02 0.  1.
        -13    1    1    2    0    0 -0.31039840483E+01 -0.26706228459E+02  0.46785913205E+01  0.27290249994E+02  0.10570000000E+00 0. -1.
         13    1    1    2    0    0  0.31039840483E+01  0.26706228459E+02 -0.27098309120E+02  0.38173117310E+02  0.10570000000E+00 0.  1.
<mgrwt>
<rscale>  0 0.61504542E+02</rscale>
<asrwt>0</asrwt>
<pdfrwt beam="1">  1        2 0.33110500E-02 0.61504542E+02</pdfrwt>
<pdfrwt beam="2">  1       -2 0.67602373E-02 0.61504542E+02</pdfrwt>
<totfact> 0.25390190E+05</totfact>
</mgrwt>
</event>
<event>
 4    1  0.3704929E-001  0.6660894E+02  0.7818608E-02  0.1372020E+00
         -2   -1    0    0    0  501 -0.00000000000E+00  0.00000000000E+00  0.40246873488E+02  0.40246873572E+02  0.26000000000E-02 0. -1.
          2   -1    0    0  501    0  0.00000000000E+00 -0.00000000000E+00 -0.27559600389E+02  0.27559600512E+02  0.26000000000E-02 0.  1.
        -13    1    1    2    0    0  0.22443581111E+02 -0.24595289028E+02  0.55997391372E+01  0.33764046356E+02  0.10570000000E+00 0.  1.
         13    1    1    2    0    0 -0.22443581111E+02  0.24595289028E+02  0.70875339615E+01  0.34042427728E+02  0.10570000000E+00 0. -1.
<mgrwt>
<rscale>  0 0.66608941E+02</rscale>
<asrwt>0</asrwt>
<pdfrwt beam="2">  1        2 0.42399385E-02 0.66608941E+02</pdfrwt>
<pdfrwt beam="1">  1       -2 0.61918267E-02 0.66608941E+02</pdfrwt>
<totfact> 0.21349262E+05</totfact>
</mgrwt>
</event>
<event>
 4    1  0.3704929E-001  0.3341175E+02  0.7818608E-02  0.1563174E+00
         -2   -1    0    0    0  501 -0.00000000000E+00  0.00000000000E+00  0.15232525324E+01  0.15232547514E+01  0.26000000000E-02 0.  1.
          2   -1    0    0  501    0  0.00000000000E+00 -0.00000000000E+00 -0.18321718374E+03  0.18321718376E+03  0.26000000000E-02 0. -1.
        -13    1    1    2    0    0 -0.30665266636E+01 -0.16357508966E+02 -0.98866006861E+02  0.10025702055E+03  0.10570000000E+00 0. -1.
         13    1    1    2    0    0  0.30665266636E+01  0.16357508966E+02 -0.82827924346E+02  0.84483417954E+02  0.10570000000E+00 0.  1.
<mgrwt>
<rscale>  0 0.33411749E+02</rscale>
<asrwt>0</asrwt>
<pdfrwt beam="2">  1        2 0.28187242E-01 0.33411749E+02</pdfrwt>
<pdfrwt beam="1">  1       -2 0.23434686E-03 0.33411749E+02</pdfrwt>
<totfact> 0.19145450E+06</totfact>
</mgrwt>
</event>
<event>
 4    1  0.3704929E-001  0.2542808E+02  0.7818608E-02  0.1654928E+00
          2   -1    0    0  501    0  0.00000000000E+00  0.00000000000E+00  0.83476106412E+02  0.83476106453E+02  0.26000000000E-02 0.  1.
         -2   -1    0    0    0  501 -0.00000000000E+00 -0.00000000000E+00 -0.19364424721E+01  0.19364442176E+01  0.26000000000E-02 0. -1.
        -13    1    1    2    0    0  0.11495804042E+02  0.10924626508E+01  0.22904384372E+02  0.25650906050E+02  0.10570000000E+00 0. -1.
         13    1    1    2    0    0 -0.11495804042E+02 -0.10924626508E+01  0.58635279568E+02  0.59761644621E+02  0.10570000000E+00 0.  1.
<mgrwt>
<rscale>  0 0.25428075E+02</rscale>
<asrwt>0</asrwt>
<pdfrwt beam="1">  1        2 0.12842479E-01 0.25428075E+02</pdfrwt>
<pdfrwt beam="2">  1       -2 0.29791434E-03 0.25428075E+02</pdfrwt>
<totfact> 0.29492050E+06</totfact>
</mgrwt>
</event>
<event>
 4    1  0.3704929E-001  0.2309643E+02  0.7818608E-02  0.1689952E+00
          2   -1    0    0  501    0  0.00000000000E+00  0.00000000000E+00  0.16339637572E+02  0.16339637779E+02  0.26000000000E-02 0.  1.
         -2   -1    0    0    0  501 -0.00000000000E+00 -0.00000000000E+00 -0.81618268485E+01  0.81618272626E+01  0.26000000000E-02 0. -1.
        -13    1    1    2    0    0 -0.80627113551E+01 -0.73004477967E+01  0.82038277596E+01  0.13624162904E+02  0.10570000000E+00 0.  1.
         13    1    1    2    0    0  0.80627113551E+01  0.73004477967E+01 -0.26017035652E-01  0.10877302138E+02  0.10570000000E+00 0. -1.
<mgrwt>
<rscale>  0 0.23096433E+02</rscale>
<asrwt>0</asrwt>
<pdfrwt beam="1">  1        2 0.25137904E-02 0.23096433E+02</pdfrwt>
<pdfrwt beam="2">  1       -2 0.12556657E-02 0.23096433E+02</pdfrwt>
<totfact> 0.29444365E+06</totfact>
</mgrwt>
</event>
<event>
 4    1  0.3704929E-001  0.8764089E+02  0.7818608E-02  0.1308667E+00
          2   -1    0    0  501    0  0.00000000000E+00  0.00000000000E+00  0.80325510246E+01  0.80325514454E+01  0.26000000000E-02 0. -1.
         -2   -1    0    0    0  501 -0.00000000000E+00 -0.00000000000E+00 -0.23905620094E+03  0.23905620095E+03  0.26000000000E-02 0.  1.
        -13    1    1    2    0    0  0.28889647571E+02  0.32423698447E+02 -0.13202648311E+03  0.13898529193E+03  0.10570000000E+00 0.  1.
         13    1    1    2    0    0 -0.28889647571E+02 -0.32423698447E+02 -0.98997166804E+02  0.10810346047E+03  0.10570000000E+00 0. -1.
<mgrwt>
<rscale>  0 0.87640885E+02</rscale>
<asrwt>0</asrwt>
<pdfrwt beam="1">  1        2 0.12357773E-02 0.87640885E+02</pdfrwt>
<pdfrwt beam="2">  1       -2 0.36777872E-01 0.87640885E+02</pdfrwt>
<totfact> 0.63548270E+04</totfact>
</mgrwt>
</event>
<event>
 4    1  0.3704929E-001  0.2277671E+02  0.7818608E-02  0.1695155E+00
          2   -1    0    0  501    0  0.00000000000E+00  0.00000000000E+00  0.46718444188E+01  0.46718451423E+01  0.26000000000E-02 0.  1.
         -2   -1    0    0    0  501 -0.00000000000E+00 -0.00000000000E+00 -0.27760906448E+02  0.27760906570E+02  0.26000000000E-02 0. -1.
        -13    1    1    2    0    0  0.10258867813E+02  0.44244305851E+01 -0.14684809951E+02  0.18451958448E+02  0.10570000000E+00 0.  1.
         13    1    1    2    0    0 -0.10258867813E+02 -0.44244305851E+01 -0.84042520790E+01  0.13980793264E+02  0.10570000000E+00 0. -1.
<mgrwt>
<rscale>  0 0.22776712E+02</rscale>
<asrwt>0</asrwt>
<pdfrwt beam="1">  1        2 0.71874538E-03 0.22776712E+02</pdfrwt>
<pdfrwt beam="2">  1       -2 0.42709086E-02 0.22776712E+02</pdfrwt>
<totfact> 0.27302807E+06</totfact>
</mgrwt>
</event>
<event>
 4    1  0.3704929E-001  0.2718980E+02  0.7818608E-02  0.1631405E+00
         -2   -1    0    0    0  501 -0.00000000000E+00  0.00000000000E+00  0.26769545801E+01  0.26769558427E+01  0.26000000000E-02 0.  1.
          2   -1    0    0  501    0  0.00000000000E+00 -0.00000000000E+00 -0.69041624101E+02  0.69041624150E+02  0.26000000000E-02 0. -1.
        -13    1    1    2    0    0 -0.70428740490E+01  0.11289533509E+02 -0.40527527932E+02  0.42656152363E+02  0.10570000000E+00 0. -1.
         13    1    1    2    0    0  0.70428740490E+01 -0.11289533509E+02 -0.25837141589E+02  0.29062427629E+02  0.10570000000E+00 0.  1.
<mgrwt>
<rscale>  0 0.27189802E+02</rscale>
<asrwt>0</asrwt>
<pdfrwt beam="2">  1        2 0.10621787E-01 0.27189802E+02</pdfrwt>
<pdfrwt beam="1">  1       -2 0.41183932E-03 0.27189802E+02</pdfrwt>
<totfact> 0.24288339E+06</totfact>
</mgrwt>
</event>
<event>
 4    1  0.3704929E-001  0.3727151E+02  0.7818608E-02  0.1529307E+00
          2   -1    0    0  501    0  0.00000000000E+00  0.00000000000E+00  0.35781798480E+01  0.35781807926E+01  0.26000000000E-02 0.  1.
         -2   -1    0    0    0  501 -0.00000000000E+00 -0.00000000000E+00 -0.97058081522E+02  0.97058081557E+02  0.26000000000E-02 0. -1.
        -13    1    1    2    0    0  0.11699100782E+02  0.14401646837E+02 -0.42060337507E+02  0.45971290545E+02  0.10570000000E+00 0. -1.
         13    1    1    2    0    0 -0.11699100782E+02 -0.14401646837E+02 -0.51419564167E+02  0.54664971804E+02  0.10570000000E+00 0.  1.
<mgrwt>
<rscale>  0 0.37271508E+02</rscale>
<asrwt>0</asrwt>
<pdfrwt beam="1">  1        2 0.55048936E-03 0.37271508E+02</pdfrwt>
<pdfrwt beam="2">  1       -2 0.14932011E-01 0.37271508E+02</pdfrwt>
<totfact> 0.72172336E+05</totfact>
</mgrwt>
</event>
<event>
 4    1  0.3704929E-001  0.2704436E+02  0.7818608E-02  0.1633263E+00
         -2   -1    0    0    0  501 -0.00000000000E+00  0.00000000000E+00  0.19996046377E+02  0.19996046546E+02  0.26000000000E-02 0. -1.
          2   -1    0    0  501    0  0.00000000000E+00 -0.00000000000E+00 -0.91442720748E+01  0.91442724445E+01  0.26000000000E-02 0.  1.
        -13    1    1    2    0    0 -0.95118316305E+01 -0.93629293102E+01  0.30902345037E+01  0.13700368901E+02  0.10570000000E+00 0.  1.
         13    1    1    2    0    0  0.95118316305E+01  0.93629293102E+01  0.77615397980E+01  0.15439950089E+02  0.10570000000E+00 0. -1.
<mgrwt>
<rscale>  0 0.27044356E+02</rscale>
<asrwt>0</asrwt>
<pdfrwt beam="2">  1        2 0.14068111E-02 0.27044356E+02</pdfrwt>
<pdfrwt beam="1">  1       -2 0.30763149E-02 0.27044356E+02</pdfrwt>
<totfact> 0.19206656E+06</totfact>
</mgrwt>
</event>
<event>
 4    1  0.3704929E-001  0.2397411E+02  0.7818608E-02  0.1676190E+00
         -2   -1    0    0    0  501 -0.00000000000E+00  0.00000000000E+00  0.31076460053E+01  0.31076470929E+01  0.26000000000E-02 0.  1.
          2   -1    0    0  501    0  0.00000000000E+00 -0.00000000000E+00 -0.46237401426E+02  0.46237401499E+02  0.26000000000E-02 0. -1.
        -13    1    1    2    0    0 -0.11329393521E+02  0.11654937989E+01 -0.13873247430E+02  0.17949699164E+02  0.10570000000E+00 0. -1.
         13    1    1    2    0    0  0.11329393521E+02 -0.11654937989E+01 -0.29256507991E+02  0.31395349427E+02  0.10570000000E+00 0.  1.
<mgrwt>
<rscale>  0 0.23974111E+02</rscale>
<asrwt>0</asrwt>
<pdfrwt beam="2">  1        2 0.71134460E-02 0.23974111E+02</pdfrwt>
<pdfrwt beam="1">  1       -2 0.47809951E-03 0.23974111E+02</pdfrwt>
<totfact> 0.30370311E+06</totfact>
</mgrwt>
</event>
<event>
 4    1  0.3704929E-001  0.2294455E+02  0.7818608E-02  0.1692411E+00
          2   -1    0    0  501    0  0.00000000000E+00  0.00000000000E+00  0.40166279675E+02  0.40166279759E+02  0.26000000000E-02 0. -1.
         -2   -1    0    0    0  501 -0.00000000000E+00 -0.00000000000E+00 -0.32767040834E+01  0.32767051149E+01  0.26000000000E-02 0.  1.
        -13    1    1    2    0    0  0.29319822755E+01  0.96640647807E+01  0.28747894138E+02  0.30470366883E+02  0.10570000000E+00 0. -1.
         13    1    1    2    0    0 -0.29319822755E+01 -0.96640647807E+01  0.81416814538E+01  0.12972617991E+02  0.10570000000E+00 0.  1.
<mgrwt>
<rscale>  0 0.22944545E+02</rscale>
<asrwt>0</asrwt>
<pdfrwt beam="1">  1        2 0.61794278E-02 0.22944545E+02</pdfrwt>
<pdfrwt beam="2">  1       -2 0.50410840E-03 0.22944545E+02</pdfrwt>
<totfact> 0.32922313E+06</totfact>
</mgrwt>
</event>
<event>
 4    1  0.3704929E-001  0.3832757E+02  0.7818608E-02  0.1520892E+00
         -2   -1    0    0    0  501 -0.00000000000E+00  0.00000000000E+00  0.11950508471E+02  0.11950508754E+02  0.26000000000E-02 0. -1.
          2   -1    0    0  501    0  0.00000000000E+00 -0.00000000000E+00 -0.30730969491E+02  0.30730969601E+02  0.26000000000E-02 0.  1.
        -13    1    1    2    0    0 -0.16614778556E+02 -0.84091631793E+01 -0.14429138513E+02  0.23557930778E+02  0.10570000000E+00 0.  1.
         13    1    1    2    0    0  0.16614778556E+02  0.84091631793E+01 -0.43513225068E+01  0.19123547576E+02  0.10570000000E+00 0. -1.
<mgrwt>
<rscale>  0 0.38327573E+02</rscale>
<asrwt>0</asrwt>
<pdfrwt beam="2">  1        2 0.47278415E-02 0.38327573E+02</pdfrwt>
<pdfrwt beam="1">  1       -2 0.18385398E-02 0.38327573E+02</pdfrwt>
<totfact> 0.92999872E+05</totfact>
</mgrwt>
</event>
<event>
 4    1  0.3704929E-001  0.5962756E+02  0.7818608E-02  0.1399401E+00
          2   -1    0    0  501    0  0.00000000000E+00  0.00000000000E+00  0.52524238410E+02  0.52524238475E+02  0.26000000000E-02 0. -1.
         -2   -1    0    0    0  501 -0.00000000000E+00 -0.00000000000E+00 -0.16922881595E+02  0.16922881795E+02  0.26000000000E-02 0.  1.
        -13    1    1    2    0    0 -0.28339636754E+01 -0.96522361520E+01  0.50487654850E+02  0.51480204716E+02  0.10570000000E+00 0. -1.
         13    1    1    2    0    0  0.28339636754E+01  0.96522361520E+01 -0.14886298035E+02  0.17966915554E+02  0.10570000000E+00 0.  1.
<mgrwt>
<rscale>  0 0.59627560E+02</rscale>
<asrwt>0</asrwt>
<pdfrwt beam="1">  1        2 0.80806520E-02 0.59627560E+02</pdfrwt>
<pdfrwt beam="2">  1       -2 0.26035203E-02 0.59627560E+02</pdfrwt>
<totfact> 0.32733311E+05</totfact>
</mgrwt>
</event>
<event>
 4    1  0.3704929E-001  0.2639363E+02  0.7818608E-02  0.1641755E+00
          2   -1    0    0  501    0  0.00000000000E+00  0.00000000000E+00  0.67757023452E+02  0.67757023502E+02  0.26000000000E-02 0. -1.
         -2   -1    0    0    0  501 -0.00000000000E+00 -0.00000000000E+00 -0.25703006240E+01  0.25703019391E+01  0.26000000000E-02 0.  1.
        -13    1    1    2    0    0  0.11381275458E+02  0.64200125824E+01  0.27683918816E+02  0.30613077697E+02  0.10570000000E+00 0.  1.
         13    1    1    2    0    0 -0.11381275458E+02 -0.64200125824E+01  0.37502804012E+02  0.39714247744E+02  0.10570000000E+00 0. -1.
<mgrwt>
<rscale>  0 0.26393633E+02</rscale>
<asrwt>0</asrwt>
<pdfrwt beam="1">  1        2 0.10424157E-01 0.26393633E+02</pdfrwt>
<pdfrwt beam="2">  1       -2 0.39543099E-03 0.26393633E+02</pdfrwt>
<totfact> 0.25936545E+06</totfact>
</mgrwt>
</event>
<event>
 4    1  0.3704929E-001  0.2591034E+02  0.7818608E-02  0.1648260E+00
         -2   -1    0    0    0  501 -0.00000000000E+00  0.00000000000E+00  0.12654004034E+01  0.12654030745E+01  0.26000000000E-02 0. -1.
          2   -1    0    0  501    0  0.00000000000E+00 -0.00000000000E+00 -0.13263489680E+03  0.13263489682E+03  0.26000000000E-02 0.  1.
        -13    1    1    2    0    0 -0.10942288463E+02 -0.66399872464E+01 -0.55346302475E+02  0.56807107633E+02  0.10570000000E+00 0. -1.
         13    1    1    2    0    0  0.10942288463E+02  0.66399872464E+01 -0.76023193918E+02  0.77093192264E+02  0.10570000000E+00 0.  1.
<mgrwt>
<rscale>  0 0.25910340E+02</rscale>
<asrwt>0</asrwt>
<pdfrwt beam="2">  1        2 0.20405358E-01 0.25910340E+02</pdfrwt>
<pdfrwt beam="1">  1       -2 0.19467730E-03 0.25910340E+02</pdfrwt>
<totfact> 0.31581275E+06</totfact>
</mgrwt>
</event>
<event>
 4    1  0.3704929E-001  0.5045591E+02  0.7818608E-02  0.1442898E+00
         -2   -1    0    0    0  501 -0.00000000000E+00  0.00000000000E+00  0.13671307432E+02  0.13671307680E+02  0.26000000000E-02 0.  1.
          2   -1    0    0  501    0  0.00000000000E+00 -0.00000000000E+00 -0.46553673705E+02  0.46553673778E+02  0.26000000000E-02 0. -1.
        -13    1    1    2    0    0  0.24388981199E+02  0.18822791140E+00 -0.87443868966E+01  0.25910100509E+02  0.10570000000E+00 0.  1.
         13    1    1    2    0    0 -0.24388981199E+02 -0.18822791140E+00 -0.24137979376E+02  0.34314880949E+02  0.10570000000E+00 0. -1.
<mgrwt>
<rscale>  0 0.50455905E+02</rscale>
<asrwt>0</asrwt>
<pdfrwt beam="2">  1        2 0.71621036E-02 0.50455905E+02</pdfrwt>
<pdfrwt beam="1">  1       -2 0.21032781E-02 0.50455905E+02</pdfrwt>
<totfact> 0.49446593E+05</totfact>
</mgrwt>
</event>
<event>
 4    1  0.3704929E-001  0.2491022E+02  0.7818608E-02  0.1662295E+00
          2   -1    0    0  501    0  0.00000000000E+00  0.00000000000E+00  0.17980693076E+02  0.17980693264E+02  0.26000000000E-02 0.  1.
         -2   -1    0    0    0  501 -0.00000000000E+00 -0.00000000000E+00 -0.86275737616E+01  0.86275741533E+01  0.26000000000E-02 0. -1.
        -13    1    1    2    0    0  0.29982888167E+01 -0.99392529146E+01  0.12025989559E+02  0.15887544860E+02  0.10570000000E+00 0.  1.
         13    1    1    2    0    0 -0.29982888167E+01  0.99392529146E+01 -0.26728702438E+01  0.10720722558E+02  0.10570000000E+00 0. -1.
<mgrwt>
<rscale>  0 0.24910220E+02</rscale>
<asrwt>0</asrwt>
<pdfrwt beam="1">  1        2 0.27662605E-02 0.24910220E+02</pdfrwt>
<pdfrwt beam="2">  1       -2 0.13273191E-02 0.24910220E+02</pdfrwt>
<totfact> 0.24889379E+06</totfact>
</mgrwt>
</event>
<event>
 4    1  0.3704929E-001  0.5075178E+02  0.7818608E-02  0.1441328E+00
         -2   -1    0    0    0  501 -0.00000000000E+00  0.00000000000E+00  0.17701888473E+02  0.17701888664E+02  0.26000000000E-02 0. -1.
          2   -1    0    0  501    0  0.00000000000E+00 -0.00000000000E+00 -0.36376674892E+02  0.36376674985E+02  0.26000000000E-02 0.  1.
        -13    1    1    2    0    0 -0.82972166914E+01  0.22999069631E+02 -0.16574013257E+02  0.29538281884E+02  0.10570000000E+00 0.  1.
         13    1    1    2    0    0  0.82972166914E+01 -0.22999069631E+02 -0.21007731613E+01  0.24540281765E+02  0.10570000000E+00 0. -1.
<mgrwt>
<rscale>  0 0.50751782E+02</rscale>
<asrwt>0</asrwt>
<pdfrwt beam="2">  1        2 0.55964116E-02 0.50751782E+02</pdfrwt>
<pdfrwt beam="1">  1       -2 0.27233675E-02 0.50751782E+02</pdfrwt>
<totfact> 0.46616722E+05</totfact>
</mgrwt>
</event>
<event>
 4    1  0.3704929E-001  0.2573293E+02  0.7818608E-02  0.1650692E+00
          2   -1    0    0  501    0  0.00000000000E+00  0.00000000000E+00  0.80899338485E+01  0.80899342663E+01  0.26000000000E-02 0.  1.
         -2   -1    0    0    0  501 -0.00000000000E+00 -0.00000000000E+00 -0.20463198802E+02  0.20463198968E+02  0.26000000000E-02 0. -1.
        -13    1    1    2    0    0  0.74293292763E+01  0.96613729404E+01 -0.16119643133E+01  0.12294171872E+02  0.10570000000E+00 0.  1.
         13    1    1    2    0    0 -0.74293292763E+01 -0.96613729404E+01 -0.10761300641E+02  0.16258961362E+02  0.10570000000E+00 0. -1.
<mgrwt>
<rscale>  0 0.25732931E+02</rscale>
<asrwt>0</asrwt>
<pdfrwt beam="1">  1        2 0.12446053E-02 0.25732931E+02</pdfrwt>
<pdfrwt beam="2">  1       -2 0.31481845E-02 0.25732931E+02</pdfrwt>
<totfact> 0.21423633E+06</totfact>
</mgrwt>
</event>
<event>
 4    1  0.3704929E-001  0.3128319E+02  0.7818608E-02  0.1584323E+00
         -2   -1    0    0    0  501 -0.00000000000E+00  0.00000000000E+00  0.34519610502E+01  0.34519620293E+01  0.26000000000E-02 0. -1.
          2   -1    0    0  501    0  0.00000000000E+00 -0.00000000000E+00 -0.70875490270E+02  0.70875490318E+02  0.26000000000E-02 0.  1.
        -13    1    1    2    0    0  0.14178581433E+02 -0.61089921254E+01 -0.39673632732E+02  0.42571824754E+02  0.10570000000E+00 0.  1.
         13    1    1    2    0    0 -0.14178581433E+02  0.61089921254E+01 -0.27749896488E+02  0.31755627593E+02  0.10570000000E+00 0. -1.
<mgrwt>
<rscale>  0 0.31283188E+02</rscale>
<asrwt>0</asrwt>
<pdfrwt beam="2">  1        2 0.10903921E-01 0.31283188E+02</pdfrwt>
<pdfrwt beam="1">  1       -2 0.53107106E-03 0.31283188E+02</pdfrwt>
<totfact> 0.17533259E+06</totfact>
</mgrwt>
</event>
<event>
 4    1  0.3704929E-001  0.2599986E+02  0.7818608E-02  0.1647042E+00
          2   -1    0    0  501    0  0.00000000000E+00  0.00000000000E+00  0.38320142092E+02  0.38320142180E+02  0.26000000000E-02 0.  1.
         -2   -1    0    0    0  501 -0.00000000000E+00 -0.00000000000E+00 -0.44101655949E+01  0.44101663614E+01  0.26000000000E-02 0. -1.
        -13    1    1    2    0    0  0.11899050225E+02  0.21888970499E+01  0.24769456907E+02  0.27566570960E+02  0.10570000000E+00 0. -1.
         13    1    1    2    0    0 -0.11899050225E+02 -0.21888970499E+01  0.91405195897E+01  0.15163737581E+02  0.10570000000E+00 0.  1.
<mgrwt>
<rscale>  0 0.25999861E+02</rscale>
<asrwt>0</asrwt>
<pdfrwt beam="1">  1        2 0.58954063E-02 0.25999861E+02</pdfrwt>
<pdfrwt beam="2">  1       -2 0.67848710E-03 0.25999861E+02</pdfrwt>
<totfact> 0.24496191E+06</totfact>
</mgrwt>
</event>
<event>
 4    1  0.3704929E-001  0.2284947E+02  0.7818608E-02  0.1693962E+00
          2   -1    0    0  501    0  0.00000000000E+00  0.00000000000E+00  0.31049469987E+01  0.31049480873E+01  0.26000000000E-02 0. -1.
         -2   -1    0    0    0  501 -0.00000000000E+00 -0.00000000000E+00 -0.42037601640E+02  0.42037601720E+02  0.26000000000E-02 0.  1.
        -13    1    1    2    0    0  0.11309025296E+02  0.85333541152E+00 -0.16749435539E+02  0.20228123933E+02  0.10570000000E+00 0. -1.
         13    1    1    2    0    0 -0.11309025296E+02 -0.85333541152E+00 -0.22183219102E+02  0.24914425875E+02  0.10570000000E+00 0.  1.
<mgrwt>
<rscale>  0 0.22849468E+02</rscale>
<asrwt>0</asrwt>
<pdfrwt beam="1">  1        2 0.47768427E-03 0.22849468E+02</pdfrwt>
<pdfrwt beam="2">  1       -2 0.64673230E-02 0.22849468E+02</pdfrwt>
<totfact> 0.25862200E+06</totfact>
</mgrwt>
</event>
<event>
 4    1  0.3704929E-001  0.2218681E+02  0.7818608E-02  0.1705041E+00
         -2   -1    0    0    0  501 -0.00000000000E+00  0.00000000000E+00  0.11070226945E+02  0.11070227251E+02  0.26000000000E-02 0. -1.
          2   -1    0    0  501    0  0.00000000000E+00 -0.00000000000E+00 -0.11116635059E+02  0.11116635363E+02  0.26000000000E-02 0.  1.
        -13    1    1    2    0    0  0.31886599145E-01 -0.10102354909E+02 -0.46051258855E+01  0.11103015283E+02  0.10570000000E+00 0. -1.
         13    1    1    2    0    0 -0.31886599145E-01  0.10102354909E+02  0.45587177714E+01  0.11083847331E+02  0.10570000000E+00 0.  1.
<mgrwt>
<rscale>  0 0.22186814E+02</rscale>
<asrwt>0</asrwt>
<pdfrwt beam="2">  1        2 0.17102516E-02 0.22186814E+02</pdfrwt>
<pdfrwt beam="1">  1       -2 0.17031119E-02 0.22186814E+02</pdfrwt>
<totfact> 0.31309647E+06</totfact>
</mgrwt>
</event>
<event>
 4    1  0.3704929E-001  0.5851506E+02  0.7818608E-02  0.1404171E+00
         -2   -1    0    0    0  501 -0.00000000000E+00  0.00000000000E+00  0.92430182848E+01  0.92430186505E+01  0.26000000000E-02 0.  1.
          2   -1    0    0  501    0  0.00000000000E+00 -0.00000000000E+00 -0.92610772523E+02  0.92610772560E+02  0.26000000000E-02 0. -1.
        -13    1    1    2    0    0 -0.20208964035E+02 -0.17657642339E+02 -0.61967951220E+02  0.67529495121E+02  0.10570000000E+00 0. -1.
         13    1    1    2    0    0  0.20208964035E+02  0.17657642339E+02 -0.21399803018E+02  0.34324296089E+02  0.10570000000E+00 0.  1.
<mgrwt>
<rscale>  0 0.58515061E+02</rscale>
<asrwt>0</asrwt>
<pdfrwt beam="2">  1        2 0.14247811E-01 0.58515061E+02</pdfrwt>
<pdfrwt beam="1">  1       -2 0.14220029E-02 0.58515061E+02</pdfrwt>
<totfact> 0.39228852E+05</totfact>
</mgrwt>
</event>
<event>
 4    1  0.3704929E-001  0.2224663E+02  0.7818608E-02  0.1704021E+00
         -2   -1    0    0    0  501 -0.00000000000E+00  0.00000000000E+00  0.33939445797E+01  0.33939455756E+01  0.26000000000E-02 0.  1.
          2   -1    0    0  501    0  0.00000000000E+00 -0.00000000000E+00 -0.36455539644E+02  0.36455539737E+02  0.26000000000E-02 0. -1.
        -13    1    1    2    0    0  0.57164041905E+01  0.95406496575E+01 -0.16754938579E+02  0.20110703917E+02  0.10570000000E+00 0. -1.
         13    1    1    2    0    0 -0.57164041905E+01 -0.95406496575E+01 -0.16306656486E+02  0.19738781396E+02  0.10570000000E+00 0.  1.
<mgrwt>
<rscale>  0 0.22246627E+02</rscale>
<asrwt>0</asrwt>
<pdfrwt beam="2">  1        2 0.56085444E-02 0.22246627E+02</pdfrwt>
<pdfrwt beam="1">  1       -2 0.52214543E-03 0.22246627E+02</pdfrwt>
<totfact> 0.34882951E+06</totfact>
</mgrwt>
</event>
<event>
 4    1  0.3704929E-001  0.5437119E+02  0.7818608E-02  0.1423096E+00
          2   -1    0    0  501    0  0.00000000000E+00  0.00000000000E+00  0.50826790076E+02  0.50826790142E+02  0.26000000000E-02 0. -1.
         -2   -1    0    0    0  501 -0.00000000000E+00 -0.00000000000E+00 -0.14540688704E+02  0.14540688937E+02  0.26000000000E-02 0.  1.
        -13    1    1    2    0    0 -0.59746497076E+01  0.20127996009E+02  0.38904419364E+02  0.44208570221E+02  0.10570000000E+00 0. -1.
         13    1    1    2    0    0  0.59746497076E+01 -0.20127996009E+02 -0.26183179927E+01  0.21158908858E+02  0.10570000000E+00 0.  1.
<mgrwt>
<rscale>  0 0.54371189E+02</rscale>
<asrwt>0</asrwt>
<pdfrwt beam="1">  1        2 0.78195060E-02 0.54371189E+02</pdfrwt>
<pdfrwt beam="2">  1       -2 0.22370291E-02 0.54371189E+02</pdfrwt>
<totfact> 0.41421196E+05</totfact>
</mgrwt>
</event>
<event>
 4    1  0.3704929E-001  0.3453806E+02  0.7818608E-02  0.1552741E+00
         -2   -1    0    0    0  501 -0.00000000000E+00  0.00000000000E+00  0.11215240274E+03  0.11215240277E+03  0.26000000000E-02 0.  1.
          2   -1    0    0  501    0  0.00000000000E+00 -0.00000000000E+00 -0.26590541552E+01  0.26590554263E+01  0.26000000000E-02 0. -1.
        -13    1    1    2    0    0  0.16309816664E+02  0.34612649197E+01  0.69693659576E+02  0.71660364442E+02  0.10570000000E+00 0.  1.
         13    1    1    2    0    0 -0.16309816664E+02 -0.34612649197E+01  0.39799689007E+02  0.43151093752E+02  0.10570000000E+00 0. -1.
<mgrwt>
<rscale>  0 0.34538059E+02</rscale>
<asrwt>0</asrwt>
<pdfrwt beam="2">  1        2 0.40908537E-03 0.34538059E+02</pdfrwt>
<pdfrwt beam="1">  1       -2 0.17254215E-01 0.34538059E+02</pdfrwt>
<totfact> 0.83350101E+05</totfact>
</mgrwt>
</event>
<event>
 4    1  0.3704929E-001  0.2690308E+02  0.7818608E-02  0.1635082E+00
          2   -1    0    0  501    0  0.00000000000E+00  0.00000000000E+00  0.36253430917E+02  0.36253431010E+02  0.26000000000E-02 0. -1.
         -2   -1    0    0    0  501 -0.00000000000E+00 -0.00000000000E+00 -0.49910845913E+01  0.49910852685E+01  0.26000000000E-02 0.  1.
        -13    1    1    2    0    0 -0.11366471424E+02 -0.28785765112E+01  0.25736691881E+02  0.28281997045E+02  0.10570000000E+00 0. -1.
         13    1    1    2    0    0  0.11366471424E+02  0.28785765112E+01  0.55256544446E+01  0.12962519234E+02  0.10570000000E+00 0.  1.
<mgrwt>
<rscale>  0 0.26903082E+02</rscale>
<asrwt>0</asrwt>
<pdfrwt beam="1">  1        2 0.55774511E-02 0.26903082E+02</pdfrwt>
<pdfrwt beam="2">  1       -2 0.76785921E-03 0.26903082E+02</pdfrwt>
<totfact> 0.22442266E+06</totfact>
</mgrwt>
</event>
<event>
 4    1  0.3704929E-001  0.2827522E+02  0.7818608E-02  0.1617976E+00
          2   -1    0    0  501    0  0.00000000000E+00  0.00000000000E+00  0.14671143869E+02  0.14671144100E+02  0.26000000000E-02 0.  1.
         -2   -1    0    0    0  501 -0.00000000000E+00 -0.00000000000E+00 -0.13623473652E+02  0.13623473900E+02  0.26000000000E-02 0. -1.
        -13    1    1    2    0    0  0.13704220121E+02  0.22452748200E+01  0.31740232886E+01  0.14245438023E+02  0.10570000000E+00 0.  1.
         13    1    1    2    0    0 -0.13704220121E+02 -0.22452748200E+01 -0.21263530715E+01  0.14049179977E+02  0.10570000000E+00 0. -1.
<mgrwt>
<rscale>  0 0.28275215E+02</rscale>
<asrwt>0</asrwt>
<pdfrwt beam="1">  1        2 0.22570991E-02 0.28275215E+02</pdfrwt>
<pdfrwt beam="2">  1       -2 0.20959191E-02 0.28275215E+02</pdfrwt>
<totfact> 0.18041489E+06</totfact>
</mgrwt>
</event>
<event>
 4    1  0.3704929E-001  0.2137714E+02  0.7818608E-02  0.1719252E+00
         -2   -1    0    0    0  501 -0.00000000000E+00  0.00000000000E+00  0.37888529197E+01  0.37888538118E+01  0.26000000000E-02 0.  1.
          2   -1    0    0  501    0  0.00000000000E+00 -0.00000000000E+00 -0.30153046729E+02  0.30153046841E+02  0.26000000000E-02 0. -1.
        -13    1    1    2    0    0 -0.84438274922E+01  0.64448747649E+01 -0.15060546388E+02  0.18430026138E+02  0.10570000000E+00 0. -1.
         13    1    1    2    0    0  0.84438274922E+01 -0.64448747649E+01 -0.11303647421E+02  0.15511874515E+02  0.10570000000E+00 0.  1.
<mgrwt>
<rscale>  0 0.21377135E+02</rscale>
<asrwt>0</asrwt>
<pdfrwt beam="2">  1        2 0.46389302E-02 0.21377135E+02</pdfrwt>
<pdfrwt beam="1">  1       -2 0.58290055E-03 0.21377135E+02</pdfrwt>
<totfact> 0.37340320E+06</totfact>
</mgrwt>
</event>
<event>
 4    1  0.3704929E-001  0.2282751E+02  0.7818608E-02  0.1694322E+00
         -2   -1    0    0    0  501 -0.00000000000E+00  0.00000000000E+00  0.16419231525E+01  0.16419252111E+01  0.26000000000E-02 0. -1.
          2   -1    0    0  501    0  0.00000000000E+00 -0.00000000000E+00 -0.79342133504E+02  0.79342133546E+02  0.26000000000E-02 0.  1.
        -13    1    1    2    0    0 -0.42942588354E+01  0.10571005349E+02 -0.37873465838E+02  0.39554992101E+02  0.10570000000E+00 0.  1.
         13    1    1    2    0    0  0.42942588354E+01 -0.10571005349E+02 -0.39826744513E+02  0.41429066656E+02  0.10570000000E+00 0. -1.
<mgrwt>
<rscale>  0 0.22827507E+02</rscale>
<asrwt>0</asrwt>
<pdfrwt beam="2">  1        2 0.12206479E-01 0.22827507E+02</pdfrwt>
<pdfrwt beam="1">  1       -2 0.25260379E-03 0.22827507E+02</pdfrwt>
<totfact> 0.37341579E+06</totfact>
</mgrwt>
</event>
<event>
 4    1  0.3704929E-001  0.2750216E+02  0.7818608E-02  0.1627462E+00
          2   -1    0    0  501    0  0.00000000000E+00  0.00000000000E+00  0.39187897836E+02  0.39187897922E+02  0.26000000000E-02 0.  1.
         -2   -1    0    0    0  501 -0.00000000000E+00 -0.00000000000E+00 -0.48252715438E+01  0.48252722443E+01  0.26000000000E-02 0. -1.
        -13    1    1    2    0    0 -0.89188517012E+01 -0.48098032778E+01  0.23056929526E+01  0.10392666439E+02  0.10570000000E+00 0. -1.
         13    1    1    2    0    0  0.89188517012E+01  0.48098032778E+01  0.32056933339E+02  0.33620503727E+02  0.10570000000E+00 0.  1.
<mgrwt>
<rscale>  0 0.27502165E+02</rscale>
<asrwt>0</asrwt>
<pdfrwt beam="1">  1        2 0.60289073E-02 0.27502165E+02</pdfrwt>
<pdfrwt beam="2">  1       -2 0.74234955E-03 0.27502165E+02</pdfrwt>
<totfact> 0.21534347E+06</totfact>
</mgrwt>
</event>
<event>
 4    1  0.3704929E-001  0.4839392E+02  0.7818608E-02  0.1454202E+00
         -2   -1    0    0    0  501 -0.00000000000E+00  0.00000000000E+00  0.36378209259E+02  0.36378209352E+02  0.26000000000E-02 0.  1.
          2   -1    0    0  501    0  0.00000000000E+00 -0.00000000000E+00 -0.16094603091E+02  0.16094603301E+02  0.26000000000E-02 0. -1.
        -13    1    1    2    0    0 -0.12461740804E+02 -0.93651985539E+01 -0.99242057111E+01  0.18479798681E+02  0.10570000000E+00 0. -1.
         13    1    1    2    0    0  0.12461740804E+02  0.93651985539E+01  0.30207811880E+02  0.33993013972E+02  0.10570000000E+00 0.  1.
<mgrwt>
<rscale>  0 0.48393919E+02</rscale>
<asrwt>0</asrwt>
<pdfrwt beam="2">  1        2 0.24760928E-02 0.48393919E+02</pdfrwt>
<pdfrwt beam="1">  1       -2 0.55966476E-02 0.48393919E+02</pdfrwt>
<totfact> 0.46441762E+05</totfact>
</mgrwt>
</event>
<event>
 4    1  0.3704929E-001  0.2392679E+02  0.7818608E-02  0.1676913E+00
          2   -1    0    0  501    0  0.00000000000E+00  0.00000000000E+00  0.96777004761E+01  0.96777008254E+01  0.26000000000E-02 0. -1.
         -2   -1    0    0    0  501 -0.00000000000E+00 -0.00000000000E+00 -0.14788931371E+02  0.14788931600E+02  0.26000000000E-02 0.  1.
        -13    1    1    2    0    0 -0.48150623924E+01 -0.95282918171E+01  0.29641851692E+01  0.11080195711E+02  0.10570000000E+00 0. -1.
         13    1    1    2    0    0  0.48150623924E+01  0.95282918171E+01 -0.80754160645E+01  0.13386436714E+02  0.10570000000E+00 0.  1.
<mgrwt>
<rscale>  0 0.23926793E+02</rscale>
<asrwt>0</asrwt>
<pdfrwt beam="1">  1        2 0.14888770E-02 0.23926793E+02</pdfrwt>
<pdfrwt beam="2">  1       -2 0.22752203E-02 0.23926793E+02</pdfrwt>
<totfact> 0.25923659E+06</totfact>
</mgrwt>
</event>
<event>
 4    1  0.3704929E-001  0.2987926E+02  0.7818608E-02  0.1599427E+00
          2   -1    0    0  501    0  0.00000000000E+00  0.00000000000E+00  0.88240182851E+02  0.88240182889E+02  0.26000000000E-02 0. -1.
         -2   -1    0    0    0  501 -0.00000000000E+00 -0.00000000000E+00 -0.25293748331E+01  0.25293761694E+01  0.26000000000E-02 0.  1.
        -13    1    1    2    0    0  0.10635531963E+02  0.94855823692E+01  0.29238870706E+02  0.32527120156E+02  0.10570000000E+00 0.  1.
         13    1    1    2    0    0 -0.10635531963E+02 -0.94855823692E+01  0.56471937312E+02  0.58242438903E+02  0.10570000000E+00 0. -1.
<mgrwt>
<rscale>  0 0.29879261E+02</rscale>
<asrwt>0</asrwt>
<pdfrwt beam="1">  1        2 0.13575412E-01 0.29879261E+02</pdfrwt>
<pdfrwt beam="2">  1       -2 0.38913471E-03 0.29879261E+02</pdfrwt>
<totfact> 0.20488997E+06</totfact>
</mgrwt>
</event>
<event>
 4    1  0.3704929E-001  0.6132087E+02  0.7818608E-02  0.1392371E+00
         -2   -1    0    0    0  501 -0.00000000000E+00  0.00000000000E+00  0.77757859331E+02  0.77757859375E+02  0.26000000000E-02 0.  1.
          2   -1    0    0  501    0  0.00000000000E+00 -0.00000000000E+00 -0.12089610159E+02  0.12089610438E+02  0.26000000000E-02 0. -1.
        -13    1    1    2    0    0 -0.13435674075E+02 -0.13159582659E+02 -0.26455304676E+01  0.18992155158E+02  0.10570000000E+00 0. -1.
         13    1    1    2    0    0  0.13435674075E+02  0.13159582659E+02  0.68313779640E+02  0.70855314655E+02  0.10570000000E+00 0.  1.
<mgrwt>
<rscale>  0 0.61320868E+02</rscale>
<asrwt>0</asrwt>
<pdfrwt beam="2">  1        2 0.18599400E-02 0.61320868E+02</pdfrwt>
<pdfrwt beam="1">  1       -2 0.11962748E-01 0.61320868E+02</pdfrwt>
<totfact> 0.22742562E+05</totfact>
</mgrwt>
</event>
<event>
 4    1  0.3704929E-001  0.5706044E+02  0.7818608E-02  0.1410599E+00
          2   -1    0    0  501    0  0.00000000000E+00  0.00000000000E+00  0.30192241716E+02  0.30192241828E+02  0.26000000000E-02 0. -1.
         -2   -1    0    0    0  501 -0.00000000000E+00 -0.00000000000E+00 -0.26959684506E+02  0.26959684631E+02  0.26000000000E-02 0.  1.
        -13    1    1    2    0    0  0.24781236602E+02 -0.47426318878E+01  0.14955285973E+02  0.29330427814E+02  0.10570000000E+00 0. -1.
         13    1    1    2    0    0 -0.24781236602E+02  0.47426318878E+01 -0.11722728762E+02  0.27821498645E+02  0.10570000000E+00 0.  1.
<mgrwt>
<rscale>  0 0.57060435E+02</rscale>
<asrwt>0</asrwt>
<pdfrwt beam="1">  1        2 0.46449603E-02 0.57060435E+02</pdfrwt>
<pdfrwt beam="2">  1       -2 0.41476438E-02 0.57060435E+02</pdfrwt>
<totfact> 0.33119047E+05</totfact>
</mgrwt>
</event>
<event>
 4    1  0.3704929E-001  0.4261222E+02  0.7818608E-02  0.1489823E+00
         -2   -1    0    0    0  501 -0.00000000000E+00  0.00000000000E+00  0.93261769248E+01  0.93261772872E+01  0.26000000000E-02 0. -1.
          2   -1    0    0  501    0  0.00000000000E+00 -0.00000000000E+00 -0.48674847526E+02  0.48674847595E+02  0.26000000000E-02 0.  1.
        -13    1    1    2    0    0  0.20713346751E+02 -0.16271875984E+01 -0.26094600250E+02  0.33356106005E+02  0.10570000000E+00 0.  1.
         13    1    1    2    0    0 -0.20713346751E+02  0.16271875984E+01 -0.13254070351E+02  0.24644918878E+02  0.10570000000E+00 0. -1.
<mgrwt>
<rscale>  0 0.42612217E+02</rscale>
<asrwt>0</asrwt>
<pdfrwt beam="2">  1        2 0.74884380E-02 0.42612217E+02</pdfrwt>
<pdfrwt beam="1">  1       -2 0.14347965E-02 0.42612217E+02</pdfrwt>
<totfact> 0.76666581E+05</totfact>
</mgrwt>
</event>
<event>
 4    1  0.3704929E-001  0.4033232E+02  0.7818608E-02  0.1505780E+00
         -2   -1    0    0    0  501 -0.00000000000E+00  0.00000000000E+00  0.50890410927E+01  0.50890417569E+01  0.26000000000E-02 0.  1.
          2   -1    0    0  501    0  0.00000000000E+00 -0.00000000000E+00 -0.79911719170E+02  0.79911719212E+02  0.26000000000E-02 0. -1.
        -13    1    1    2    0    0 -0.18353101174E+02 -0.35495848899E+01 -0.53354340777E+02  0.56534349981E+02  0.10570000000E+00 0. -1.
         13    1    1    2    0    0  0.18353101174E+02  0.35495848899E+01 -0.21468337300E+02  0.28466410988E+02  0.10570000000E+00 0.  1.
<mgrwt>
<rscale>  0 0.40332322E+02</rscale>
<asrwt>0</asrwt>
<pdfrwt beam="2">  1        2 0.12294110E-01 0.40332322E+02</pdfrwt>
<pdfrwt beam="1">  1       -2 0.78292951E-03 0.40332322E+02</pdfrwt>
<totfact> 0.97062354E+05</totfact>
</mgrwt>
</event>
<event>
 4    1  0.3704929E-001  0.4740689E+02  0.7818608E-02  0.1459852E+00
          2   -1    0    0  501    0  0.00000000000E+00  0.00000000000E+00  0.85117231831E+02  0.85117231871E+02  0.26000000000E-02 0.  1.
         -2   -1    0    0    0  501 -0.00000000000E+00 -0.00000000000E+00 -0.66009337878E+01  0.66009342999E+01  0.26000000000E-02 0. -1.
        -13    1    1    2    0    0  0.17315646354E+02  0.15103776871E+02  0.50520433968E+02  0.55500280227E+02  0.10570000000E+00 0.  1.
         13    1    1    2    0    0 -0.17315646354E+02 -0.15103776871E+02  0.27995864076E+02  0.36217885944E+02  0.10570000000E+00 0. -1.
<mgrwt>
<rscale>  0 0.47406887E+02</rscale>
<asrwt>0</asrwt>
<pdfrwt beam="1">  1        2 0.13094958E-01 0.47406887E+02</pdfrwt>
<pdfrwt beam="2">  1       -2 0.10155284E-02 0.47406887E+02</pdfrwt>
<totfact> 0.65796028E+05</totfact>
</mgrwt>
</event>
<event>
 4    1  0.3704929E-001  0.2818025E+02  0.7818608E-02  0.1619121E+00
         -2   -1    0    0    0  501 -0.00000000000E+00  0.00000000000E+00  0.56090933038E+01  0.56090939063E+01  0.26000000000E-02 0.  1.
          2   -1    0    0  501    0  0.00000000000E+00 -0.00000000000E+00 -0.35394595479E+02  0.35394595575E+02  0.26000000000E-02 0. -1.
        -13    1    1    2    0    0 -0.46673626439E+01  0.12569036697E+02 -0.21194224729E+02  0.25079300067E+02  0.10570000000E+00 0. -1.
         13    1    1    2    0    0  0.46673626439E+01 -0.12569036697E+02 -0.85912774467E+01  0.15924389413E+02  0.10570000000E+00 0.  1.
<mgrwt>
<rscale>  0 0.28180249E+02</rscale>
<asrwt>0</asrwt>
<pdfrwt beam="2">  1        2 0.54453223E-02 0.28180249E+02</pdfrwt>
<pdfrwt beam="1">  1       -2 0.86293751E-03 0.28180249E+02</pdfrwt>
<totfact> 0.20049579E+06</totfact>
</mgrwt>
</event>
<event>
 4    1  0.3704929E-001  0.2370366E+02  0.7818608E-02  0.1680351E+00
          2   -1    0    0  501    0  0.00000000000E+00  0.00000000000E+00  0.77241859242E+01  0.77241863618E+01  0.26000000000E-02 0.  1.
         -2   -1    0    0    0  501 -0.00000000000E+00 -0.00000000000E+00 -0.18185206207E+02  0.18185206393E+02  0.26000000000E-02 0. -1.
        -13    1    1    2    0    0 -0.94060058803E+01 -0.64927469164E+01 -0.18041656828E+01  0.11571296187E+02  0.10570000000E+00 0.  1.
         13    1    1    2    0    0  0.94060058803E+01  0.64927469164E+01 -0.86568546003E+01  0.14338096568E+02  0.10570000000E+00 0. -1.
<mgrwt>
<rscale>  0 0.23703664E+02</rscale>
<asrwt>0</asrwt>
<pdfrwt beam="1">  1        2 0.11883363E-02 0.23703664E+02</pdfrwt>
<pdfrwt beam="2">  1       -2 0.27977241E-02 0.23703664E+02</pdfrwt>
<totfact> 0.25997853E+06</totfact>
</mgrwt>
</event>
<event>
 4    1  0.3704929E-001  0.3262269E+02  0.7818608E-02  0.1570785E+00
          2   -1    0    0  501    0  0.00000000000E+00  0.00000000000E+00  0.33663742550E+01  0.33663752590E+01  0.26000000000E-02 0.  1.
         -2   -1    0    0    0  501 -0.00000000000E+00 -0.00000000000E+00 -0.79034574579E+02  0.79034574622E+02  0.26000000000E-02 0. -1.
        -13    1    1    2    0    0  0.14270524725E+01  0.16009221097E+02 -0.44850946935E+02  0.47643994925E+02  0.10570000000E+00 0. -1.
         13    1    1    2    0    0 -0.14270524725E+01 -0.16009221097E+02 -0.30817253389E+02  0.34756954956E+02  0.10570000000E+00 0.  1.
<mgrwt>
<rscale>  0 0.32622692E+02</rscale>
<asrwt>0</asrwt>
<pdfrwt beam="1">  1        2 0.51790387E-03 0.32622692E+02</pdfrwt>
<pdfrwt beam="2">  1       -2 0.12159164E-01 0.32622692E+02</pdfrwt>
<totfact> 0.10340467E+06</totfact>
</mgrwt>
</event>
<event>
 4    1  0.3704929E-001  0.4454683E+02  0.7818608E-02  0.1477191E+00
         -2   -1    0    0    0  501 -0.00000000000E+00  0.00000000000E+00  0.75895190764E+01  0.75895195217E+01  0.26000000000E-02 0. -1.
          2   -1    0    0  501    0  0.00000000000E+00 -0.00000000000E+00 -0.65367115004E+02  0.65367115056E+02  0.26000000000E-02 0.  1.
        -13    1    1    2    0    0  0.11224570498E+02 -0.71308748995E+01 -0.58151592796E+02  0.59652822874E+02  0.10570000000E+00 0.  1.
         13    1    1    2    0    0 -0.11224570498E+02  0.71308748995E+01  0.37399686761E+00  0.13303811704E+02  0.10570000000E+00 0. -1.
<mgrwt>
<rscale>  0 0.44546829E+02</rscale>
<asrwt>0</asrwt>
<pdfrwt beam="2">  1        2 0.10056479E-01 0.44546829E+02</pdfrwt>
<pdfrwt beam="1">  1       -2 0.11676184E-02 0.44546829E+02</pdfrwt>
<totfact> 0.72559651E+05</totfact>
</mgrwt>
</event>
<event>
 4    1  0.3704929E-001  0.2731102E+02  0.7818608E-02  0.1629867E+00
         -2   -1    0    0    0  501 -0.00000000000E+00  0.00000000000E+00  0.40183963162E+01  0.40183971573E+01  0.26000000000E-02 0.  1.
          2   -1    0    0  501    0  0.00000000000E+00 -0.00000000000E+00 -0.46404828781E+02  0.46404828854E+02  0.26000000000E-02 0. -1.
        -13    1    1    2    0    0 -0.12867941966E+02 -0.22005270752E+01 -0.28586462232E+02  0.31426473638E+02  0.10570000000E+00 0.  1.
         13    1    1    2    0    0  0.12867941966E+02  0.22005270752E+01 -0.13799970233E+02  0.18996752374E+02  0.10570000000E+00 0. -1.
<mgrwt>
<rscale>  0 0.27311025E+02</rscale>
<asrwt>0</asrwt>
<pdfrwt beam="2">  1        2 0.71392041E-02 0.27311025E+02</pdfrwt>
<pdfrwt beam="1">  1       -2 0.61821492E-03 0.27311025E+02</pdfrwt>
<totfact> 0.22439254E+06</totfact>
</mgrwt>
</event>
<event>
 4    1  0.3704929E-001  0.4127378E+02  0.7818608E-02  0.1499042E+00
          2   -1    0    0  501    0  0.00000000000E+00  0.00000000000E+00  0.25231400043E+01  0.25231413439E+01  0.26000000000E-02 0.  1.
         -2   -1    0    0    0  501 -0.00000000000E+00 -0.00000000000E+00 -0.16879010840E+03  0.16879010842E+03  0.26000000000E-02 0. -1.
        -13    1    1    2    0    0 -0.17477743143E+02  0.79697378311E+01 -0.51829229811E+02  0.55274482917E+02  0.10570000000E+00 0.  1.
         13    1    1    2    0    0  0.17477743143E+02 -0.79697378311E+01 -0.11443773858E+03  0.11603876685E+03  0.10570000000E+00 0. -1.
<mgrwt>
<rscale>  0 0.41273778E+02</rscale>
<asrwt>0</asrwt>
<pdfrwt beam="1">  1        2 0.38817562E-03 0.41273778E+02</pdfrwt>
<pdfrwt beam="2">  1       -2 0.25967700E-01 0.41273778E+02</pdfrwt>
<totfact> 0.48004703E+05</totfact>
</mgrwt>
</event>
<event>
 4    1  0.3704929E-001  0.1419777E+03  0.7818608E-02  0.1210692E+00
         -2   -1    0    0    0  501 -0.00000000000E+00  0.00000000000E+00  0.54427489117E+02  0.54427489180E+02  0.26000000000E-02 0.  1.
          2   -1    0    0  501    0  0.00000000000E+00 -0.00000000000E+00 -0.92589540109E+02  0.92589540146E+02  0.26000000000E-02 0. -1.
        -13    1    1    2    0    0  0.62507296317E+02  0.15941980440E+02 -0.49765492203E+02  0.81473457149E+02  0.10570000000E+00 0.  1.
         13    1    1    2    0    0 -0.62507296317E+02 -0.15941980440E+02  0.11603441211E+02  0.65543572176E+02  0.10570000000E+00 0. -1.
<mgrwt>
<rscale>  0 0.14197769E+03</rscale>
<asrwt>0</asrwt>
<pdfrwt beam="2">  1        2 0.14244545E-01 0.14197769E+03</pdfrwt>
<pdfrwt beam="1">  1       -2 0.83734599E-02 0.14197769E+03</pdfrwt>
<totfact> 0.33635373E+04</totfact>
</mgrwt>
</event>
<event>
 4    1  0.3704929E-001  0.2450447E+02  0.7818608E-02  0.1668223E+00
          2   -1    0    0  501    0  0.00000000000E+00  0.00000000000E+00  0.26011758182E+01  0.26011771176E+01  0.26000000000E-02 0. -1.
         -2   -1    0    0    0  501 -0.00000000000E+00 -0.00000000000E+00 -0.57711282502E+02  0.57711282561E+02  0.26000000000E-02 0.  1.
        -13    1    1    2    0    0 -0.12222120660E+02 -0.60925487413E+00 -0.29020780662E+02  0.31495528376E+02  0.10570000000E+00 0.  1.
         13    1    1    2    0    0  0.12222120660E+02  0.60925487413E+00 -0.26089326022E+02  0.28816931303E+02  0.10570000000E+00 0. -1.
<mgrwt>
<rscale>  0 0.24504468E+02</rscale>
<asrwt>0</asrwt>
<pdfrwt beam="1">  1        2 0.40018104E-03 0.24504468E+02</pdfrwt>
<pdfrwt beam="2">  1       -2 0.88786580E-02 0.24504468E+02</pdfrwt>
<totfact> 0.21128131E+06</totfact>
</mgrwt>
</event>
<event>
 4    1  0.3704929E-001  0.5363698E+02  0.7818608E-02  0.1426657E+00
          2   -1    0    0  501    0  0.00000000000E+00  0.00000000000E+00  0.62102131845E+01  0.62102137287E+01  0.26000000000E-02 0.  1.
         -2   -1    0    0    0  501 -0.00000000000E+00 -0.00000000000E+00 -0.11581428017E+03  0.11581428020E+03  0.26000000000E-02 0. -1.
        -13    1    1    2    0    0 -0.18938759166E+02 -0.13577020776E+02 -0.85001250448E+02  0.88137596076E+02  0.10570000000E+00 0. -1.
         13    1    1    2    0    0  0.18938759166E+02  0.13577020776E+02 -0.24602816537E+02  0.33886897851E+02  0.10570000000E+00 0.  1.
<mgrwt>
<rscale>  0 0.53636980E+02</rscale>
<asrwt>0</asrwt>
<pdfrwt beam="1">  1        2 0.95541754E-03 0.53636980E+02</pdfrwt>
<pdfrwt beam="2">  1       -2 0.17817580E-01 0.53636980E+02</pdfrwt>
<totfact> 0.28582168E+05</totfact>
</mgrwt>
</event>
<event>
 4    1  0.3704929E-001  0.6963388E+02  0.7818608E-02  0.1361342E+00
         -2   -1    0    0    0  501 -0.00000000000E+00  0.00000000000E+00  0.32395513045E+02  0.32395513149E+02  0.26000000000E-02 0.  1.
          2   -1    0    0  501    0  0.00000000000E+00 -0.00000000000E+00 -0.37419361022E+02  0.37419361112E+02  0.26000000000E-02 0. -1.
        -13    1    1    2    0    0 -0.35916374845E+01 -0.23293472228E+02 -0.28205130321E+02  0.36756309080E+02  0.10570000000E+00 0. -1.
         13    1    1    2    0    0  0.35916374845E+01  0.23293472228E+02  0.23181282344E+02  0.33058565182E+02  0.10570000000E+00 0.  1.
<mgrwt>
<rscale>  0 0.69633883E+02</rscale>
<asrwt>0</asrwt>
<pdfrwt beam="2">  1        2 0.57568248E-02 0.69633883E+02</pdfrwt>
<pdfrwt beam="1">  1       -2 0.49839251E-02 0.69633883E+02</pdfrwt>
<totfact> 0.20095225E+05</totfact>
</mgrwt>
</event>
<event>
 4    1  0.3704929E-001  0.2392228E+02  0.7818608E-02  0.1676982E+00
         -2   -1    0    0    0  501 -0.00000000000E+00  0.00000000000E+00  0.55303728834E+01  0.55303734946E+01  0.26000000000E-02 0. -1.
          2   -1    0    0  501    0  0.00000000000E+00 -0.00000000000E+00 -0.25869654834E+02  0.25869654965E+02  0.26000000000E-02 0.  1.
        -13    1    1    2    0    0  0.85543413195E+01 -0.64252785606E+01 -0.31504737212E+01  0.11153367973E+02  0.10570000000E+00 0.  1.
         13    1    1    2    0    0 -0.85543413195E+01  0.64252785606E+01 -0.17188808229E+02  0.20246660486E+02  0.10570000000E+00 0. -1.
<mgrwt>
<rscale>  0 0.23922278E+02</rscale>
<asrwt>0</asrwt>
<pdfrwt beam="2">  1        2 0.39799469E-02 0.23922278E+02</pdfrwt>
<pdfrwt beam="1">  1       -2 0.85082667E-03 0.23922278E+02</pdfrwt>
<totfact> 0.28366944E+06</totfact>
</mgrwt>
</event>
<event>
 4    1  0.3704929E-001  0.7905518E+02  0.7818608E-02  0.1331754E+00
          2   -1    0    0  501    0  0.00000000000E+00  0.00000000000E+00  0.96431690493E+01  0.96431693998E+01  0.26000000000E-02 0. -1.
         -2   -1    0    0    0  501 -0.00000000000E+00 -0.00000000000E+00 -0.16202455291E+03  0.16202455293E+03  0.26000000000E-02 0.  1.
        -13    1    1    2    0    0  0.36257832492E+02 -0.46602131799E+01 -0.43540873116E+02  0.56852148668E+02  0.10570000000E+00 0. -1.
         13    1    1    2    0    0 -0.36257832492E+02  0.46602131799E+01 -0.10884051075E+03  0.11481557366E+03  0.10570000000E+00 0.  1.
<mgrwt>
<rscale>  0 0.79055175E+02</rscale>
<asrwt>0</asrwt>
<pdfrwt beam="1">  1        2 0.14835646E-02 0.79055175E+02</pdfrwt>
<pdfrwt beam="2">  1       -2 0.24926852E-01 0.79055175E+02</pdfrwt>
<totfact> 0.97422333E+04</totfact>
</mgrwt>
</event>
<event>
 4    1  0.3704929E-001  0.3624915E+02  0.7818608E-02  0.1537780E+00
         -2   -1    0    0    0  501 -0.00000000000E+00  0.00000000000E+00  0.12775720912E+02  0.12775721177E+02  0.26000000000E-02 0. -1.
          2   -1    0    0  501    0  0.00000000000E+00 -0.00000000000E+00 -0.25712850053E+02  0.25712850185E+02  0.26000000000E-02 0.  1.
        -13    1    1    2    0    0 -0.56030065779E+01 -0.14929009426E+02 -0.15615898321E+02  0.22318970810E+02  0.10570000000E+00 0.  1.
         13    1    1    2    0    0  0.56030065779E+01  0.14929009426E+02  0.26787691805E+01  0.16169600551E+02  0.10570000000E+00 0. -1.
<mgrwt>
<rscale>  0 0.36249149E+02</rscale>
<asrwt>0</asrwt>
<pdfrwt beam="2">  1        2 0.39558231E-02 0.36249149E+02</pdfrwt>
<pdfrwt beam="1">  1       -2 0.19654956E-02 0.36249149E+02</pdfrwt>
<totfact> 0.10436964E+06</totfact>
</mgrwt>
</event>
<event>
 4    1  0.3704929E-001  0.3076482E+02  0.7818608E-02  0.1589785E+00
         -2   -1    0    0    0  501 -0.00000000000E+00  0.00000000000E+00  0.86433514309E+02  0.86433514348E+02  0.26000000000E-02 0.  1.
          2   -1    0    0  501    0  0.00000000000E+00 -0.00000000000E+00 -0.27375771167E+01  0.27375783513E+01  0.26000000000E-02 0. -1.
        -13    1    1    2    0    0 -0.64193003134E+01 -0.10443896844E+02  0.68778058884E+02  0.69862113868E+02  0.10570000000E+00 0.  1.
         13    1    1    2    0    0  0.64193003134E+01  0.10443896844E+02  0.14917878309E+02  0.19308978832E+02  0.10570000000E+00 0. -1.
<mgrwt>
<rscale>  0 0.30764815E+02</rscale>
<asrwt>0</asrwt>
<pdfrwt beam="2">  1        2 0.42116585E-03 0.30764815E+02</pdfrwt>
<pdfrwt beam="1">  1       -2 0.13297462E-01 0.30764815E+02</pdfrwt>
<totfact> 0.11634294E+06</totfact>
</mgrwt>
</event>
<event>
 4    1  0.3704929E-001  0.3112375E+02  0.7818608E-02  0.1585989E+00
          2   -1    0    0  501    0  0.00000000000E+00  0.00000000000E+00  0.54057619286E+02  0.54057619349E+02  0.26000000000E-02 0.  1.
         -2   -1    0    0    0  501 -0.00000000000E+00 -0.00000000000E+00 -0.44798862487E+01  0.44798870032E+01  0.26000000000E-02 0. -1.
        -13    1    1    2    0    0  0.11311227466E+02 -0.10577223895E+02  0.27665507316E+02  0.31705094222E+02  0.10570000000E+00 0.  1.
         13    1    1    2    0    0 -0.11311227466E+02  0.10577223895E+02  0.21912225722E+02  0.26832412129E+02  0.10570000000E+00 0. -1.
<mgrwt>
<rscale>  0 0.31123754E+02</rscale>
<asrwt>0</asrwt>
<pdfrwt beam="1">  1        2 0.83165568E-02 0.31123754E+02</pdfrwt>
<pdfrwt beam="2">  1       -2 0.68921334E-03 0.31123754E+02</pdfrwt>
<totfact> 0.16872983E+06</totfact>
</mgrwt>
</event>
<event>
 4    1  0.3704929E-001  0.2826789E+02  0.7818608E-02  0.1618064E+00
         -2   -1    0    0    0  501 -0.00000000000E+00  0.00000000000E+00  0.37103665270E+02  0.37103665362E+02  0.26000000000E-02 0.  1.
          2   -1    0    0  501    0  0.00000000000E+00 -0.00000000000E+00 -0.53840604085E+01  0.53840610362E+01  0.26000000000E-02 0. -1.
        -13    1    1    2    0    0 -0.56445532113E+01  0.84076942141E+01  0.30678795369E+02  0.32307119351E+02  0.10570000000E+00 0.  1.
         13    1    1    2    0    0  0.56445532113E+01 -0.84076942141E+01  0.10408094928E+01  0.10180607047E+02  0.10570000000E+00 0. -1.
<mgrwt>
<rscale>  0 0.28267889E+02</rscale>
<asrwt>0</asrwt>
<pdfrwt beam="2">  1        2 0.82831705E-03 0.28267889E+02</pdfrwt>
<pdfrwt beam="1">  1       -2 0.57082562E-02 0.28267889E+02</pdfrwt>
<totfact> 0.16250687E+06</totfact>
</mgrwt>
</event>
<event>
 4    1  0.3704929E-001  0.2955059E+02  0.7818608E-02  0.1603110E+00
         -2   -1    0    0    0  501 -0.00000000000E+00  0.00000000000E+00  0.13039097690E+02  0.13039097949E+02  0.26000000000E-02 0. -1.
          2   -1    0    0  501    0  0.00000000000E+00 -0.00000000000E+00 -0.16742672775E+02  0.16742672977E+02  0.26000000000E-02 0.  1.
        -13    1    1    2    0    0 -0.12890093307E+02 -0.25396469670E+01  0.49608191049E+01  0.14043689361E+02  0.10570000000E+00 0. -1.
         13    1    1    2    0    0  0.12890093307E+02  0.25396469670E+01 -0.86643941901E+01  0.15738081565E+02  0.10570000000E+00 0.  1.
<mgrwt>
<rscale>  0 0.29550591E+02</rscale>
<asrwt>0</asrwt>
<pdfrwt beam="2">  1        2 0.25757959E-02 0.29550591E+02</pdfrwt>
<pdfrwt beam="1">  1       -2 0.20060151E-02 0.29550591E+02</pdfrwt>
<totfact> 0.16427952E+06</totfact>
</mgrwt>
</event>
<event>
 4    1  0.3704929E-001  0.2499412E+02  0.7818608E-02  0.1661086E+00
         -2   -1    0    0    0  501 -0.00000000000E+00  0.00000000000E+00  0.30798986231E+01  0.30798997205E+01  0.26000000000E-02 0.  1.
          2   -1    0    0  501    0  0.00000000000E+00 -0.00000000000E+00 -0.50708313085E+02  0.50708313151E+02  0.26000000000E-02 0. -1.
        -13    1    1    2    0    0 -0.10222647340E+02  0.69618694348E+01 -0.27660982354E+02  0.30300350855E+02  0.10570000000E+00 0.  1.
         13    1    1    2    0    0  0.10222647340E+02 -0.69618694348E+01 -0.19967432108E+02  0.23487862017E+02  0.10570000000E+00 0. -1.
<mgrwt>
<rscale>  0 0.24994119E+02</rscale>
<asrwt>0</asrwt>
<pdfrwt beam="2">  1        2 0.78012784E-02 0.24994119E+02</pdfrwt>
<pdfrwt beam="1">  1       -2 0.47383068E-03 0.24994119E+02</pdfrwt>
<totfact> 0.27980281E+06</totfact>
</mgrwt>
</event>
<event>
 4    1  0.3704929E-001  0.5805709E+02  0.7818608E-02  0.1406171E+00
         -2   -1    0    0    0  501 -0.00000000000E+00  0.00000000000E+00  0.19570638000E+03  0.19570638002E+03  0.26000000000E-02 0.  1.
          2   -1    0    0  501    0  0.00000000000E+00 -0.00000000000E+00 -0.43057176748E+01  0.43057184598E+01  0.26000000000E-02 0. -1.
        -13    1    1    2    0    0 -0.21374258755E+02 -0.19274137775E+02  0.10872533668E+03  0.11247026867E+03  0.10570000000E+00 0. -1.
         13    1    1    2    0    0  0.21374258755E+02  0.19274137775E+02  0.82675325643E+02  0.87541829812E+02  0.10570000000E+00 0.  1.
<mgrwt>
<rscale>  0 0.58057093E+02</rscale>
<asrwt>0</asrwt>
<pdfrwt beam="2">  1        2 0.66241807E-03 0.58057093E+02</pdfrwt>
<pdfrwt beam="1">  1       -2 0.30108678E-01 0.58057093E+02</pdfrwt>
<totfact> 0.19658378E+05</totfact>
</mgrwt>
</event>
<event>
 4    1  0.3704929E-001  0.2853604E+02  0.7818608E-02  0.1614858E+00
         -2   -1    0    0    0  501 -0.00000000000E+00  0.00000000000E+00  0.38442872507E+02  0.38442872595E+02  0.26000000000E-02 0. -1.
          2   -1    0    0  501    0  0.00000000000E+00 -0.00000000000E+00 -0.52955554251E+01  0.52955560633E+01  0.26000000000E-02 0.  1.
        -13    1    1    2    0    0  0.23696959314E+01  0.13786605697E+02  0.20876069880E+02  0.25129811412E+02  0.10570000000E+00 0.  1.
         13    1    1    2    0    0 -0.23696959314E+01 -0.13786605697E+02  0.12271247202E+02  0.18608617247E+02  0.10570000000E+00 0. -1.
<mgrwt>
<rscale>  0 0.28536039E+02</rscale>
<asrwt>0</asrwt>
<pdfrwt beam="2">  1        2 0.81470088E-03 0.28536039E+02</pdfrwt>
<pdfrwt beam="1">  1       -2 0.59142882E-02 0.28536039E+02</pdfrwt>
<totfact> 0.15833420E+06</totfact>
</mgrwt>
</event>
<event>
 4    1  0.3704929E-001  0.4900272E+02  0.7818608E-02  0.1450796E+00
          2   -1    0    0  501    0  0.00000000000E+00  0.00000000000E+00  0.15720672936E+03  0.15720672938E+03  0.26000000000E-02 0. -1.
         -2   -1    0    0    0  501 -0.00000000000E+00 -0.00000000000E+00 -0.38186441899E+01  0.38186450751E+01  0.26000000000E-02 0.  1.
        -13    1    1    2    0    0  0.12339689109E+02  0.20969511316E+02  0.67217259701E+02  0.71485379668E+02  0.10570000000E+00 0.  1.
         13    1    1    2    0    0 -0.12339689109E+02 -0.20969511316E+02  0.86170825464E+02  0.89539994784E+02  0.10570000000E+00 0. -1.
<mgrwt>
<rscale>  0 0.49002720E+02</rscale>
<asrwt>0</asrwt>
<pdfrwt beam="1">  1        2 0.24185644E-01 0.49002720E+02</pdfrwt>
<pdfrwt beam="2">  1       -2 0.58748395E-03 0.49002720E+02</pdfrwt>
<totfact> 0.71666398E+05</totfact>
</mgrwt>
</event>
<event>
 4    1  0.3704929E-001  0.2401233E+02  0.7818608E-02  0.1675607E+00
         -2   -1    0    0    0  501 -0.00000000000E+00  0.00000000000E+00  0.10633422669E+03  0.10633422672E+03  0.26000000000E-02 0. -1.
          2   -1    0    0  501    0  0.00000000000E+00 -0.00000000000E+00 -0.13556108307E+01  0.13556133240E+01  0.26000000000E-02 0.  1.
        -13    1    1    2    0    0  0.11185575557E+02 -0.41605617341E+01  0.58352912291E+02  0.59560900932E+02  0.10570000000E+00 0. -1.
         13    1    1    2    0    0 -0.11185575557E+02  0.41605617341E+01  0.46625703563E+02  0.48128939109E+02  0.10570000000E+00 0.  1.
<mgrwt>
<rscale>  0 0.24012327E+02</rscale>
<asrwt>0</asrwt>
<pdfrwt beam="2">  1        2 0.20855563E-03 0.24012327E+02</pdfrwt>
<pdfrwt beam="1">  1       -2 0.16359118E-01 0.24012327E+02</pdfrwt>
<totfact> 0.19531223E+06</totfact>
</mgrwt>
</event>
<event>
 4    1  0.3704929E-001  0.2278765E+02  0.7818608E-02  0.1694976E+00
          2   -1    0    0  501    0  0.00000000000E+00  0.00000000000E+00  0.46713617339E+02  0.46713617412E+02  0.26000000000E-02 0. -1.
         -2   -1    0    0    0  501 -0.00000000000E+00 -0.00000000000E+00 -0.27790447287E+01  0.27790459450E+01  0.26000000000E-02 0.  1.
        -13    1    1    2    0    0 -0.89745064796E+01  0.68305194565E+01  0.18458241867E+02  0.21631357514E+02  0.10570000000E+00 0. -1.
         13    1    1    2    0    0  0.89745064796E+01 -0.68305194565E+01  0.25476330744E+02  0.27861305842E+02  0.10570000000E+00 0.  1.
<mgrwt>
<rscale>  0 0.22787651E+02</rscale>
<asrwt>0</asrwt>
<pdfrwt beam="1">  1        2 0.71867097E-02 0.22787651E+02</pdfrwt>
<pdfrwt beam="2">  1       -2 0.42754549E-03 0.22787651E+02</pdfrwt>
<totfact> 0.34166521E+06</totfact>
</mgrwt>
</event>
<event>
 4    1  0.3704929E-001  0.2017373E+02  0.7818608E-02  0.1741895E+00
          2   -1    0    0  501    0  0.00000000000E+00  0.00000000000E+00  0.70674868032E+02  0.70674868080E+02  0.26000000000E-02 0. -1.
         -2   -1    0    0    0  501 -0.00000000000E+00 -0.00000000000E+00 -0.14396170043E+01  0.14396193522E+01  0.26000000000E-02 0.  1.
        -13    1    1    2    0    0  0.99230690960E+01  0.14249712658E+01  0.30643765081E+02  0.32242043270E+02  0.10570000000E+00 0.  1.
         13    1    1    2    0    0 -0.99230690960E+01 -0.14249712658E+01  0.38591485947E+02  0.39872444162E+02  0.10570000000E+00 0. -1.
<mgrwt>
<rscale>  0 0.20173728E+02</rscale>
<asrwt>0</asrwt>
<pdfrwt beam="1">  1        2 0.10873061E-01 0.20173728E+02</pdfrwt>
<pdfrwt beam="2">  1       -2 0.22147963E-03 0.20173728E+02</pdfrwt>
<totfact> 0.48174095E+06</totfact>
</mgrwt>
</event>
<event>
 4    1  0.3704929E-001  0.2983957E+02  0.7818608E-02  0.1599869E+00
          2   -1    0    0  501    0  0.00000000000E+00  0.00000000000E+00  0.20206082115E+01  0.20206098842E+01  0.26000000000E-02 0.  1.
         -2   -1    0    0    0  501 -0.00000000000E+00 -0.00000000000E+00 -0.11016480122E+03  0.11016480125E+03  0.26000000000E-02 0. -1.
        -13    1    1    2    0    0 -0.13522789533E+02 -0.32921290897E+01 -0.33866156844E+02  0.36614637818E+02  0.10570000000E+00 0.  1.
         13    1    1    2    0    0  0.13522789533E+02  0.32921290897E+01 -0.74278036161E+02  0.75570773313E+02  0.10570000000E+00 0. -1.
<mgrwt>
<rscale>  0 0.29839571E+02</rscale>
<asrwt>0</asrwt>
<pdfrwt beam="1">  1        2 0.31086302E-03 0.29839571E+02</pdfrwt>
<pdfrwt beam="2">  1       -2 0.16948426E-01 0.29839571E+02</pdfrwt>
<totfact> 0.11787622E+06</totfact>
</mgrwt>
</event>
<event>
 4    1  0.3704929E-001  0.3873939E+02  0.7818608E-02  0.1517699E+00
          2   -1    0    0  501    0  0.00000000000E+00  0.00000000000E+00  0.58139590108E+02  0.58139590166E+02  0.26000000000E-02 0.  1.
         -2   -1    0    0    0  501 -0.00000000000E+00 -0.00000000000E+00 -0.64531767291E+01  0.64531772528E+01  0.26000000000E-02 0. -1.
        -13    1    1    2    0    0  0.97366148020E+01  0.16295626035E+02  0.32263066618E+02  0.37433484152E+02  0.10570000000E+00 0.  1.
         13    1    1    2    0    0 -0.97366148020E+01 -0.16295626035E+02  0.19423346761E+02  0.27159283267E+02  0.10570000000E+00 0. -1.
<mgrwt>
<rscale>  0 0.38739389E+02</rscale>
<asrwt>0</asrwt>
<pdfrwt beam="1">  1        2 0.89445524E-02 0.38739389E+02</pdfrwt>
<pdfrwt beam="2">  1       -2 0.99279646E-03 0.38739389E+02</pdfrwt>
<totfact> 0.10040367E+06</totfact>
</mgrwt>
</event>
<event>
 4    1  0.3704929E-001  0.6875583E+02  0.7818608E-02  0.1364376E+00
         -2   -1    0    0    0  501 -0.00000000000E+00  0.00000000000E+00  0.12749793863E+02  0.12749794128E+02  0.26000000000E-02 0. -1.
          2   -1    0    0  501    0  0.00000000000E+00 -0.00000000000E+00 -0.92694921397E+02  0.92694921434E+02  0.26000000000E-02 0.  1.
        -13    1    1    2    0    0 -0.20194882926E+02  0.13009433644E+02 -0.22584694493E+01  0.24128624430E+02  0.10570000000E+00 0. -1.
         13    1    1    2    0    0  0.20194882926E+02 -0.13009433644E+02 -0.77686658085E+02  0.81316091132E+02  0.10570000000E+00 0.  1.
<mgrwt>
<rscale>  0 0.68755833E+02</rscale>
<asrwt>0</asrwt>
<pdfrwt beam="2">  1        2 0.14260757E-01 0.68755833E+02</pdfrwt>
<pdfrwt beam="1">  1       -2 0.19615068E-02 0.68755833E+02</pdfrwt>
<totfact> 0.25716381E+05</totfact>
</mgrwt>
</event>
<event>
 4    1  0.3704929E-001  0.2269246E+02  0.7818608E-02  0.1696544E+00
          2   -1    0    0  501    0  0.00000000000E+00  0.00000000000E+00  0.12495787875E+02  0.12495788146E+02  0.26000000000E-02 0. -1.
         -2   -1    0    0    0  501 -0.00000000000E+00 -0.00000000000E+00 -0.10302422215E+02  0.10302422543E+02  0.26000000000E-02 0.  1.
        -13    1    1    2    0    0  0.81111037451E+01 -0.66905188657E+01  0.53794911225E+01  0.11811144901E+02  0.10570000000E+00 0. -1.
         13    1    1    2    0    0 -0.81111037451E+01  0.66905188657E+01 -0.31861254622E+01  0.10987065787E+02  0.10570000000E+00 0.  1.
<mgrwt>
<rscale>  0 0.22692456E+02</rscale>
<asrwt>0</asrwt>
<pdfrwt beam="1">  1        2 0.19224289E-02 0.22692456E+02</pdfrwt>
<pdfrwt beam="2">  1       -2 0.15849881E-02 0.22692456E+02</pdfrwt>
<totfact> 0.29990905E+06</totfact>
</mgrwt>
</event>
<event>
 4    1  0.3704929E-001  0.2796045E+02  0.7818608E-02  0.1621793E+00
         -2   -1    0    0    0  501 -0.00000000000E+00  0.00000000000E+00  0.37532677989E+02  0.37532678079E+02  0.26000000000E-02 0. -1.
          2   -1    0    0  501    0  0.00000000000E+00 -0.00000000000E+00 -0.52073736629E+01  0.52073743120E+01  0.26000000000E-02 0.  1.
        -13    1    1    2    0    0 -0.81621948240E+01  0.10279271851E+02  0.88078219221E+01  0.15807395536E+02  0.10570000000E+00 0.  1.
         13    1    1    2    0    0  0.81621948240E+01 -0.10279271851E+02  0.23517482404E+02  0.26932656855E+02  0.10570000000E+00 0. -1.
<mgrwt>
<rscale>  0 0.27960450E+02</rscale>
<asrwt>0</asrwt>
<pdfrwt beam="2">  1        2 0.80113446E-03 0.27960450E+02</pdfrwt>
<pdfrwt beam="1">  1       -2 0.57742583E-02 0.27960450E+02</pdfrwt>
<totfact> 0.16637380E+06</totfact>
</mgrwt>
</event>
<event>
 4    1  0.3704929E-001  0.2488314E+02  0.7818608E-02  0.1662686E+00
          2   -1    0    0  501    0  0.00000000000E+00  0.00000000000E+00  0.21328841364E+01  0.21328857211E+01  0.26000000000E-02 0.  1.
         -2   -1    0    0    0  501 -0.00000000000E+00 -0.00000000000E+00 -0.72574323066E+02  0.72574323113E+02  0.26000000000E-02 0. -1.
        -13    1    1    2    0    0 -0.10965149174E+02  0.38192132862E+00 -0.52830088075E+02  0.53957480842E+02  0.10570000000E+00 0. -1.
         13    1    1    2    0    0  0.10965149174E+02 -0.38192132862E+00 -0.17611350855E+02  0.20749727992E+02  0.10570000000E+00 0.  1.
<mgrwt>
<rscale>  0 0.24883142E+02</rscale>
<asrwt>0</asrwt>
<pdfrwt beam="1">  1        2 0.32813620E-03 0.24883142E+02</pdfrwt>
<pdfrwt beam="2">  1       -2 0.11165279E-01 0.24883142E+02</pdfrwt>
<totfact> 0.19607557E+06</totfact>
</mgrwt>
</event>
<event>
 4    1  0.3704929E-001  0.6631058E+02  0.7818608E-02  0.1373108E+00
          2   -1    0    0  501    0  0.00000000000E+00  0.00000000000E+00  0.72183416134E+02  0.72183416181E+02  0.26000000000E-02 0.  1.
         -2   -1    0    0    0  501 -0.00000000000E+00 -0.00000000000E+00 -0.15228890501E+02  0.15228890723E+02  0.26000000000E-02 0. -1.
        -13    1    1    2    0    0 -0.16305816686E+02 -0.13496218346E+02  0.62117455403E+02  0.65624820043E+02  0.10570000000E+00 0.  1.
         13    1    1    2    0    0  0.16305816686E+02  0.13496218346E+02 -0.51629297695E+01  0.21787486861E+02  0.10570000000E+00 0. -1.
<mgrwt>
<rscale>  0 0.66310583E+02</rscale>
<asrwt>0</asrwt>
<pdfrwt beam="1">  1        2 0.11105141E-01 0.66310583E+02</pdfrwt>
<pdfrwt beam="2">  1       -2 0.23429062E-02 0.66310583E+02</pdfrwt>
<totfact> 0.26543799E+05</totfact>
</mgrwt>
</event>
<event>
 4    1  0.3704929E-001  0.4536239E+02  0.7818608E-02  0.1472092E+00
          2   -1    0    0  501    0  0.00000000000E+00  0.00000000000E+00  0.74547487948E+02  0.74547487993E+02  0.26000000000E-02 0.  1.
         -2   -1    0    0    0  501 -0.00000000000E+00 -0.00000000000E+00 -0.69007904508E+01  0.69007909406E+01  0.26000000000E-02 0. -1.
        -13    1    1    2    0    0 -0.19923275928E+02 -0.66784047972E+01  0.49152294693E+02  0.53455563419E+02  0.10570000000E+00 0. -1.
         13    1    1    2    0    0  0.19923275928E+02  0.66784047972E+01  0.18494402804E+02  0.27992715515E+02  0.10570000000E+00 0.  1.
<mgrwt>
<rscale>  0 0.45362390E+02</rscale>
<asrwt>0</asrwt>
<pdfrwt beam="1">  1        2 0.11468845E-01 0.45362390E+02</pdfrwt>
<pdfrwt beam="2">  1       -2 0.10616600E-02 0.45362390E+02</pdfrwt>
<totfact> 0.71308087E+05</totfact>
</mgrwt>
</event>
<event>
 4    1  0.3704929E-001  0.3075503E+02  0.7818608E-02  0.1589890E+00
          2   -1    0    0  501    0  0.00000000000E+00  0.00000000000E+00  0.64924842660E+01  0.64924847866E+01  0.26000000000E-02 0. -1.
         -2   -1    0    0    0  501 -0.00000000000E+00 -0.00000000000E+00 -0.36421790838E+02  0.36421790930E+02  0.26000000000E-02 0.  1.
        -13    1    1    2    0    0  0.11736480009E+02 -0.32631688160E+01 -0.18703113844E+01  0.12324872043E+02  0.10570000000E+00 0. -1.
         13    1    1    2    0    0 -0.11736480009E+02  0.32631688160E+01 -0.28058995187E+02  0.30589403674E+02  0.10570000000E+00 0.  1.
<mgrwt>
<rscale>  0 0.30755027E+02</rscale>
<asrwt>0</asrwt>
<pdfrwt beam="1">  1        2 0.99884380E-03 0.30755027E+02</pdfrwt>
<pdfrwt beam="2">  1       -2 0.56033524E-02 0.30755027E+02</pdfrwt>
<totfact> 0.13424043E+06</totfact>
</mgrwt>
</event>
<event>
 4    1  0.3704929E-001  0.2150236E+02  0.7818608E-02  0.1717003E+00
         -2   -1    0    0    0  501 -0.00000000000E+00  0.00000000000E+00  0.35554996504E+01  0.35555006011E+01  0.26000000000E-02 0.  1.
          2   -1    0    0  501    0  0.00000000000E+00 -0.00000000000E+00 -0.32509597337E+02  0.32509597441E+02  0.26000000000E-02 0. -1.
        -13    1    1    2    0    0 -0.94236081008E+01 -0.50233182846E+01 -0.12396572684E+02  0.16362282940E+02  0.10570000000E+00 0. -1.
         13    1    1    2    0    0  0.94236081008E+01  0.50233182846E+01 -0.16557525003E+02  0.19702815102E+02  0.10570000000E+00 0.  1.
<mgrwt>
<rscale>  0 0.21502361E+02</rscale>
<asrwt>0</asrwt>
<pdfrwt beam="2">  1        2 0.50014764E-02 0.21502361E+02</pdfrwt>
<pdfrwt beam="1">  1       -2 0.54700005E-03 0.21502361E+02</pdfrwt>
<totfact> 0.37167833E+06</totfact>
</mgrwt>
</event>
<event>
 4    1  0.3704929E-001  0.6693568E+02  0.7818608E-02  0.1370835E+00
          2   -1    0    0  501    0  0.00000000000E+00  0.00000000000E+00  0.11240223363E+03  0.11240223366E+03  0.26000000000E-02 0. -1.
         -2   -1    0    0    0  501 -0.00000000000E+00 -0.00000000000E+00 -0.99650719521E+01  0.99650722912E+01  0.26000000000E-02 0.  1.
        -13    1    1    2    0    0 -0.25587453041E+02 -0.13858117248E+02  0.81441989083E+02  0.86484529976E+02  0.10570000000E+00 0. -1.
         13    1    1    2    0    0  0.25587453041E+02  0.13858117248E+02  0.20995172590E+02  0.35882775971E+02  0.10570000000E+00 0.  1.
<mgrwt>
<rscale>  0 0.66935682E+02</rscale>
<asrwt>0</asrwt>
<pdfrwt beam="1">  1        2 0.17292652E-01 0.66935682E+02</pdfrwt>
<pdfrwt beam="2">  1       -2 0.15330880E-02 0.66935682E+02</pdfrwt>
<totfact> 0.29134212E+05</totfact>
</mgrwt>
</event>
<event>
 4    1  0.3704929E-001  0.3707337E+02  0.7818608E-02  0.1530923E+00
          2   -1    0    0  501    0  0.00000000000E+00  0.00000000000E+00  0.47643377057E+02  0.47643377128E+02  0.26000000000E-02 0.  1.
         -2   -1    0    0    0  501 -0.00000000000E+00 -0.00000000000E+00 -0.72120975397E+01  0.72120980083E+01  0.26000000000E-02 0. -1.
        -13    1    1    2    0    0  0.16607390828E+01 -0.16426694158E+02  0.32683641104E+02  0.36617289680E+02  0.10570000000E+00 0.  1.
         13    1    1    2    0    0 -0.16607390828E+01  0.16426694158E+02  0.77476384140E+01  0.18238185456E+02  0.10570000000E+00 0. -1.
<mgrwt>
<rscale>  0 0.37073370E+02</rscale>
<asrwt>0</asrwt>
<pdfrwt beam="1">  1        2 0.73297504E-02 0.37073370E+02</pdfrwt>
<pdfrwt beam="2">  1       -2 0.11095535E-02 0.37073370E+02</pdfrwt>
<totfact> 0.10800102E+06</totfact>
</mgrwt>
</event>
<event>
 4    1  0.3704929E-001  0.3498944E+02  0.7818608E-02  0.1548694E+00
          2   -1    0    0  501    0  0.00000000000E+00  0.00000000000E+00  0.61390418124E+01  0.61390423630E+01  0.26000000000E-02 0. -1.
         -2   -1    0    0    0  501 -0.00000000000E+00 -0.00000000000E+00 -0.49855536218E+02  0.49855536286E+02  0.26000000000E-02 0.  1.
        -13    1    1    2    0    0 -0.17480733543E+01 -0.17406840387E+02 -0.21881631891E+02  0.28015546388E+02  0.10570000000E+00 0.  1.
         13    1    1    2    0    0  0.17480733543E+01  0.17406840387E+02 -0.21834862515E+02  0.27979032261E+02  0.10570000000E+00 0. -1.
<mgrwt>
<rscale>  0 0.34989441E+02</rscale>
<asrwt>0</asrwt>
<pdfrwt beam="1">  1        2 0.94446805E-03 0.34989441E+02</pdfrwt>
<pdfrwt beam="2">  1       -2 0.76700823E-02 0.34989441E+02</pdfrwt>
<totfact> 0.95222429E+05</totfact>
</mgrwt>
</event>
<event>
 4    1  0.3704929E-001  0.2992069E+02  0.7818608E-02  0.1598967E+00
         -2   -1    0    0    0  501 -0.00000000000E+00  0.00000000000E+00  0.20846366311E+02  0.20846366473E+02  0.26000000000E-02 0. -1.
          2   -1    0    0  501    0  0.00000000000E+00 -0.00000000000E+00 -0.10736256441E+02  0.10736256756E+02  0.26000000000E-02 0.  1.
        -13    1    1    2    0    0 -0.85386884229E+00  0.13782174040E+02 -0.10199095620E+01  0.13846616962E+02  0.10570000000E+00 0.  1.
         13    1    1    2    0    0  0.85386884229E+00 -0.13782174040E+02  0.11130019432E+02  0.17736006268E+02  0.10570000000E+00 0. -1.
<mgrwt>
<rscale>  0 0.29920691E+02</rscale>
<asrwt>0</asrwt>
<pdfrwt beam="2">  1        2 0.16517318E-02 0.29920691E+02</pdfrwt>
<pdfrwt beam="1">  1       -2 0.32071333E-02 0.29920691E+02</pdfrwt>
<totfact> 0.15227421E+06</totfact>
</mgrwt>
</event>
<event>
 4    1  0.3704929E-001  0.2247187E+02  0.7818608E-02  0.1700217E+00
         -2   -1    0    0    0  501 -0.00000000000E+00  0.00000000000E+00  0.72586698226E+02  0.72586698273E+02  0.26000000000E-02 0.  1.
          2   -1    0    0  501    0  0.00000000000E+00 -0.00000000000E+00 -0.17392469422E+01  0.17392488856E+01  0.26000000000E-02 0. -1.
        -13    1    1    2    0    0 -0.87487348275E+01  0.67419959184E+01  0.28612965246E+02  0.30670960576E+02  0.10570000000E+00 0. -1.
         13    1    1    2    0    0  0.87487348275E+01 -0.67419959184E+01  0.42234486039E+02  0.43654986582E+02  0.10570000000E+00 0.  1.
<mgrwt>
<rscale>  0 0.22471873E+02</rscale>
<asrwt>0</asrwt>
<pdfrwt beam="2">  1        2 0.26757658E-03 0.22471873E+02</pdfrwt>
<pdfrwt beam="1">  1       -2 0.11167185E-01 0.22471873E+02</pdfrwt>
<totfact> 0.24641942E+06</totfact>
</mgrwt>
</event>
<event>
 4    1  0.3704929E-001  0.3244379E+02  0.7818608E-02  0.1572547E+00
         -2   -1    0    0    0  501 -0.00000000000E+00  0.00000000000E+00  0.15481312383E+03  0.15481312385E+03  0.26000000000E-02 0. -1.
          2   -1    0    0  501    0  0.00000000000E+00 -0.00000000000E+00 -0.16997892960E+01  0.16997912845E+01  0.26000000000E-02 0.  1.
        -13    1    1    2    0    0  0.63597489278E+01  0.14920295282E+02  0.75217523645E+02  0.76946401173E+02  0.10570000000E+00 0.  1.
         13    1    1    2    0    0 -0.63597489278E+01 -0.14920295282E+02  0.77895810889E+02  0.79566513963E+02  0.10570000000E+00 0. -1.
<mgrwt>
<rscale>  0 0.32443788E+02</rscale>
<asrwt>0</asrwt>
<pdfrwt beam="2">  1        2 0.26150608E-03 0.32443788E+02</pdfrwt>
<pdfrwt beam="1">  1       -2 0.23817415E-01 0.32443788E+02</pdfrwt>
<totfact> 0.87651120E+05</totfact>
</mgrwt>
</event>
<event>
 4    1  0.3704929E-001  0.2374311E+02  0.7818608E-02  0.1679740E+00
         -2   -1    0    0    0  501 -0.00000000000E+00  0.00000000000E+00  0.86631660356E+01  0.86631664258E+01  0.26000000000E-02 0. -1.
          2   -1    0    0  501    0  0.00000000000E+00 -0.00000000000E+00 -0.16268166747E+02  0.16268166955E+02  0.26000000000E-02 0.  1.
        -13    1    1    2    0    0  0.20489742242E+01  0.98449270528E+01  0.28220914447E+01  0.10444915350E+02  0.10570000000E+00 0. -1.
         13    1    1    2    0    0 -0.20489742242E+01 -0.98449270528E+01 -0.10427092156E+02  0.14486418031E+02  0.10570000000E+00 0.  1.
<mgrwt>
<rscale>  0 0.23743112E+02</rscale>
<asrwt>0</asrwt>
<pdfrwt beam="2">  1        2 0.25027949E-02 0.23743112E+02</pdfrwt>
<pdfrwt beam="1">  1       -2 0.13327948E-02 0.23743112E+02</pdfrwt>
<totfact> 0.27599315E+06</totfact>
</mgrwt>
</event>
<event>
 4    1  0.3704929E-001  0.3231338E+02  0.7818608E-02  0.1573840E+00
          2   -1    0    0  501    0  0.00000000000E+00  0.00000000000E+00  0.19681635506E+02  0.19681635678E+02  0.26000000000E-02 0. -1.
         -2   -1    0    0    0  501 -0.00000000000E+00 -0.00000000000E+00 -0.13263057013E+02  0.13263057268E+02  0.26000000000E-02 0.  1.
        -13    1    1    2    0    0 -0.11706962189E+02 -0.88875789933E+01 -0.36288691387E+01  0.15140075554E+02  0.10570000000E+00 0. -1.
         13    1    1    2    0    0  0.11706962189E+02  0.88875789933E+01  0.10047447632E+02  0.17804617392E+02  0.10570000000E+00 0.  1.
<mgrwt>
<rscale>  0 0.32313382E+02</rscale>
<asrwt>0</asrwt>
<pdfrwt beam="1">  1        2 0.30279439E-02 0.32313382E+02</pdfrwt>
<pdfrwt beam="2">  1       -2 0.20404704E-02 0.32313382E+02</pdfrwt>
<totfact> 0.13431900E+06</totfact>
</mgrwt>
</event>
<event>
 4    1  0.3704929E-001  0.2494905E+02  0.7818608E-02  0.1661735E+00
          2   -1    0    0  501    0  0.00000000000E+00  0.00000000000E+00  0.35185623449E+02  0.35185623545E+02  0.26000000000E-02 0. -1.
         -2   -1    0    0    0  501 -0.00000000000E+00 -0.00000000000E+00 -0.44226526049E+01  0.44226533691E+01  0.26000000000E-02 0.  1.
        -13    1    1    2    0    0  0.61126553039E+01 -0.80075255280E+01  0.27060365817E+02  0.28874895507E+02  0.10570000000E+00 0.  1.
         13    1    1    2    0    0 -0.61126553039E+01  0.80075255280E+01  0.37026050276E+01  0.10733381407E+02  0.10570000000E+00 0. -1.
<mgrwt>
<rscale>  0 0.24949053E+02</rscale>
<asrwt>0</asrwt>
<pdfrwt beam="1">  1        2 0.54131729E-02 0.24949053E+02</pdfrwt>
<pdfrwt beam="2">  1       -2 0.68040816E-03 0.24949053E+02</pdfrwt>
<totfact> 0.26670255E+06</totfact>
</mgrwt>
</event>
<event>
 4    1  0.3704929E-001  0.2265304E+02  0.7818608E-02  0.1697197E+00
         -2   -1    0    0    0  501 -0.00000000000E+00  0.00000000000E+00  0.18340154868E+01  0.18340173298E+01  0.26000000000E-02 0.  1.
          2   -1    0    0  501    0  0.00000000000E+00 -0.00000000000E+00 -0.69950305171E+02  0.69950305219E+02  0.26000000000E-02 0. -1.
        -13    1    1    2    0    0 -0.65466657715E+01  0.90541903612E+01 -0.28179380226E+02  0.30313789572E+02  0.10570000000E+00 0.  1.
         13    1    1    2    0    0  0.65466657715E+01 -0.90541903612E+01 -0.39936909458E+02  0.41470532976E+02  0.10570000000E+00 0. -1.
<mgrwt>
<rscale>  0 0.22653036E+02</rscale>
<asrwt>0</asrwt>
<pdfrwt beam="2">  1        2 0.10761583E-01 0.22653036E+02</pdfrwt>
<pdfrwt beam="1">  1       -2 0.28215643E-03 0.22653036E+02</pdfrwt>
<totfact> 0.37066137E+06</totfact>
</mgrwt>
</event>
<event>
 4    1  0.3704929E-001  0.5973225E+02  0.7818608E-02  0.1398959E+00
         -2   -1    0    0    0  501 -0.00000000000E+00  0.00000000000E+00  0.27366932185E+02  0.27366932309E+02  0.26000000000E-02 0. -1.
          2   -1    0    0  501    0  0.00000000000E+00 -0.00000000000E+00 -0.32593545321E+02  0.32593545425E+02  0.26000000000E-02 0.  1.
        -13    1    1    2    0    0 -0.11545883220E+02  0.22431288261E+02  0.13432262928E+02  0.28581584495E+02  0.10570000000E+00 0. -1.
         13    1    1    2    0    0  0.11545883220E+02 -0.22431288261E+02 -0.18658876064E+02  0.31378893238E+02  0.10570000000E+00 0.  1.
<mgrwt>
<rscale>  0 0.59732248E+02</rscale>
<asrwt>0</asrwt>
<pdfrwt beam="2">  1        2 0.50143916E-02 0.59732248E+02</pdfrwt>
<pdfrwt beam="1">  1       -2 0.42102973E-02 0.59732248E+02</pdfrwt>
<totfact> 0.29696042E+05</totfact>
</mgrwt>
</event>
<event>
 4    1  0.3704929E-001  0.2433521E+02  0.7818608E-02  0.1670738E+00
          2   -1    0    0  501    0  0.00000000000E+00  0.00000000000E+00  0.30147678153E+01  0.30147689364E+01  0.26000000000E-02 0.  1.
         -2   -1    0    0    0  501 -0.00000000000E+00 -0.00000000000E+00 -0.49108440754E+02  0.49108440823E+02  0.26000000000E-02 0. -1.
        -13    1    1    2    0    0  0.14141992617E+01 -0.10344568680E+02 -0.36427933854E+02  0.37894796451E+02  0.10570000000E+00 0. -1.
         13    1    1    2    0    0 -0.14141992617E+01  0.10344568680E+02 -0.96657390851E+01  0.14228413308E+02  0.10570000000E+00 0.  1.
<mgrwt>
<rscale>  0 0.24335207E+02</rscale>
<asrwt>0</asrwt>
<pdfrwt beam="1">  1        2 0.46381056E-03 0.24335207E+02</pdfrwt>
<pdfrwt beam="2">  1       -2 0.75551442E-02 0.24335207E+02</pdfrwt>
<totfact> 0.21992489E+06</totfact>
</mgrwt>
</event>
<event>
 4    1  0.3704929E-001  0.7588315E+02  0.7818608E-02  0.1341158E+00
          2   -1    0    0  501    0  0.00000000000E+00  0.00000000000E+00  0.33268305649E+02  0.33268305751E+02  0.26000000000E-02 0.  1.
         -2   -1    0    0    0  501 -0.00000000000E+00 -0.00000000000E+00 -0.43271311421E+02  0.43271311499E+02  0.26000000000E-02 0. -1.
        -13    1    1    2    0    0  0.49120343640E+01  0.35365655950E+02 -0.17945853400E+02  0.39961513098E+02  0.10570000000E+00 0.  1.
         13    1    1    2    0    0 -0.49120343640E+01 -0.35365655950E+02  0.79428476289E+01  0.36578104151E+02  0.10570000000E+00 0. -1.
<mgrwt>
<rscale>  0 0.75883153E+02</rscale>
<asrwt>0</asrwt>
<pdfrwt beam="1">  1        2 0.51182009E-02 0.75883153E+02</pdfrwt>
<pdfrwt beam="2">  1       -2 0.66571249E-02 0.75883153E+02</pdfrwt>
<totfact> 0.15423857E+05</totfact>
</mgrwt>
</event>
<event>
 4    1  0.3704929E-001  0.3834923E+02  0.7818608E-02  0.1520723E+00
         -2   -1    0    0    0  501 -0.00000000000E+00  0.00000000000E+00  0.15328209192E+02  0.15328209413E+02  0.26000000000E-02 0. -1.
          2   -1    0    0  501    0  0.00000000000E+00 -0.00000000000E+00 -0.23986228682E+02  0.23986228823E+02  0.26000000000E-02 0.  1.
        -13    1    1    2    0    0 -0.32800662983E+01 -0.17682834465E+02  0.24876532841E+01  0.18156019966E+02  0.10570000000E+00 0.  1.
         13    1    1    2    0    0  0.32800662983E+01  0.17682834465E+02 -0.11145672774E+02  0.21158418270E+02  0.10570000000E+00 0. -1.
<mgrwt>
<rscale>  0 0.38349234E+02</rscale>
<asrwt>0</asrwt>
<pdfrwt beam="2">  1        2 0.36901891E-02 0.38349234E+02</pdfrwt>
<pdfrwt beam="1">  1       -2 0.23581860E-02 0.38349234E+02</pdfrwt>
<totfact> 0.89820587E+05</totfact>
</mgrwt>
</event>
<event>
 4    1  0.3704929E-001  0.5499537E+02  0.7818608E-02  0.1420121E+00
          2   -1    0    0  501    0  0.00000000000E+00  0.00000000000E+00  0.21001618160E+03  0.21001618162E+03  0.26000000000E-02 0. -1.
         -2   -1    0    0    0  501 -0.00000000000E+00 -0.00000000000E+00 -0.36003060534E+01  0.36003069922E+01  0.26000000000E-02 0.  1.
        -13    1    1    2    0    0  0.24926182908E+02  0.11391841116E+02  0.11191321310E+03  0.11522008105E+03  0.10570000000E+00 0. -1.
         13    1    1    2    0    0 -0.24926182908E+02 -0.11391841116E+02  0.94502662446E+02  0.98396407558E+02  0.10570000000E+00 0.  1.
<mgrwt>
<rscale>  0 0.54995368E+02</rscale>
<asrwt>0</asrwt>
<pdfrwt beam="1">  1        2 0.32310182E-01 0.54995368E+02</pdfrwt>
<pdfrwt beam="2">  1       -2 0.55389331E-03 0.54995368E+02</pdfrwt>
<totfact> 0.58881414E+05</totfact>
</mgrwt>
</event>
<event>
 4    1  0.3704929E-001  0.2312722E+02  0.7818608E-02  0.1689456E+00
         -2   -1    0    0    0  501 -0.00000000000E+00  0.00000000000E+00  0.48166283604E+02  0.48166283674E+02  0.26000000000E-02 0.  1.
          2   -1    0    0  501    0  0.00000000000E+00 -0.00000000000E+00 -0.27761536570E+01  0.27761548745E+01  0.26000000000E-02 0. -1.
        -13    1    1    2    0    0  0.40414044655E+00  0.11555369144E+02  0.22416624097E+02  0.25223126173E+02  0.10570000000E+00 0.  1.
         13    1    1    2    0    0 -0.40414044655E+00 -0.11555369144E+02  0.22973505850E+02  0.25719312375E+02  0.10570000000E+00 0. -1.
<mgrwt>
<rscale>  0 0.23127217E+02</rscale>
<asrwt>0</asrwt>
<pdfrwt beam="2">  1        2 0.42710064E-03 0.23127217E+02</pdfrwt>
<pdfrwt beam="1">  1       -2 0.74101979E-02 0.23127217E+02</pdfrwt>
<totfact> 0.24717468E+06</totfact>
</mgrwt>
</event>
<event>
 4    1  0.3704929E-001  0.5247378E+02  0.7818608E-02  0.1432438E+00
         -2   -1    0    0    0  501 -0.00000000000E+00  0.00000000000E+00  0.21626438421E+02  0.21626438577E+02  0.26000000000E-02 0.  1.
          2   -1    0    0  501    0  0.00000000000E+00 -0.00000000000E+00 -0.31830226843E+02  0.31830226949E+02  0.26000000000E-02 0. -1.
        -13    1    1    2    0    0  0.89928930856E+01 -0.21119614223E+02 -0.18046314878E+02  0.29199158963E+02  0.10570000000E+00 0. -1.
         13    1    1    2    0    0 -0.89928930856E+01  0.21119614223E+02  0.78425264557E+01  0.24257506563E+02  0.10570000000E+00 0.  1.
<mgrwt>
<rscale>  0 0.52473782E+02</rscale>
<asrwt>0</asrwt>
<pdfrwt beam="2">  1        2 0.48969580E-02 0.52473782E+02</pdfrwt>
<pdfrwt beam="1">  1       -2 0.33271444E-02 0.52473782E+02</pdfrwt>
<totfact> 0.41761153E+05</totfact>
</mgrwt>
</event>
<event>
 4    1  0.3704929E-001  0.3526498E+02  0.7818608E-02  0.1546260E+00
          2   -1    0    0  501    0  0.00000000000E+00  0.00000000000E+00  0.50353067057E+02  0.50353067124E+02  0.26000000000E-02 0.  1.
         -2   -1    0    0    0  501 -0.00000000000E+00 -0.00000000000E+00 -0.61744946664E+01  0.61744952138E+01  0.26000000000E-02 0. -1.
        -13    1    1    2    0    0 -0.13259137045E+02 -0.91530963459E+01  0.33571253797E+02  0.37237402459E+02  0.10570000000E+00 0.  1.
         13    1    1    2    0    0  0.13259137045E+02  0.91530963459E+01  0.10607318593E+02  0.19290159878E+02  0.10570000000E+00 0. -1.
<mgrwt>
<rscale>  0 0.35264983E+02</rscale>
<asrwt>0</asrwt>
<pdfrwt beam="1">  1        2 0.77466259E-02 0.35264983E+02</pdfrwt>
<pdfrwt beam="2">  1       -2 0.94992229E-03 0.35264983E+02</pdfrwt>
<totfact> 0.12325099E+06</totfact>
</mgrwt>
</event>
<event>
 4    1  0.3704929E-001  0.3214752E+02  0.7818608E-02  0.1575496E+00
          2   -1    0    0  501    0  0.00000000000E+00  0.00000000000E+00  0.24205095186E+02  0.24205095325E+02  0.26000000000E-02 0.  1.
         -2   -1    0    0    0  501 -0.00000000000E+00 -0.00000000000E+00 -0.10674025616E+02  0.10674025932E+02  0.26000000000E-02 0. -1.
        -13    1    1    2    0    0  0.73530803673E+01 -0.12674511853E+02  0.13933209662E+02  0.20220201422E+02  0.10570000000E+00 0.  1.
         13    1    1    2    0    0 -0.73530803673E+01  0.12674511853E+02 -0.40214009139E+00  0.14658919835E+02  0.10570000000E+00 0. -1.
<mgrwt>
<rscale>  0 0.32147523E+02</rscale>
<asrwt>0</asrwt>
<pdfrwt beam="1">  1        2 0.37238608E-02 0.32147523E+02</pdfrwt>
<pdfrwt beam="2">  1       -2 0.16421578E-02 0.32147523E+02</pdfrwt>
<totfact> 0.13929190E+06</totfact>
</mgrwt>
</event>
<event>
 4    1  0.3704929E-001  0.8554995E+02  0.7818608E-02  0.1314001E+00
         -2   -1    0    0    0  501 -0.00000000000E+00  0.00000000000E+00  0.21721990592E+02  0.21721990747E+02  0.26000000000E-02 0.  1.
          2   -1    0    0  501    0  0.00000000000E+00 -0.00000000000E+00 -0.84232543396E+02  0.84232543437E+02  0.26000000000E-02 0. -1.
        -13    1    1    2    0    0  0.10172232349E+02  0.32938322082E+02  0.10815869504E+00  0.34473616626E+02  0.10570000000E+00 0.  1.
         13    1    1    2    0    0 -0.10172232349E+02 -0.32938322082E+02 -0.62618711500E+02  0.71480917558E+02  0.10570000000E+00 0. -1.
<mgrwt>
<rscale>  0 0.85549951E+02</rscale>
<asrwt>0</asrwt>
<pdfrwt beam="2">  1        2 0.12958853E-01 0.85549951E+02</pdfrwt>
<pdfrwt beam="1">  1       -2 0.33418448E-02 0.85549951E+02</pdfrwt>
<totfact> 0.13895529E+05</totfact>
</mgrwt>
</event>
<event>
 4    1  0.3704929E-001  0.2286898E+02  0.7818608E-02  0.1693643E+00
         -2   -1    0    0    0  501 -0.00000000000E+00  0.00000000000E+00  0.10987716595E+02  0.10987716903E+02  0.26000000000E-02 0.  1.
          2   -1    0    0  501    0  0.00000000000E+00 -0.00000000000E+00 -0.11899432718E+02  0.11899433002E+02  0.26000000000E-02 0. -1.
        -13    1    1    2    0    0 -0.10594343530E+02 -0.85359805705E-01  0.38474445597E+01  0.11272151669E+02  0.10570000000E+00 0.  1.
         13    1    1    2    0    0  0.10594343530E+02  0.85359805705E-01 -0.47591606826E+01  0.11614998236E+02  0.10570000000E+00 0. -1.
<mgrwt>
<rscale>  0 0.22868983E+02</rscale>
<asrwt>0</asrwt>
<pdfrwt beam="2">  1        2 0.18306820E-02 0.22868983E+02</pdfrwt>
<pdfrwt beam="1">  1       -2 0.16904180E-02 0.22868983E+02</pdfrwt>
<totfact> 0.29335387E+06</totfact>
</mgrwt>
</event>
<event>
 4    1  0.3704929E-001  0.2297521E+02  0.7818608E-02  0.1691912E+00
         -2   -1    0    0    0  501 -0.00000000000E+00  0.00000000000E+00  0.12787096128E+01  0.12787122561E+01  0.26000000000E-02 0.  1.
          2   -1    0    0  501    0  0.00000000000E+00 -0.00000000000E+00 -0.10320164760E+03  0.10320164763E+03  0.26000000000E-02 0. -1.
        -13    1    1    2    0    0  0.11158807177E+02 -0.23160010222E+01 -0.44417031667E+02  0.45855934327E+02  0.10570000000E+00 0.  1.
         13    1    1    2    0    0 -0.11158807177E+02  0.23160010222E+01 -0.57505906315E+02  0.58624425558E+02  0.10570000000E+00 0. -1.
<mgrwt>
<rscale>  0 0.22975211E+02</rscale>
<asrwt>0</asrwt>
<pdfrwt beam="2">  1        2 0.15877170E-01 0.22975211E+02</pdfrwt>
<pdfrwt beam="1">  1       -2 0.19672484E-03 0.22975211E+02</pdfrwt>
<totfact> 0.38988610E+06</totfact>
</mgrwt>
</event>
<event>
 4    1  0.3704929E-001  0.4746335E+02  0.7818608E-02  0.1459524E+00
         -2   -1    0    0    0  501 -0.00000000000E+00  0.00000000000E+00  0.30427455151E+02  0.30427455262E+02  0.26000000000E-02 0. -1.
          2   -1    0    0  501    0  0.00000000000E+00 -0.00000000000E+00 -0.18509347521E+02  0.18509347704E+02  0.26000000000E-02 0.  1.
        -13    1    1    2    0    0  0.36746374219E+00 -0.14268724609E+02 -0.13588672693E+02  0.19707732736E+02  0.10570000000E+00 0.  1.
         13    1    1    2    0    0 -0.36746374219E+00  0.14268724609E+02  0.25506780322E+02  0.29229070229E+02  0.10570000000E+00 0. -1.
<mgrwt>
<rscale>  0 0.47463348E+02</rscale>
<asrwt>0</asrwt>
<pdfrwt beam="2">  1        2 0.28475920E-02 0.47463348E+02</pdfrwt>
<pdfrwt beam="1">  1       -2 0.46811469E-02 0.47463348E+02</pdfrwt>
<totfact> 0.49969624E+05</totfact>
</mgrwt>
</event>
<event>
 4    1  0.3704929E-001  0.6318785E+02  0.7818608E-02  0.1384921E+00
          2   -1    0    0  501    0  0.00000000000E+00  0.00000000000E+00  0.31483023777E+02  0.31483023884E+02  0.26000000000E-02 0. -1.
         -2   -1    0    0    0  501 -0.00000000000E+00 -0.00000000000E+00 -0.31705215921E+02  0.31705216027E+02  0.26000000000E-02 0.  1.
        -13    1    1    2    0    0 -0.51591182809E+01 -0.96840446154E+01  0.29516231396E+02  0.31489939820E+02  0.10570000000E+00 0. -1.
         13    1    1    2    0    0  0.51591182809E+01  0.96840446154E+01 -0.29738423540E+02  0.31698300092E+02  0.10570000000E+00 0.  1.
<mgrwt>
<rscale>  0 0.63187849E+02</rscale>
<asrwt>0</asrwt>
<pdfrwt beam="1">  1        2 0.48435421E-02 0.63187849E+02</pdfrwt>
<pdfrwt beam="2">  1       -2 0.48777255E-02 0.63187849E+02</pdfrwt>
<totfact> 0.25334427E+05</totfact>
</mgrwt>
</event>
<event>
 4    1  0.3704929E-001  0.3735998E+02  0.7818608E-02  0.1528589E+00
          2   -1    0    0  501    0  0.00000000000E+00  0.00000000000E+00  0.14696936484E+02  0.14696936714E+02  0.26000000000E-02 0. -1.
         -2   -1    0    0    0  501 -0.00000000000E+00 -0.00000000000E+00 -0.23742504158E+02  0.23742504300E+02  0.26000000000E-02 0.  1.
        -13    1    1    2    0    0  0.12216755987E+02  0.14024617982E+02 -0.63024642969E+01  0.19638514839E+02  0.10570000000E+00 0. -1.
         13    1    1    2    0    0 -0.12216755987E+02 -0.14024617982E+02 -0.27431033771E+01  0.18800926174E+02  0.10570000000E+00 0.  1.
<mgrwt>
<rscale>  0 0.37359983E+02</rscale>
<asrwt>0</asrwt>
<pdfrwt beam="1">  1        2 0.22610672E-02 0.37359983E+02</pdfrwt>
<pdfrwt beam="2">  1       -2 0.36526930E-02 0.37359983E+02</pdfrwt>
<totfact> 0.90266878E+05</totfact>
</mgrwt>
</event>
<event>
 4    1  0.3704929E-001  0.2763806E+02  0.7818608E-02  0.1625767E+00
          2   -1    0    0  501    0  0.00000000000E+00  0.00000000000E+00  0.18235715293E+02  0.18235715479E+02  0.26000000000E-02 0.  1.
         -2   -1    0    0    0  501 -0.00000000000E+00 -0.00000000000E+00 -0.10472065483E+02  0.10472065805E+02  0.26000000000E-02 0. -1.
        -13    1    1    2    0    0  0.10394345165E+02  0.76055655181E+01 -0.13186943036E+01  0.12947477183E+02  0.10570000000E+00 0. -1.
         13    1    1    2    0    0 -0.10394345165E+02 -0.76055655181E+01  0.90823441142E+01  0.15760304101E+02  0.10570000000E+00 0.  1.
<mgrwt>
<rscale>  0 0.27638062E+02</rscale>
<asrwt>0</asrwt>
<pdfrwt beam="1">  1        2 0.28054947E-02 0.27638062E+02</pdfrwt>
<pdfrwt beam="2">  1       -2 0.16110870E-02 0.27638062E+02</pdfrwt>
<totfact> 0.19472140E+06</totfact>
</mgrwt>
</event>
<event>
 4    1  0.3704929E-001  0.2748496E+02  0.7818608E-02  0.1627678E+00
          2   -1    0    0  501    0  0.00000000000E+00  0.00000000000E+00  0.12271854229E+02  0.12271854504E+02  0.26000000000E-02 0.  1.
         -2   -1    0    0    0  501 -0.00000000000E+00 -0.00000000000E+00 -0.15389337419E+02  0.15389337639E+02  0.26000000000E-02 0. -1.
        -13    1    1    2    0    0  0.12437305835E+02  0.58046162430E+01 -0.22445755542E+01  0.13907891216E+02  0.10570000000E+00 0.  1.
         13    1    1    2    0    0 -0.12437305835E+02 -0.58046162430E+01 -0.87290763616E+00  0.13753300927E+02  0.10570000000E+00 0. -1.
<mgrwt>
<rscale>  0 0.27484957E+02</rscale>
<asrwt>0</asrwt>
<pdfrwt beam="1">  1        2 0.18879776E-02 0.27484957E+02</pdfrwt>
<pdfrwt beam="2">  1       -2 0.23675904E-02 0.27484957E+02</pdfrwt>
<totfact> 0.18992790E+06</totfact>
</mgrwt>
</event>
<event>
 4    1  0.3704929E-001  0.2120614E+02  0.7818608E-02  0.1722354E+00
         -2   -1    0    0    0  501 -0.00000000000E+00  0.00000000000E+00  0.19114107993E+01  0.19114125676E+01  0.26000000000E-02 0.  1.
          2   -1    0    0  501    0  0.00000000000E+00 -0.00000000000E+00 -0.58817819980E+02  0.58817820038E+02  0.26000000000E-02 0. -1.
        -13    1    1    2    0    0 -0.91635924236E+01 -0.51888008874E+01 -0.31982509252E+02  0.33671755988E+02  0.10570000000E+00 0.  1.
         13    1    1    2    0    0  0.91635924236E+01  0.51888008874E+01 -0.24923899929E+02  0.27057476618E+02  0.10570000000E+00 0. -1.
<mgrwt>
<rscale>  0 0.21206138E+02</rscale>
<asrwt>0</asrwt>
<pdfrwt beam="2">  1        2 0.90488941E-02 0.21206138E+02</pdfrwt>
<pdfrwt beam="1">  1       -2 0.29406338E-03 0.21206138E+02</pdfrwt>
<totfact> 0.41705070E+06</totfact>
</mgrwt>
</event>
<event>
 4    1  0.3704929E-001  0.3804300E+02  0.7818608E-02  0.1523127E+00
         -2   -1    0    0    0  501 -0.00000000000E+00  0.00000000000E+00  0.51787235366E+01  0.51787241893E+01  0.26000000000E-02 0. -1.
          2   -1    0    0  501    0  0.00000000000E+00 -0.00000000000E+00 -0.69866148388E+02  0.69866148437E+02  0.26000000000E-02 0.  1.
        -13    1    1    2    0    0  0.11909755397E+02  0.29948977914E+01 -0.60997494570E+02  0.62221517201E+02  0.10570000000E+00 0.  1.
         13    1    1    2    0    0 -0.11909755397E+02 -0.29948977914E+01 -0.36899302813E+01  0.12823355425E+02  0.10570000000E+00 0. -1.
<mgrwt>
<rscale>  0 0.38043002E+02</rscale>
<asrwt>0</asrwt>
<pdfrwt beam="2">  1        2 0.10748638E-01 0.38043002E+02</pdfrwt>
<pdfrwt beam="1">  1       -2 0.79672680E-03 0.38043002E+02</pdfrwt>
<totfact> 0.10887945E+06</totfact>
</mgrwt>
</event>
<event>
 4    1  0.3704929E-001  0.2456409E+02  0.7818608E-02  0.1667343E+00
         -2   -1    0    0    0  501 -0.00000000000E+00  0.00000000000E+00  0.83252114029E+01  0.83252118089E+01  0.26000000000E-02 0. -1.
          2   -1    0    0  501    0  0.00000000000E+00 -0.00000000000E+00 -0.18119499162E+02  0.18119499348E+02  0.26000000000E-02 0.  1.
        -13    1    1    2    0    0 -0.77472978232E+00  0.12195024456E+02 -0.35704534190E+01  0.12730991235E+02  0.10570000000E+00 0. -1.
         13    1    1    2    0    0  0.77472978232E+00 -0.12195024456E+02 -0.62238343398E+01  0.13713719922E+02  0.10570000000E+00 0.  1.
<mgrwt>
<rscale>  0 0.24564093E+02</rscale>
<asrwt>0</asrwt>
<pdfrwt beam="2">  1        2 0.27876153E-02 0.24564093E+02</pdfrwt>
<pdfrwt beam="1">  1       -2 0.12808018E-02 0.24564093E+02</pdfrwt>
<totfact> 0.25740735E+06</totfact>
</mgrwt>
</event>
<event>
 4    1  0.3704929E-001  0.2364246E+02  0.7818608E-02  0.1681303E+00
          2   -1    0    0  501    0  0.00000000000E+00  0.00000000000E+00  0.96026496945E+02  0.96026496980E+02  0.26000000000E-02 0.  1.
         -2   -1    0    0    0  501 -0.00000000000E+00 -0.00000000000E+00 -0.14552372258E+01  0.14552395484E+01  0.26000000000E-02 0. -1.
        -13    1    1    2    0    0  0.27716671057E+01  0.11332113614E+02  0.39428499193E+02  0.41118325094E+02  0.10570000000E+00 0. -1.
         13    1    1    2    0    0 -0.27716671057E+01 -0.11332113614E+02  0.55142760526E+02  0.56363411434E+02  0.10570000000E+00 0.  1.
<mgrwt>
<rscale>  0 0.23642457E+02</rscale>
<asrwt>0</asrwt>
<pdfrwt beam="1">  1        2 0.14773312E-01 0.23642457E+02</pdfrwt>
<pdfrwt beam="2">  1       -2 0.22388277E-03 0.23642457E+02</pdfrwt>
<totfact> 0.35935466E+06</totfact>
</mgrwt>
</event>
<event>
 4    1  0.3704929E-001  0.3438783E+02  0.7818608E-02  0.1554105E+00
         -2   -1    0    0    0  501 -0.00000000000E+00  0.00000000000E+00  0.23990006164E+02  0.23990006305E+02  0.26000000000E-02 0.  1.
          2   -1    0    0  501    0  0.00000000000E+00 -0.00000000000E+00 -0.12323077535E+02  0.12323077809E+02  0.26000000000E-02 0. -1.
        -13    1    1    2    0    0  0.99861603794E+01 -0.35528284503E+01  0.20129257693E+02  0.22749597291E+02  0.10570000000E+00 0.  1.
         13    1    1    2    0    0 -0.99861603794E+01  0.35528284503E+01 -0.84623290639E+01  0.13563486823E+02  0.10570000000E+00 0. -1.
<mgrwt>
<rscale>  0 0.34387830E+02</rscale>
<asrwt>0</asrwt>
<pdfrwt beam="2">  1        2 0.18958581E-02 0.34387830E+02</pdfrwt>
<pdfrwt beam="1">  1       -2 0.36907702E-02 0.34387830E+02</pdfrwt>
<totfact> 0.10912436E+06</totfact>
</mgrwt>
</event>
<event>
 4    1  0.3704929E-001  0.2434685E+02  0.7818608E-02  0.1670564E+00
          2   -1    0    0  501    0  0.00000000000E+00  0.00000000000E+00  0.66062948332E+01  0.66062953448E+01  0.26000000000E-02 0.  1.
         -2   -1    0    0    0  501 -0.00000000000E+00 -0.00000000000E+00 -0.22431976034E+02  0.22431976185E+02  0.26000000000E-02 0. -1.
        -13    1    1    2    0    0 -0.74130855846E+01 -0.88992608781E+01 -0.12380325303E+02  0.16953887730E+02  0.10570000000E+00 0. -1.
         13    1    1    2    0    0  0.74130855846E+01  0.88992608781E+01 -0.34453558977E+01  0.12084383800E+02  0.10570000000E+00 0.  1.
<mgrwt>
<rscale>  0 0.24346848E+02</rscale>
<asrwt>0</asrwt>
<pdfrwt beam="1">  1        2 0.10163531E-02 0.24346848E+02</pdfrwt>
<pdfrwt beam="2">  1       -2 0.34510733E-02 0.24346848E+02</pdfrwt>
<totfact> 0.24036533E+06</totfact>
</mgrwt>
</event>
<event>
 4    1  0.3704929E-001  0.2894089E+02  0.7818608E-02  0.1610100E+00
         -2   -1    0    0    0  501 -0.00000000000E+00  0.00000000000E+00  0.32622825771E+01  0.32622836132E+01  0.26000000000E-02 0.  1.
          2   -1    0    0  501    0  0.00000000000E+00 -0.00000000000E+00 -0.64186261740E+02  0.64186261792E+02  0.26000000000E-02 0. -1.
        -13    1    1    2    0    0  0.86235819578E+01 -0.65406129761E+01 -0.52844708820E+02  0.53941822426E+02  0.10570000000E+00 0. -1.
         13    1    1    2    0    0 -0.86235819578E+01  0.65406129761E+01 -0.80792703428E+01  0.13506722980E+02  0.10570000000E+00 0.  1.
<mgrwt>
<rscale>  0 0.28940889E+02</rscale>
<asrwt>0</asrwt>
<pdfrwt beam="2">  1        2 0.98748086E-02 0.28940889E+02</pdfrwt>
<pdfrwt beam="1">  1       -2 0.50188976E-03 0.28940889E+02</pdfrwt>
<totfact> 0.20688142E+06</totfact>
</mgrwt>
</event>
<event>
 4    1  0.3704929E-001  0.8781027E+02  0.7818608E-02  0.1308243E+00
         -2   -1    0    0    0  501 -0.00000000000E+00  0.00000000000E+00  0.10022675834E+02  0.10022676171E+02  0.26000000000E-02 0.  1.
          2   -1    0    0  501    0  0.00000000000E+00 -0.00000000000E+00 -0.19232997780E+03  0.19232997781E+03  0.26000000000E-02 0. -1.
        -13    1    1    2    0    0  0.28231710976E+02  0.47732299736E+01 -0.14452578315E+02  0.32073375585E+02  0.10570000000E+00 0.  1.
         13    1    1    2    0    0 -0.28231710976E+02 -0.47732299736E+01 -0.16785472365E+03  0.17027927840E+03  0.10570000000E+00 0. -1.
<mgrwt>
<rscale>  0 0.87810274E+02</rscale>
<asrwt>0</asrwt>
<pdfrwt beam="2">  1        2 0.29589225E-01 0.87810274E+02</pdfrwt>
<pdfrwt beam="1">  1       -2 0.15419503E-02 0.87810274E+02</pdfrwt>
<totfact> 0.16873931E+05</totfact>
</mgrwt>
</event>
<event>
 4    1  0.3704929E-001  0.7607055E+02  0.7818608E-02  0.1340588E+00
         -2   -1    0    0    0  501 -0.00000000000E+00  0.00000000000E+00  0.79888725392E+01  0.79888729623E+01  0.26000000000E-02 0. -1.
          2   -1    0    0  501    0  0.00000000000E+00 -0.00000000000E+00 -0.18108714576E+03  0.18108714578E+03  0.26000000000E-02 0.  1.
        -13    1    1    2    0    0  0.24246124634E+02  0.23271936637E+02 -0.13081772280E+03  0.13506570759E+03  0.10570000000E+00 0.  1.
         13    1    1    2    0    0 -0.24246124634E+02 -0.23271936637E+02 -0.42280550416E+02  0.54010311151E+02  0.10570000000E+00 0. -1.
<mgrwt>
<rscale>  0 0.76070551E+02</rscale>
<asrwt>0</asrwt>
<pdfrwt beam="2">  1        2 0.27859558E-01 0.76070551E+02</pdfrwt>
<pdfrwt beam="1">  1       -2 0.12290575E-02 0.76070551E+02</pdfrwt>
<totfact> 0.24205826E+05</totfact>
</mgrwt>
</event>
<event>
 4    1  0.3704929E-001  0.2825848E+02  0.7818608E-02  0.1618177E+00
          2   -1    0    0  501    0  0.00000000000E+00  0.00000000000E+00  0.37509036743E+02  0.37509036833E+02  0.26000000000E-02 0. -1.
         -2   -1    0    0    0  501 -0.00000000000E+00 -0.00000000000E+00 -0.53223292555E+01  0.53223298906E+01  0.26000000000E-02 0.  1.
        -13    1    1    2    0    0 -0.11287891648E+02 -0.60024530017E+01  0.25210049339E+02  0.28266653500E+02  0.10570000000E+00 0. -1.
         13    1    1    2    0    0  0.11287891648E+02  0.60024530017E+01  0.69766581480E+01  0.14564713224E+02  0.10570000000E+00 0.  1.
<mgrwt>
<rscale>  0 0.28258483E+02</rscale>
<asrwt>0</asrwt>
<pdfrwt beam="1">  1        2 0.57706210E-02 0.28258483E+02</pdfrwt>
<pdfrwt beam="2">  1       -2 0.81881996E-03 0.28258483E+02</pdfrwt>
<totfact> 0.20074768E+06</totfact>
</mgrwt>
</event>
<event>
 4    1  0.3704929E-001  0.3526874E+02  0.7818608E-02  0.1546227E+00
         -2   -1    0    0    0  501 -0.00000000000E+00  0.00000000000E+00  0.13963662266E+02  0.13963662508E+02  0.26000000000E-02 0.  1.
          2   -1    0    0  501    0  0.00000000000E+00 -0.00000000000E+00 -0.22270021773E+02  0.22270021925E+02  0.26000000000E-02 0. -1.
        -13    1    1    2    0    0 -0.98073755836E+01 -0.13750579739E+02  0.10547168627E+01  0.16922962482E+02  0.10570000000E+00 0.  1.
         13    1    1    2    0    0  0.98073755836E+01  0.13750579739E+02 -0.93610763691E+01  0.19310721951E+02  0.10570000000E+00 0. -1.
<mgrwt>
<rscale>  0 0.35268744E+02</rscale>
<asrwt>0</asrwt>
<pdfrwt beam="2">  1        2 0.34261572E-02 0.35268744E+02</pdfrwt>
<pdfrwt beam="1">  1       -2 0.21482558E-02 0.35268744E+02</pdfrwt>
<totfact> 0.10975732E+06</totfact>
</mgrwt>
</event>
<event>
 4    1  0.3704929E-001  0.2765922E+02  0.7818608E-02  0.1625504E+00
          2   -1    0    0  501    0  0.00000000000E+00  0.00000000000E+00  0.52518344825E+02  0.52518344889E+02  0.26000000000E-02 0. -1.
         -2   -1    0    0    0  501 -0.00000000000E+00 -0.00000000000E+00 -0.36417396154E+01  0.36417405435E+01  0.26000000000E-02 0.  1.
        -13    1    1    2    0    0 -0.55845010499E+01 -0.12248162814E+02  0.30872823510E+02  0.33680061584E+02  0.10570000000E+00 0.  1.
         13    1    1    2    0    0  0.55845010499E+01  0.12248162814E+02  0.18003781699E+02  0.22480023849E+02  0.10570000000E+00 0. -1.
<mgrwt>
<rscale>  0 0.27659224E+02</rscale>
<asrwt>0</asrwt>
<pdfrwt beam="1">  1        2 0.80797455E-02 0.27659224E+02</pdfrwt>
<pdfrwt beam="2">  1       -2 0.56026770E-03 0.27659224E+02</pdfrwt>
<totfact> 0.22215302E+06</totfact>
</mgrwt>
</event>
<event>
 4    1  0.3704929E-001  0.7381854E+02  0.7818608E-02  0.1347569E+00
         -2   -1    0    0    0  501 -0.00000000000E+00  0.00000000000E+00  0.58202158047E+01  0.58202163854E+01  0.26000000000E-02 0. -1.
          2   -1    0    0  501    0  0.00000000000E+00 -0.00000000000E+00 -0.23406246417E+03  0.23406246419E+03  0.26000000000E-02 0.  1.
        -13    1    1    2    0    0 -0.21056184575E+02  0.30313652977E+02 -0.11395908257E+03  0.11978716183E+03  0.10570000000E+00 0.  1.
         13    1    1    2    0    0  0.21056184575E+02 -0.30313652977E+02 -0.11428316580E+03  0.12009551875E+03  0.10570000000E+00 0. -1.
<mgrwt>
<rscale>  0 0.73818538E+02</rscale>
<asrwt>0</asrwt>
<pdfrwt beam="2">  1        2 0.36009603E-01 0.73818538E+02</pdfrwt>
<pdfrwt beam="1">  1       -2 0.89541804E-03 0.73818538E+02</pdfrwt>
<totfact> 0.28663438E+05</totfact>
</mgrwt>
</event>
<event>
 4    1  0.3704929E-001  0.2565279E+02  0.7818608E-02  0.1651799E+00
         -2   -1    0    0    0  501 -0.00000000000E+00  0.00000000000E+00  0.30375080147E+02  0.30375080258E+02  0.26000000000E-02 0.  1.
          2   -1    0    0  501    0  0.00000000000E+00 -0.00000000000E+00 -0.54161643182E+01  0.54161649422E+01  0.26000000000E-02 0. -1.
        -13    1    1    2    0    0  0.78972683981E+01 -0.70541088067E+01  0.23818970283E+01  0.10854119271E+02  0.10570000000E+00 0. -1.
         13    1    1    2    0    0 -0.78972683981E+01  0.70541088067E+01  0.22577018801E+02  0.24937125930E+02  0.10570000000E+00 0.  1.
<mgrwt>
<rscale>  0 0.25652792E+02</rscale>
<asrwt>0</asrwt>
<pdfrwt beam="2">  1        2 0.83325611E-03 0.25652792E+02</pdfrwt>
<pdfrwt beam="1">  1       -2 0.46730893E-02 0.25652792E+02</pdfrwt>
<totfact> 0.20731573E+06</totfact>
</mgrwt>
</event>
<event>
 4    1  0.3704929E-001  0.6631771E+02  0.7818608E-02  0.1373082E+00
          2   -1    0    0  501    0  0.00000000000E+00  0.00000000000E+00  0.13667203923E+03  0.13667203926E+03  0.26000000000E-02 0. -1.
         -2   -1    0    0    0  501 -0.00000000000E+00 -0.00000000000E+00 -0.80448773847E+01  0.80448778048E+01  0.26000000000E-02 0.  1.
        -13    1    1    2    0    0  0.26600698453E+02  0.17029978482E+02  0.42287508883E+02  0.52781264718E+02  0.10570000000E+00 0. -1.
         13    1    1    2    0    0 -0.26600698453E+02 -0.17029978482E+02  0.86339652963E+02  0.91935652342E+02  0.10570000000E+00 0.  1.
<mgrwt>
<rscale>  0 0.66317715E+02</rscale>
<asrwt>0</asrwt>
<pdfrwt beam="1">  1        2 0.21026466E-01 0.66317715E+02</pdfrwt>
<pdfrwt beam="2">  1       -2 0.12376736E-02 0.66317715E+02</pdfrwt>
<totfact> 0.31651069E+05</totfact>
</mgrwt>
</event>
<event>
 4    1  0.3704929E-001  0.2591170E+02  0.7818608E-02  0.1648242E+00
         -2   -1    0    0    0  501 -0.00000000000E+00  0.00000000000E+00  0.30508548124E+02  0.30508548235E+02  0.26000000000E-02 0. -1.
          2   -1    0    0  501    0  0.00000000000E+00 -0.00000000000E+00 -0.55018703513E+01  0.55018709656E+01  0.26000000000E-02 0.  1.
        -13    1    1    2    0    0 -0.98968323196E+01  0.27941208012E+01  0.15527403404E+01  0.10400796896E+02  0.10570000000E+00 0.  1.
         13    1    1    2    0    0  0.98968323196E+01 -0.27941208012E+01  0.23453937432E+02  0.25609622304E+02  0.10570000000E+00 0. -1.
<mgrwt>
<rscale>  0 0.25911703E+02</rscale>
<asrwt>0</asrwt>
<pdfrwt beam="2">  1        2 0.84644166E-03 0.25911703E+02</pdfrwt>
<pdfrwt beam="1">  1       -2 0.46936228E-02 0.25911703E+02</pdfrwt>
<totfact> 0.20257507E+06</totfact>
</mgrwt>
</event>
<event>
 4    1  0.3704929E-001  0.2654710E+02  0.7818608E-02  0.1639726E+00
         -2   -1    0    0    0  501 -0.00000000000E+00  0.00000000000E+00  0.17524194950E+02  0.17524195143E+02  0.26000000000E-02 0.  1.
          2   -1    0    0  501    0  0.00000000000E+00 -0.00000000000E+00 -0.10053938973E+02  0.10053939309E+02  0.26000000000E-02 0. -1.
        -13    1    1    2    0    0  0.62978906258E+00 -0.10780295664E+02  0.11752681737E+02  0.15960830472E+02  0.10570000000E+00 0.  1.
         13    1    1    2    0    0 -0.62978906258E+00  0.10780295664E+02 -0.42824257599E+01  0.11617303979E+02  0.10570000000E+00 0. -1.
<mgrwt>
<rscale>  0 0.26547105E+02</rscale>
<asrwt>0</asrwt>
<pdfrwt beam="2">  1        2 0.15467599E-02 0.26547105E+02</pdfrwt>
<pdfrwt beam="1">  1       -2 0.26960300E-02 0.26547105E+02</pdfrwt>
<totfact> 0.20274284E+06</totfact>
</mgrwt>
</event>
<event>
 4    1  0.3704929E-001  0.3861296E+02  0.7818608E-02  0.1518674E+00
          2   -1    0    0  501    0  0.00000000000E+00  0.00000000000E+00  0.35534447878E+01  0.35534457390E+01  0.26000000000E-02 0.  1.
         -2   -1    0    0    0  501 -0.00000000000E+00 -0.00000000000E+00 -0.10489543821E+03  0.10489543824E+03  0.26000000000E-02 0. -1.
        -13    1    1    2    0    0 -0.80008047648E+01  0.15251923781E+02 -0.75171215212E+02  0.77119108040E+02  0.10570000000E+00 0. -1.
         13    1    1    2    0    0  0.80008047648E+01 -0.15251923781E+02 -0.26170778207E+02  0.31329775938E+02  0.10570000000E+00 0.  1.
<mgrwt>
<rscale>  0 0.38612962E+02</rscale>
<asrwt>0</asrwt>
<pdfrwt beam="1">  1        2 0.54668397E-03 0.38612962E+02</pdfrwt>
<pdfrwt beam="2">  1       -2 0.16137757E-01 0.38612962E+02</pdfrwt>
<totfact> 0.65084954E+05</totfact>
</mgrwt>
</event>
<event>
 4    1  0.3704929E-001  0.2618416E+02  0.7818608E-02  0.1644554E+00
          2   -1    0    0  501    0  0.00000000000E+00  0.00000000000E+00  0.13159321873E+03  0.13159321875E+03  0.26000000000E-02 0.  1.
         -2   -1    0    0    0  501 -0.00000000000E+00 -0.00000000000E+00 -0.13025166728E+01  0.13025192678E+01  0.26000000000E-02 0. -1.
        -13    1    1    2    0    0 -0.45284061332E+01 -0.12280404033E+02  0.63740844725E+02  0.65070893986E+02  0.10570000000E+00 0. -1.
         13    1    1    2    0    0  0.45284061332E+01  0.12280404033E+02  0.66549857331E+02  0.67824844036E+02  0.10570000000E+00 0.  1.
<mgrwt>
<rscale>  0 0.26184158E+02</rscale>
<asrwt>0</asrwt>
<pdfrwt beam="1">  1        2 0.20245105E-01 0.26184158E+02</pdfrwt>
<pdfrwt beam="2">  1       -2 0.20038743E-03 0.26184158E+02</pdfrwt>
<totfact> 0.30762064E+06</totfact>
</mgrwt>
</event>
<event>
 4    1  0.3704929E-001  0.4222612E+02  0.7818608E-02  0.1492441E+00
          2   -1    0    0  501    0  0.00000000000E+00  0.00000000000E+00  0.17736200929E+02  0.17736201119E+02  0.26000000000E-02 0.  1.
         -2   -1    0    0    0  501 -0.00000000000E+00 -0.00000000000E+00 -0.25132855805E+02  0.25132855940E+02  0.26000000000E-02 0. -1.
        -13    1    1    2    0    0 -0.12008261553E+02  0.13052051586E+02 -0.15326800984E+02  0.23440912888E+02  0.10570000000E+00 0. -1.
         13    1    1    2    0    0  0.12008261553E+02 -0.13052051586E+02  0.79301461076E+01  0.19428144171E+02  0.10570000000E+00 0.  1.
<mgrwt>
<rscale>  0 0.42226124E+02</rscale>
<asrwt>0</asrwt>
<pdfrwt beam="1">  1        2 0.27286463E-02 0.42226124E+02</pdfrwt>
<pdfrwt beam="2">  1       -2 0.38665932E-02 0.42226124E+02</pdfrwt>
<totfact> 0.67491266E+05</totfact>
</mgrwt>
</event>
<event>
 4    1  0.3704929E-001  0.5211148E+02  0.7818608E-02  0.1434275E+00
         -2   -1    0    0    0  501 -0.00000000000E+00  0.00000000000E+00  0.11673067922E+03  0.11673067925E+03  0.26000000000E-02 0.  1.
          2   -1    0    0  501    0  0.00000000000E+00 -0.00000000000E+00 -0.58159644699E+01  0.58159650511E+01  0.26000000000E-02 0. -1.
        -13    1    1    2    0    0 -0.10132550641E+02 -0.15176018874E+02  0.11720282747E+02  0.21687700005E+02  0.10570000000E+00 0. -1.
         13    1    1    2    0    0  0.10132550641E+02  0.15176018874E+02  0.99194432001E+02  0.10085894429E+03  0.10570000000E+00 0.  1.
<mgrwt>
<rscale>  0 0.52111477E+02</rscale>
<asrwt>0</asrwt>
<pdfrwt beam="2">  1        2 0.89476382E-03 0.52111477E+02</pdfrwt>
<pdfrwt beam="1">  1       -2 0.17958566E-01 0.52111477E+02</pdfrwt>
<totfact> 0.30614514E+05</totfact>
</mgrwt>
</event>
<event>
 4    1  0.3704929E-001  0.3655877E+02  0.7818608E-02  0.1535178E+00
         -2   -1    0    0    0  501 -0.00000000000E+00  0.00000000000E+00  0.29175604797E+01  0.29175616382E+01  0.26000000000E-02 0. -1.
          2   -1    0    0  501    0  0.00000000000E+00 -0.00000000000E+00 -0.11452576980E+03  0.11452576983E+03  0.26000000000E-02 0.  1.
        -13    1    1    2    0    0 -0.10573951097E+02 -0.14302835671E+02 -0.69336582162E+02  0.71581787827E+02  0.10570000000E+00 0.  1.
         13    1    1    2    0    0  0.10573951097E+02  0.14302835671E+02 -0.42271627156E+02  0.45861543639E+02  0.10570000000E+00 0. -1.
<mgrwt>
<rscale>  0 0.36558771E+02</rscale>
<asrwt>0</asrwt>
<pdfrwt beam="2">  1        2 0.17619346E-01 0.36558771E+02</pdfrwt>
<pdfrwt beam="1">  1       -2 0.44885564E-03 0.36558771E+02</pdfrwt>
<totfact> 0.13474888E+06</totfact>
</mgrwt>
</event>
<event>
 4    1  0.3704929E-001  0.1210413E+03  0.7818608E-02  0.1241389E+00
         -2   -1    0    0    0  501 -0.00000000000E+00  0.00000000000E+00  0.17758791678E+02  0.17758791869E+02  0.26000000000E-02 0.  1.
          2   -1    0    0  501    0  0.00000000000E+00 -0.00000000000E+00 -0.20624976283E+03  0.20624976284E+03  0.26000000000E-02 0. -1.
        -13    1    1    2    0    0  0.20532729449E+02 -0.31613571736E+02 -0.66216432107E+01  0.38273597007E+02  0.10570000000E+00 0.  1.
         13    1    1    2    0    0 -0.20532729449E+02  0.31613571736E+02 -0.18186932794E+03  0.18573495770E+03  0.10570000000E+00 0. -1.
<mgrwt>
<rscale>  0 0.12104126E+03</rscale>
<asrwt>0</asrwt>
<pdfrwt beam="2">  1        2 0.31730731E-01 0.12104126E+03</pdfrwt>
<pdfrwt beam="1">  1       -2 0.27321220E-02 0.12104126E+03</pdfrwt>
<totfact> 0.71980094E+04</totfact>
</mgrwt>
</event>
<event>
 4    1  0.3704929E-001  0.2885491E+02  0.7818608E-02  0.1611102E+00
         -2   -1    0    0    0  501 -0.00000000000E+00  0.00000000000E+00  0.28584520698E+01  0.28584532523E+01  0.26000000000E-02 0.  1.
          2   -1    0    0  501    0  0.00000000000E+00 -0.00000000000E+00 -0.72819631476E+02  0.72819631522E+02  0.26000000000E-02 0. -1.
        -13    1    1    2    0    0 -0.26792313431E+01  0.13111875818E+02 -0.20846944849E+02  0.24773087214E+02  0.10570000000E+00 0.  1.
         13    1    1    2    0    0  0.26792313431E+01 -0.13111875818E+02 -0.49114234557E+02  0.50904997561E+02  0.10570000000E+00 0. -1.
<mgrwt>
<rscale>  0 0.28854911E+02</rscale>
<asrwt>0</asrwt>
<pdfrwt beam="2">  1        2 0.11203019E-01 0.28854911E+02</pdfrwt>
<pdfrwt beam="1">  1       -2 0.43976201E-03 0.28854911E+02</pdfrwt>
<totfact> 0.21352281E+06</totfact>
</mgrwt>
</event>
<event>
 4    1  0.3704929E-001  0.2756063E+02  0.7818608E-02  0.1626732E+00
          2   -1    0    0  501    0  0.00000000000E+00  0.00000000000E+00  0.12805578669E+03  0.12805578672E+03  0.26000000000E-02 0. -1.
         -2   -1    0    0    0  501 -0.00000000000E+00 -0.00000000000E+00 -0.14829236762E+01  0.14829259555E+01  0.26000000000E-02 0.  1.
        -13    1    1    2    0    0 -0.10514022141E+02 -0.86922387768E+01  0.72432101472E+02  0.73705631892E+02  0.10570000000E+00 0. -1.
         13    1    1    2    0    0  0.10514022141E+02  0.86922387768E+01  0.54140761546E+02  0.55833080784E+02  0.10570000000E+00 0.  1.
<mgrwt>
<rscale>  0 0.27560632E+02</rscale>
<asrwt>0</asrwt>
<pdfrwt beam="1">  1        2 0.19700892E-01 0.27560632E+02</pdfrwt>
<pdfrwt beam="2">  1       -2 0.22814226E-03 0.27560632E+02</pdfrwt>
<totfact> 0.27129256E+06</totfact>
</mgrwt>
</event>
<event>
 4    1  0.3704929E-001  0.3394431E+02  0.7818608E-02  0.1558180E+00
          2   -1    0    0  501    0  0.00000000000E+00  0.00000000000E+00  0.99346832446E+01  0.99346835848E+01  0.26000000000E-02 0.  1.
         -2   -1    0    0    0  501 -0.00000000000E+00 -0.00000000000E+00 -0.28994785229E+02  0.28994785346E+02  0.26000000000E-02 0. -1.
        -13    1    1    2    0    0  0.29488363904E+01 -0.97030128500E+01  0.60773482788E+01  0.11823257970E+02  0.10570000000E+00 0.  1.
         13    1    1    2    0    0 -0.29488363904E+01  0.97030128500E+01 -0.25137450263E+02  0.27106210961E+02  0.10570000000E+00 0. -1.
<mgrwt>
<rscale>  0 0.33944308E+02</rscale>
<asrwt>0</asrwt>
<pdfrwt beam="1">  1        2 0.15284129E-02 0.33944308E+02</pdfrwt>
<pdfrwt beam="2">  1       -2 0.44607362E-02 0.33944308E+02</pdfrwt>
<totfact> 0.10994407E+06</totfact>
</mgrwt>
</event>
<event>
 4    1  0.3704929E-001  0.1333679E+03  0.7818608E-02  0.1222542E+00
         -2   -1    0    0    0  501 -0.00000000000E+00  0.00000000000E+00  0.10547190820E+02  0.10547191141E+02  0.26000000000E-02 0.  1.
          2   -1    0    0  501    0  0.00000000000E+00 -0.00000000000E+00 -0.42160521137E+03  0.42160521138E+03  0.26000000000E-02 0. -1.
        -13    1    1    2    0    0  0.43471704675E+02  0.50522550257E+02 -0.19871487554E+03  0.20959468057E+03  0.10570000000E+00 0.  1.
         13    1    1    2    0    0 -0.43471704675E+02 -0.50522550257E+02 -0.21234314501E+03  0.22255772194E+03  0.10570000000E+00 0. -1.
<mgrwt>
<rscale>  0 0.13336792E+03</rscale>
<asrwt>0</asrwt>
<pdfrwt beam="2">  1        2 0.64862327E-01 0.13336792E+03</pdfrwt>
<pdfrwt beam="1">  1       -2 0.16226451E-02 0.13336792E+03</pdfrwt>
<totfact> 0.72614755E+04</totfact>
</mgrwt>
</event>
<event>
 4    1  0.3704929E-001  0.3056798E+02  0.7818608E-02  0.1591894E+00
         -2   -1    0    0    0  501 -0.00000000000E+00  0.00000000000E+00  0.63709714269E+01  0.63709719575E+01  0.26000000000E-02 0. -1.
          2   -1    0    0  501    0  0.00000000000E+00 -0.00000000000E+00 -0.36666368588E+02  0.36666368680E+02  0.26000000000E-02 0.  1.
        -13    1    1    2    0    0  0.86824809402E+01  0.11716832827E+02 -0.87081543736E+01  0.16985663716E+02  0.10570000000E+00 0.  1.
         13    1    1    2    0    0 -0.86824809402E+01 -0.11716832827E+02 -0.21587242787E+02  0.26051676921E+02  0.10570000000E+00 0. -1.
<mgrwt>
<rscale>  0 0.30567983E+02</rscale>
<asrwt>0</asrwt>
<pdfrwt beam="2">  1        2 0.56409797E-02 0.30567983E+02</pdfrwt>
<pdfrwt beam="1">  1       -2 0.98014951E-03 0.30567983E+02</pdfrwt>
<totfact> 0.16590968E+06</totfact>
</mgrwt>
</event>
<event>
 4    1  0.3704929E-001  0.8163765E+02  0.7818608E-02  0.1324467E+00
          2   -1    0    0  501    0  0.00000000000E+00  0.00000000000E+00  0.31871384778E+02  0.31871384884E+02  0.26000000000E-02 0. -1.
         -2   -1    0    0    0  501 -0.00000000000E+00 -0.00000000000E+00 -0.52278129147E+02  0.52278129212E+02  0.26000000000E-02 0.  1.
        -13    1    1    2    0    0 -0.14851480767E+02 -0.72784729032E+00  0.28980325499E+02  0.32572483497E+02  0.10570000000E+00 0. -1.
         13    1    1    2    0    0  0.14851480767E+02  0.72784729032E+00 -0.49387069869E+02  0.51577030599E+02  0.10570000000E+00 0.  1.
<mgrwt>
<rscale>  0 0.81637648E+02</rscale>
<asrwt>0</asrwt>
<pdfrwt beam="1">  1        2 0.49032900E-02 0.81637648E+02</pdfrwt>
<pdfrwt beam="2">  1       -2 0.80427891E-02 0.81637648E+02</pdfrwt>
<totfact> 0.12401627E+05</totfact>
</mgrwt>
</event>
<event>
 4    1  0.3704929E-001  0.2384788E+02  0.7818608E-02  0.1678124E+00
          2   -1    0    0  501    0  0.00000000000E+00  0.00000000000E+00  0.19523988958E+01  0.19524006270E+01  0.26000000000E-02 0.  1.
         -2   -1    0    0    0  501 -0.00000000000E+00 -0.00000000000E+00 -0.72823348812E+02  0.72823348858E+02  0.26000000000E-02 0. -1.
        -13    1    1    2    0    0 -0.82020718211E+01 -0.78294894966E+01 -0.46996288956E+02  0.48344981498E+02  0.10570000000E+00 0. -1.
         13    1    1    2    0    0  0.82020718211E+01  0.78294894966E+01 -0.23874660960E+02  0.26430767987E+02  0.10570000000E+00 0.  1.
<mgrwt>
<rscale>  0 0.23847876E+02</rscale>
<asrwt>0</asrwt>
<pdfrwt beam="1">  1        2 0.30036925E-03 0.23847876E+02</pdfrwt>
<pdfrwt beam="2">  1       -2 0.11203590E-01 0.23847876E+02</pdfrwt>
<totfact> 0.21563201E+06</totfact>
</mgrwt>
</event>
<event>
 4    1  0.3704929E-001  0.2112225E+02  0.7818608E-02  0.1723890E+00
          2   -1    0    0  501    0  0.00000000000E+00  0.00000000000E+00  0.91054868046E+02  0.91054868083E+02  0.26000000000E-02 0. -1.
         -2   -1    0    0    0  501 -0.00000000000E+00 -0.00000000000E+00 -0.12249451750E+01  0.12249479344E+01  0.26000000000E-02 0.  1.
        -13    1    1    2    0    0 -0.78956769906E+01 -0.69720745792E+01  0.41603162119E+02  0.42916032085E+02  0.10570000000E+00 0. -1.
         13    1    1    2    0    0  0.78956769906E+01  0.69720745792E+01  0.48226760752E+02  0.49363783933E+02  0.10570000000E+00 0.  1.
<mgrwt>
<rscale>  0 0.21122249E+02</rscale>
<asrwt>0</asrwt>
<pdfrwt beam="1">  1        2 0.14008445E-01 0.21122249E+02</pdfrwt>
<pdfrwt beam="2">  1       -2 0.18845327E-03 0.21122249E+02</pdfrwt>
<totfact> 0.45774885E+06</totfact>
</mgrwt>
</event>
<event>
 4    1  0.3704929E-001  0.5704573E+02  0.7818608E-02  0.1410665E+00
          2   -1    0    0  501    0  0.00000000000E+00  0.00000000000E+00  0.18646162949E+03  0.18646162951E+03  0.26000000000E-02 0. -1.
         -2   -1    0    0    0  501 -0.00000000000E+00 -0.00000000000E+00 -0.43631166968E+01  0.43631174715E+01  0.26000000000E-02 0.  1.
        -13    1    1    2    0    0 -0.52191957080E+01 -0.26981751545E+02  0.11658805585E+03  0.11978330793E+03  0.10570000000E+00 0. -1.
         13    1    1    2    0    0  0.52191957080E+01  0.26981751545E+02  0.65510456945E+02  0.71041439047E+02  0.10570000000E+00 0.  1.
<mgrwt>
<rscale>  0 0.57045733E+02</rscale>
<asrwt>0</asrwt>
<pdfrwt beam="1">  1        2 0.28686408E-01 0.57045733E+02</pdfrwt>
<pdfrwt beam="2">  1       -2 0.67124870E-03 0.57045733E+02</pdfrwt>
<totfact> 0.51555042E+05</totfact>
</mgrwt>
</event>
<event>
 4    1  0.3704929E-001  0.5861878E+02  0.7818608E-02  0.1403721E+00
          2   -1    0    0  501    0  0.00000000000E+00  0.00000000000E+00  0.15582459397E+03  0.15582459400E+03  0.26000000000E-02 0. -1.
         -2   -1    0    0    0  501 -0.00000000000E+00 -0.00000000000E+00 -0.55128676696E+01  0.55128682827E+01  0.26000000000E-02 0.  1.
        -13    1    1    2    0    0  0.12747368270E+02 -0.24802324866E+02  0.99984526677E+02  0.10380061399E+03  0.10570000000E+00 0. -1.
         13    1    1    2    0    0 -0.12747368270E+02  0.24802324866E+02  0.50327199628E+02  0.57536848293E+02  0.10570000000E+00 0.  1.
<mgrwt>
<rscale>  0 0.58618783E+02</rscale>
<asrwt>0</asrwt>
<pdfrwt beam="1">  1        2 0.23973017E-01 0.58618783E+02</pdfrwt>
<pdfrwt beam="2">  1       -2 0.84813343E-03 0.58618783E+02</pdfrwt>
<totfact> 0.45377225E+05</totfact>
</mgrwt>
</event>
<event>
 4    1  0.3704929E-001  0.3555160E+02  0.7818608E-02  0.1543756E+00
         -2   -1    0    0    0  501 -0.00000000000E+00  0.00000000000E+00  0.90466435787E+01  0.90466439523E+01  0.26000000000E-02 0. -1.
          2   -1    0    0  501    0  0.00000000000E+00 -0.00000000000E+00 -0.34927776343E+02  0.34927776440E+02  0.26000000000E-02 0.  1.
        -13    1    1    2    0    0  0.17666636084E+02  0.32859853935E+00 -0.10545293300E+02  0.20577472896E+02  0.10570000000E+00 0. -1.
         13    1    1    2    0    0 -0.17666636084E+02 -0.32859853935E+00 -0.15335839465E+02  0.23396947496E+02  0.10570000000E+00 0.  1.
<mgrwt>
<rscale>  0 0.35551605E+02</rscale>
<asrwt>0</asrwt>
<pdfrwt beam="2">  1        2 0.53735040E-02 0.35551605E+02</pdfrwt>
<pdfrwt beam="1">  1       -2 0.13917914E-02 0.35551605E+02</pdfrwt>
<totfact> 0.11413451E+06</totfact>
</mgrwt>
</event>
<event>
 4    1  0.3704929E-001  0.4040095E+02  0.7818608E-02  0.1505281E+00
         -2   -1    0    0    0  501 -0.00000000000E+00  0.00000000000E+00  0.27334264289E+01  0.27334276654E+01  0.26000000000E-02 0.  1.
          2   -1    0    0  501    0  0.00000000000E+00 -0.00000000000E+00 -0.14928482905E+03  0.14928482907E+03  0.26000000000E-02 0. -1.
        -13    1    1    2    0    0 -0.12628703861E+02 -0.15749633326E+02 -0.70580914332E+02  0.73411250851E+02  0.10570000000E+00 0. -1.
         13    1    1    2    0    0  0.12628703861E+02  0.15749633326E+02 -0.75970488290E+02  0.78607005887E+02  0.10570000000E+00 0.  1.
<mgrwt>
<rscale>  0 0.40400950E+02</rscale>
<asrwt>0</asrwt>
<pdfrwt beam="2">  1        2 0.22966891E-01 0.40400950E+02</pdfrwt>
<pdfrwt beam="1">  1       -2 0.42052736E-03 0.40400950E+02</pdfrwt>
<totfact> 0.11379610E+06</totfact>
</mgrwt>
</event>
<event>
 4    1  0.3704929E-001  0.3880435E+02  0.7818608E-02  0.1517199E+00
          2   -1    0    0  501    0  0.00000000000E+00  0.00000000000E+00  0.12782664083E+03  0.12782664086E+03  0.26000000000E-02 0. -1.
         -2   -1    0    0    0  501 -0.00000000000E+00 -0.00000000000E+00 -0.29449599358E+01  0.29449610835E+01  0.26000000000E-02 0.  1.
        -13    1    1    2    0    0  0.13272203738E+02 -0.14140612644E+02  0.60519860881E+02  0.63551341855E+02  0.10570000000E+00 0.  1.
         13    1    1    2    0    0 -0.13272203738E+02  0.14140612644E+02  0.64361820015E+02  0.67220260087E+02  0.10570000000E+00 0. -1.
<mgrwt>
<rscale>  0 0.38804351E+02</rscale>
<asrwt>0</asrwt>
<pdfrwt beam="1">  1        2 0.19665638E-01 0.38804351E+02</pdfrwt>
<pdfrwt beam="2">  1       -2 0.45307083E-03 0.38804351E+02</pdfrwt>
<totfact> 0.12008750E+06</totfact>
</mgrwt>
</event>
<event>
 4    1  0.3704929E-001  0.3073103E+02  0.7818608E-02  0.1590146E+00
         -2   -1    0    0    0  501 -0.00000000000E+00  0.00000000000E+00  0.50604051696E+01  0.50604058375E+01  0.26000000000E-02 0. -1.
          2   -1    0    0  501    0  0.00000000000E+00 -0.00000000000E+00 -0.46656166621E+02  0.46656166693E+02  0.26000000000E-02 0.  1.
        -13    1    1    2    0    0 -0.70040200189E+01  0.13482614545E+02 -0.16941643724E+02  0.22756705736E+02  0.10570000000E+00 0. -1.
         13    1    1    2    0    0  0.70040200189E+01 -0.13482614545E+02 -0.24654117727E+02  0.28959866795E+02  0.10570000000E+00 0.  1.
<mgrwt>
<rscale>  0 0.30731035E+02</rscale>
<asrwt>0</asrwt>
<pdfrwt beam="2">  1        2 0.71778716E-02 0.30731035E+02</pdfrwt>
<pdfrwt beam="1">  1       -2 0.77852396E-03 0.30731035E+02</pdfrwt>
<totfact> 0.16975678E+06</totfact>
</mgrwt>
</event>
<event>
 4    1  0.3704929E-001  0.2416651E+02  0.7818608E-02  0.1673270E+00
         -2   -1    0    0    0  501 -0.00000000000E+00  0.00000000000E+00  0.10961290741E+02  0.10961291050E+02  0.26000000000E-02 0.  1.
          2   -1    0    0  501    0  0.00000000000E+00 -0.00000000000E+00 -0.13320063476E+02  0.13320063729E+02  0.26000000000E-02 0. -1.
        -13    1    1    2    0    0 -0.76104057545E+01 -0.77175938386E+01 -0.65446488495E+01  0.12661877091E+02  0.10570000000E+00 0. -1.
         13    1    1    2    0    0  0.76104057545E+01  0.77175938386E+01  0.41858761152E+01  0.11619477688E+02  0.10570000000E+00 0.  1.
<mgrwt>
<rscale>  0 0.24166514E+02</rscale>
<asrwt>0</asrwt>
<pdfrwt beam="2">  1        2 0.20492406E-02 0.24166514E+02</pdfrwt>
<pdfrwt beam="1">  1       -2 0.16863525E-02 0.24166514E+02</pdfrwt>
<totfact> 0.26020274E+06</totfact>
</mgrwt>
</event>
<event>
 4    1  0.3704929E-001  0.6407053E+02  0.7818608E-02  0.1381502E+00
         -2   -1    0    0    0  501 -0.00000000000E+00  0.00000000000E+00  0.34816018179E+02  0.34816018276E+02  0.26000000000E-02 0. -1.
          2   -1    0    0  501    0  0.00000000000E+00 -0.00000000000E+00 -0.29476611185E+02  0.29476611300E+02  0.26000000000E-02 0.  1.
        -13    1    1    2    0    0 -0.27297739026E+02  0.11722195628E+02  0.14697522292E+02  0.33145207199E+02  0.10570000000E+00 0. -1.
         13    1    1    2    0    0  0.27297739026E+02 -0.11722195628E+02 -0.93581152989E+01  0.31147422377E+02  0.10570000000E+00 0.  1.
<mgrwt>
<rscale>  0 0.64070531E+02</rscale>
<asrwt>0</asrwt>
<pdfrwt beam="2">  1        2 0.45348633E-02 0.64070531E+02</pdfrwt>
<pdfrwt beam="1">  1       -2 0.53563105E-02 0.64070531E+02</pdfrwt>
<totfact> 0.24083488E+05</totfact>
</mgrwt>
</event>
<event>
 4    1  0.3704929E-001  0.1123600E+03  0.7818608E-02  0.1256261E+00
         -2   -1    0    0    0  501 -0.00000000000E+00  0.00000000000E+00  0.21353392295E+03  0.21353392297E+03  0.26000000000E-02 0.  1.
          2   -1    0    0  501    0  0.00000000000E+00 -0.00000000000E+00 -0.14780749503E+02  0.14780749731E+02  0.26000000000E-02 0. -1.
        -13    1    1    2    0    0 -0.94347911417E+00 -0.55509714517E+02  0.11685192797E+03  0.12937002281E+03  0.10570000000E+00 0.  1.
         13    1    1    2    0    0  0.94347911417E+00  0.55509714517E+02  0.81901245485E+02  0.98944649896E+02  0.10570000000E+00 0. -1.
<mgrwt>
<rscale>  0 0.11235998E+03</rscale>
<asrwt>0</asrwt>
<pdfrwt beam="2">  1        2 0.22739615E-02 0.11235998E+03</pdfrwt>
<pdfrwt beam="1">  1       -2 0.32851372E-01 0.11235998E+03</pdfrwt>
<totfact> 0.35429668E+04</totfact>
</mgrwt>
</event>
<event>
 4    1  0.3704929E-001  0.2293515E+02  0.7818608E-02  0.1692563E+00
         -2   -1    0    0    0  501 -0.00000000000E+00  0.00000000000E+00  0.55146095683E+02  0.55146095744E+02  0.26000000000E-02 0.  1.
          2   -1    0    0  501    0  0.00000000000E+00 -0.00000000000E+00 -0.23846702462E+01  0.23846716636E+01  0.26000000000E-02 0. -1.
        -13    1    1    2    0    0 -0.79243548518E+01  0.73943685247E+01  0.16987717131E+02  0.20151074203E+02  0.10570000000E+00 0.  1.
         13    1    1    2    0    0  0.79243548518E+01 -0.73943685247E+01  0.35773708305E+02  0.37379693205E+02  0.10570000000E+00 0. -1.
<mgrwt>
<rscale>  0 0.22935152E+02</rscale>
<asrwt>0</asrwt>
<pdfrwt beam="2">  1        2 0.36687246E-03 0.22935152E+02</pdfrwt>
<pdfrwt beam="1">  1       -2 0.84840148E-02 0.22935152E+02</pdfrwt>
<totfact> 0.24683584E+06</totfact>
</mgrwt>
</event>
<event>
 4    1  0.3704929E-001  0.5721473E+02  0.7818608E-02  0.1409906E+00
         -2   -1    0    0    0  501 -0.00000000000E+00  0.00000000000E+00  0.39518016970E+02  0.39518017055E+02  0.26000000000E-02 0. -1.
          2   -1    0    0  501    0  0.00000000000E+00 -0.00000000000E+00 -0.20709069595E+02  0.20709069759E+02  0.26000000000E-02 0.  1.
        -13    1    1    2    0    0 -0.14338693596E+02  0.24591400185E+02  0.12388342195E+02  0.31045406937E+02  0.10570000000E+00 0.  1.
         13    1    1    2    0    0  0.14338693596E+02 -0.24591400185E+02  0.64206051792E+01  0.29181679877E+02  0.10570000000E+00 0. -1.
<mgrwt>
<rscale>  0 0.57214731E+02</rscale>
<asrwt>0</asrwt>
<pdfrwt beam="2">  1        2 0.31860107E-02 0.57214731E+02</pdfrwt>
<pdfrwt beam="1">  1       -2 0.60796949E-02 0.57214731E+02</pdfrwt>
<totfact> 0.30768280E+05</totfact>
</mgrwt>
</event>
<event>
 4    1  0.3704929E-001  0.3264743E+02  0.7818608E-02  0.1570543E+00
         -2   -1    0    0    0  501 -0.00000000000E+00  0.00000000000E+00  0.26528757100E+01  0.26528769841E+01  0.26000000000E-02 0. -1.
          2   -1    0    0  501    0  0.00000000000E+00 -0.00000000000E+00 -0.10044328975E+03  0.10044328979E+03  0.26000000000E-02 0.  1.
        -13    1    1    2    0    0 -0.13465749294E+02  0.26825373074E+01 -0.21018207752E+02  0.25105749144E+02  0.10570000000E+00 0. -1.
         13    1    1    2    0    0  0.13465749294E+02 -0.26825373074E+01 -0.76772206292E+02  0.77990417628E+02  0.10570000000E+00 0.  1.
<mgrwt>
<rscale>  0 0.32647428E+02</rscale>
<asrwt>0</asrwt>
<pdfrwt beam="2">  1        2 0.15452811E-01 0.32647428E+02</pdfrwt>
<pdfrwt beam="1">  1       -2 0.40813490E-03 0.32647428E+02</pdfrwt>
<totfact> 0.17111667E+06</totfact>
</mgrwt>
</event>
<event>
 4    1  0.3704929E-001  0.2366026E+02  0.7818608E-02  0.1681026E+00
          2   -1    0    0  501    0  0.00000000000E+00  0.00000000000E+00  0.50734062674E+02  0.50734062740E+02  0.26000000000E-02 0. -1.
         -2   -1    0    0    0  501 -0.00000000000E+00 -0.00000000000E+00 -0.27585388399E+01  0.27585400652E+01  0.26000000000E-02 0.  1.
        -13    1    1    2    0    0 -0.11522330275E+02  0.26529090453E+01  0.23145690946E+02  0.25991079301E+02  0.10570000000E+00 0.  1.
         13    1    1    2    0    0  0.11522330275E+02 -0.26529090453E+01  0.24829832888E+02  0.27501523505E+02  0.10570000000E+00 0. -1.
<mgrwt>
<rscale>  0 0.23660255E+02</rscale>
<asrwt>0</asrwt>
<pdfrwt beam="1">  1        2 0.78052403E-02 0.23660255E+02</pdfrwt>
<pdfrwt beam="2">  1       -2 0.42439070E-03 0.23660255E+02</pdfrwt>
<totfact> 0.31751268E+06</totfact>
</mgrwt>
</event>
<event>
 4    1  0.3704929E-001  0.2085102E+02  0.7818608E-02  0.1728915E+00
          2   -1    0    0  501    0  0.00000000000E+00  0.00000000000E+00  0.26370019944E+01  0.26370032762E+01  0.26000000000E-02 0. -1.
         -2   -1    0    0    0  501 -0.00000000000E+00 -0.00000000000E+00 -0.41217736095E+02  0.41217736177E+02  0.26000000000E-02 0.  1.
        -13    1    1    2    0    0 -0.28696690336E+01 -0.99889487407E+01 -0.21006813820E+02  0.23437395262E+02  0.10570000000E+00 0.  1.
         13    1    1    2    0    0  0.28696690336E+01  0.99889487407E+01 -0.17573920281E+02  0.20417344191E+02  0.10570000000E+00 0. -1.
<mgrwt>
<rscale>  0 0.20851022E+02</rscale>
<asrwt>0</asrwt>
<pdfrwt beam="1">  1        2 0.40569275E-03 0.20851022E+02</pdfrwt>
<pdfrwt beam="2">  1       -2 0.63411898E-02 0.20851022E+02</pdfrwt>
<totfact> 0.31752154E+06</totfact>
</mgrwt>
</event>
<event>
 4    1  0.3704929E-001  0.2394581E+02  0.7818608E-02  0.1676622E+00
         -2   -1    0    0    0  501 -0.00000000000E+00  0.00000000000E+00  0.45158797724E+01  0.45158805208E+01  0.26000000000E-02 0.  1.
          2   -1    0    0  501    0  0.00000000000E+00 -0.00000000000E+00 -0.31743627291E+02  0.31743627398E+02  0.26000000000E-02 0. -1.
        -13    1    1    2    0    0  0.80542087012E+01  0.84515917021E+01 -0.17631461850E+02  0.21146614376E+02  0.10570000000E+00 0. -1.
         13    1    1    2    0    0 -0.80542087012E+01 -0.84515917021E+01 -0.95962856684E+01  0.15112893542E+02  0.10570000000E+00 0.  1.
<mgrwt>
<rscale>  0 0.23945807E+02</rscale>
<asrwt>0</asrwt>
<pdfrwt beam="2">  1        2 0.48836349E-02 0.23945807E+02</pdfrwt>
<pdfrwt beam="1">  1       -2 0.69475082E-03 0.23945807E+02</pdfrwt>
<totfact> 0.28963571E+06</totfact>
</mgrwt>
</event>
<event>
 4    1  0.3704929E-001  0.2054561E+02  0.7818608E-02  0.1734691E+00
          2   -1    0    0  501    0  0.00000000000E+00  0.00000000000E+00  0.40495319785E+01  0.40495328132E+01  0.26000000000E-02 0.  1.
         -2   -1    0    0    0  501 -0.00000000000E+00 -0.00000000000E+00 -0.26059930398E+02  0.26059930528E+02  0.26000000000E-02 0. -1.
        -13    1    1    2    0    0 -0.92874541652E+01  0.41744491079E+01 -0.12991217994E+02  0.16506536514E+02  0.10570000000E+00 0.  1.
         13    1    1    2    0    0  0.92874541652E+01 -0.41744491079E+01 -0.90191804257E+01  0.13602926827E+02  0.10570000000E+00 0. -1.
<mgrwt>
<rscale>  0 0.20545611E+02</rscale>
<asrwt>0</asrwt>
<pdfrwt beam="1">  1        2 0.62300501E-03 0.20545611E+02</pdfrwt>
<pdfrwt beam="2">  1       -2 0.40092200E-02 0.20545611E+02</pdfrwt>
<totfact> 0.34479864E+06</totfact>
</mgrwt>
</event>
<event>
 4    1  0.3704929E-001  0.8743704E+02  0.7818608E-02  0.1309180E+00
          2   -1    0    0  501    0  0.00000000000E+00  0.00000000000E+00  0.18263314337E+02  0.18263314522E+02  0.26000000000E-02 0. -1.
         -2   -1    0    0    0  501 -0.00000000000E+00 -0.00000000000E+00 -0.10465291807E+03  0.10465291810E+03  0.26000000000E-02 0.  1.
        -13    1    1    2    0    0 -0.27985071659E+02 -0.38993133910E+01  0.37024640378E+01  0.28497162896E+02  0.10570000000E+00 0. -1.
         13    1    1    2    0    0  0.27985071659E+02  0.38993133910E+01 -0.90092067768E+02  0.94419069726E+02  0.10570000000E+00 0.  1.
<mgrwt>
<rscale>  0 0.87437044E+02</rscale>
<asrwt>0</asrwt>
<pdfrwt beam="1">  1        2 0.28097407E-02 0.87437044E+02</pdfrwt>
<pdfrwt beam="2">  1       -2 0.16100449E-01 0.87437044E+02</pdfrwt>
<totfact> 0.87382463E+04</totfact>
</mgrwt>
</event>
<event>
 4    1  0.3704929E-001  0.3319592E+02  0.7818608E-02  0.1565231E+00
          2   -1    0    0  501    0  0.00000000000E+00  0.00000000000E+00  0.93212922270E+01  0.93212925897E+01  0.26000000000E-02 0. -1.
         -2   -1    0    0    0  501 -0.00000000000E+00 -0.00000000000E+00 -0.29555153415E+02  0.29555153529E+02  0.26000000000E-02 0.  1.
        -13    1    1    2    0    0 -0.16138192801E+02 -0.31748156662E+01 -0.75086309496E+01  0.18080692261E+02  0.10570000000E+00 0.  1.
         13    1    1    2    0    0  0.16138192801E+02  0.31748156662E+01 -0.12725230238E+02  0.20795753858E+02  0.10570000000E+00 0. -1.
<mgrwt>
<rscale>  0 0.33195917E+02</rscale>
<asrwt>0</asrwt>
<pdfrwt beam="1">  1        2 0.14340450E-02 0.33195917E+02</pdfrwt>
<pdfrwt beam="2">  1       -2 0.45469467E-02 0.33195917E+02</pdfrwt>
<totfact> 0.11548172E+06</totfact>
</mgrwt>
</event>
<event>
 4    1  0.3704929E-001  0.2806946E+02  0.7818608E-02  0.1620464E+00
          2   -1    0    0  501    0  0.00000000000E+00  0.00000000000E+00  0.22019937840E+02  0.22019937994E+02  0.26000000000E-02 0.  1.
         -2   -1    0    0    0  501 -0.00000000000E+00 -0.00000000000E+00 -0.89452381017E+01  0.89452384796E+01  0.26000000000E-02 0. -1.
        -13    1    1    2    0    0 -0.11007946856E+02  0.16148383253E+01  0.15974377874E+02  0.19467267856E+02  0.10570000000E+00 0.  1.
         13    1    1    2    0    0  0.11007946856E+02 -0.16148383253E+01 -0.28996781356E+01  0.11497908618E+02  0.10570000000E+00 0. -1.
<mgrwt>
<rscale>  0 0.28069456E+02</rscale>
<asrwt>0</asrwt>
<pdfrwt beam="1">  1        2 0.33876828E-02 0.28069456E+02</pdfrwt>
<pdfrwt beam="2">  1       -2 0.13761905E-02 0.28069456E+02</pdfrwt>
<totfact> 0.19132516E+06</totfact>
</mgrwt>
</event>
<event>
 4    1  0.3704929E-001  0.2981162E+02  0.7818608E-02  0.1600180E+00
         -2   -1    0    0    0  501 -0.00000000000E+00  0.00000000000E+00  0.43916081506E+02  0.43916081583E+02  0.26000000000E-02 0. -1.
          2   -1    0    0  501    0  0.00000000000E+00 -0.00000000000E+00 -0.50592658830E+01  0.50592665511E+01  0.26000000000E-02 0.  1.
        -13    1    1    2    0    0 -0.33652020178E+01  0.12189803733E+02  0.32390731353E+02  0.34771921859E+02  0.10570000000E+00 0.  1.
         13    1    1    2    0    0  0.33652020178E+01 -0.12189803733E+02  0.64660842694E+01  0.14203426275E+02  0.10570000000E+00 0. -1.
<mgrwt>
<rscale>  0 0.29811619E+02</rscale>
<asrwt>0</asrwt>
<pdfrwt beam="2">  1        2 0.77834862E-03 0.29811619E+02</pdfrwt>
<pdfrwt beam="1">  1       -2 0.67563206E-02 0.29811619E+02</pdfrwt>
<totfact> 0.14071977E+06</totfact>
</mgrwt>
</event>
<event>
 4    1  0.3704929E-001  0.3527782E+02  0.7818608E-02  0.1546147E+00
          2   -1    0    0  501    0  0.00000000000E+00  0.00000000000E+00  0.96620057085E+02  0.96620057120E+02  0.26000000000E-02 0. -1.
         -2   -1    0    0    0  501 -0.00000000000E+00 -0.00000000000E+00 -0.32201498197E+01  0.32201508693E+01  0.26000000000E-02 0.  1.
        -13    1    1    2    0    0 -0.43471789818E+01 -0.15649155647E+02  0.27230524549E+02  0.31706571516E+02  0.10570000000E+00 0.  1.
         13    1    1    2    0    0  0.43471789818E+01  0.15649155647E+02  0.66169382717E+02  0.68133636474E+02  0.10570000000E+00 0. -1.
<mgrwt>
<rscale>  0 0.35277818E+02</rscale>
<asrwt>0</asrwt>
<pdfrwt beam="1">  1        2 0.14864624E-01 0.35277818E+02</pdfrwt>
<pdfrwt beam="2">  1       -2 0.49540775E-03 0.35277818E+02</pdfrwt>
<totfact> 0.14072770E+06</totfact>
</mgrwt>
</event>
<event>
 4    1  0.3704929E-001  0.3567333E+02  0.7818608E-02  0.1542701E+00
          2   -1    0    0  501    0  0.00000000000E+00  0.00000000000E+00  0.58819261597E+02  0.58819261655E+02  0.26000000000E-02 0. -1.
         -2   -1    0    0    0  501 -0.00000000000E+00 -0.00000000000E+00 -0.54088855142E+01  0.54088861391E+01  0.26000000000E-02 0.  1.
        -13    1    1    2    0    0  0.17561278426E+02 -0.18545596560E+01  0.22186944995E+02  0.28356826201E+02  0.10570000000E+00 0. -1.
         13    1    1    2    0    0 -0.17561278426E+02  0.18545596560E+01  0.31223431088E+02  0.35871321593E+02  0.10570000000E+00 0.  1.
<mgrwt>
<rscale>  0 0.35673333E+02</rscale>
<asrwt>0</asrwt>
<pdfrwt beam="1">  1        2 0.90491176E-02 0.35673333E+02</pdfrwt>
<pdfrwt beam="2">  1       -2 0.83213625E-03 0.35673333E+02</pdfrwt>
<totfact> 0.12320786E+06</totfact>
</mgrwt>
</event>
<event>
 4    1  0.3704929E-001  0.2353898E+02  0.7818608E-02  0.1682919E+00
          2   -1    0    0  501    0  0.00000000000E+00  0.00000000000E+00  0.56338799389E+01  0.56338805389E+01  0.26000000000E-02 0.  1.
         -2   -1    0    0    0  501 -0.00000000000E+00 -0.00000000000E+00 -0.24587125715E+02  0.24587125853E+02  0.26000000000E-02 0. -1.
        -13    1    1    2    0    0  0.60755584655E+01 -0.81623106405E+01 -0.17069284719E+02  0.19872276643E+02  0.10570000000E+00 0. -1.
         13    1    1    2    0    0 -0.60755584655E+01  0.81623106405E+01 -0.18839610574E+01  0.10348729749E+02  0.10570000000E+00 0.  1.
<mgrwt>
<rscale>  0 0.23538983E+02</rscale>
<asrwt>0</asrwt>
<pdfrwt beam="1">  1        2 0.86675083E-03 0.23538983E+02</pdfrwt>
<pdfrwt beam="2">  1       -2 0.37826347E-02 0.23538983E+02</pdfrwt>
<totfact> 0.25684002E+06</totfact>
</mgrwt>
</event>
<event>
 4    1  0.3704929E-001  0.3056731E+02  0.7818608E-02  0.1591901E+00
         -2   -1    0    0    0  501 -0.00000000000E+00  0.00000000000E+00  0.52268417079E+02  0.52268417143E+02  0.26000000000E-02 0. -1.
          2   -1    0    0  501    0  0.00000000000E+00 -0.00000000000E+00 -0.44690480315E+01  0.44690487878E+01  0.26000000000E-02 0.  1.
        -13    1    1    2    0    0 -0.21660787523E+01  0.10051840303E+02  0.29122720601E+01  0.10687557798E+02  0.10570000000E+00 0.  1.
         13    1    1    2    0    0  0.21660787523E+01 -0.10051840303E+02  0.44887096987E+02  0.46049908133E+02  0.10570000000E+00 0. -1.
<mgrwt>
<rscale>  0 0.30567309E+02</rscale>
<asrwt>0</asrwt>
<pdfrwt beam="2">  1        2 0.68754591E-03 0.30567309E+02</pdfrwt>
<pdfrwt beam="1">  1       -2 0.80412950E-02 0.30567309E+02</pdfrwt>
<totfact> 0.12948388E+06</totfact>
</mgrwt>
</event>
<event>
 4    1  0.3704929E-001  0.2859690E+02  0.7818608E-02  0.1614137E+00
         -2   -1    0    0    0  501 -0.00000000000E+00  0.00000000000E+00  0.49907941479E+02  0.49907941546E+02  0.26000000000E-02 0.  1.
          2   -1    0    0  501    0  0.00000000000E+00 -0.00000000000E+00 -0.40964542497E+01  0.40964550748E+01  0.26000000000E-02 0. -1.
        -13    1    1    2    0    0 -0.70010101883E+01 -0.10898131176E+02  0.11472923044E+02  0.17303830283E+02  0.10570000000E+00 0. -1.
         13    1    1    2    0    0  0.70010101883E+01  0.10898131176E+02  0.34338564185E+02  0.36700566338E+02  0.10570000000E+00 0.  1.
<mgrwt>
<rscale>  0 0.28596897E+02</rscale>
<asrwt>0</asrwt>
<pdfrwt beam="2">  1        2 0.63022387E-03 0.28596897E+02</pdfrwt>
<pdfrwt beam="1">  1       -2 0.76781440E-02 0.28596897E+02</pdfrwt>
<totfact> 0.15203240E+06</totfact>
</mgrwt>
</event>
<event>
 4    1  0.3704929E-001  0.5858035E+02  0.7818608E-02  0.1403888E+00
         -2   -1    0    0    0  501 -0.00000000000E+00  0.00000000000E+00  0.12507496131E+02  0.12507496401E+02  0.26000000000E-02 0.  1.
          2   -1    0    0  501    0  0.00000000000E+00 -0.00000000000E+00 -0.68592005170E+02  0.68592005219E+02  0.26000000000E-02 0. -1.
        -13    1    1    2    0    0 -0.80930917600E+00  0.19744049559E+02 -0.57973182032E+02  0.61248538609E+02  0.10570000000E+00 0. -1.
         13    1    1    2    0    0  0.80930917600E+00 -0.19744049559E+02  0.18886729933E+01  0.19850963012E+02  0.10570000000E+00 0.  1.
<mgrwt>
<rscale>  0 0.58580347E+02</rscale>
<asrwt>0</asrwt>
<pdfrwt beam="2">  1        2 0.10552616E-01 0.58580347E+02</pdfrwt>
<pdfrwt beam="1">  1       -2 0.19242302E-02 0.58580347E+02</pdfrwt>
<totfact> 0.36348263E+05</totfact>
</mgrwt>
</event>
<event>
 4    1  0.3704929E-001  0.2600962E+02  0.7818608E-02  0.1646910E+00
         -2   -1    0    0    0  501 -0.00000000000E+00  0.00000000000E+00  0.19156692030E+01  0.19156709674E+01  0.26000000000E-02 0.  1.
          2   -1    0    0  501    0  0.00000000000E+00 -0.00000000000E+00 -0.88285049219E+02  0.88285049257E+02  0.26000000000E-02 0. -1.
        -13    1    1    2    0    0 -0.12915873488E+02 -0.97282073819E+00 -0.47210665762E+02  0.48955329662E+02  0.10570000000E+00 0. -1.
         13    1    1    2    0    0  0.12915873488E+02  0.97282073819E+00 -0.39158714254E+02  0.41245390563E+02  0.10570000000E+00 0.  1.
<mgrwt>
<rscale>  0 0.26009616E+02</rscale>
<asrwt>0</asrwt>
<pdfrwt beam="2">  1        2 0.13582312E-01 0.26009616E+02</pdfrwt>
<pdfrwt beam="1">  1       -2 0.29471855E-03 0.26009616E+02</pdfrwt>
<totfact> 0.28334578E+06</totfact>
</mgrwt>
</event>
<event>
 4    1  0.3704929E-001  0.7704901E+02  0.7818608E-02  0.1337641E+00
         -2   -1    0    0    0  501 -0.00000000000E+00  0.00000000000E+00  0.14667402252E+03  0.14667402254E+03  0.26000000000E-02 0. -1.
          2   -1    0    0  501    0  0.00000000000E+00 -0.00000000000E+00 -0.10118611737E+02  0.10118612071E+02  0.26000000000E-02 0.  1.
        -13    1    1    2    0    0 -0.14248352264E+02  0.34782977902E+02  0.51099926177E+02  0.63435673889E+02  0.10570000000E+00 0.  1.
         13    1    1    2    0    0  0.14248352264E+02 -0.34782977902E+02  0.85455484605E+02  0.93356960723E+02  0.10570000000E+00 0. -1.
<mgrwt>
<rscale>  0 0.77049011E+02</rscale>
<asrwt>0</asrwt>
<pdfrwt beam="2">  1        2 0.15567097E-02 0.77049011E+02</pdfrwt>
<pdfrwt beam="1">  1       -2 0.22565232E-01 0.77049011E+02</pdfrwt>
<totfact> 0.10772857E+05</totfact>
</mgrwt>
</event>
<event>
 4    1  0.3704929E-001  0.2977927E+02  0.7818608E-02  0.1600541E+00
         -2   -1    0    0    0  501 -0.00000000000E+00  0.00000000000E+00  0.44183492126E+02  0.44183492202E+02  0.26000000000E-02 0.  1.
          2   -1    0    0  501    0  0.00000000000E+00 -0.00000000000E+00 -0.50177388472E+01  0.50177395208E+01  0.26000000000E-02 0. -1.
        -13    1    1    2    0    0  0.93544468133E+01  0.11515224253E+02  0.21662287614E+02  0.26255893471E+02  0.10570000000E+00 0. -1.
         13    1    1    2    0    0 -0.93544468133E+01 -0.11515224253E+02  0.17503465664E+02  0.22945338252E+02  0.10570000000E+00 0.  1.
<mgrwt>
<rscale>  0 0.29779271E+02</rscale>
<asrwt>0</asrwt>
<pdfrwt beam="2">  1        2 0.77195990E-03 0.29779271E+02</pdfrwt>
<pdfrwt beam="1">  1       -2 0.67974602E-02 0.29779271E+02</pdfrwt>
<totfact> 0.14095388E+06</totfact>
</mgrwt>
</event>
<event>
 4    1  0.3704929E-001  0.2905890E+02  0.7818608E-02  0.1608730E+00
          2   -1    0    0  501    0  0.00000000000E+00  0.00000000000E+00  0.52171660012E+01  0.52171666491E+01  0.26000000000E-02 0.  1.
         -2   -1    0    0    0  501 -0.00000000000E+00 -0.00000000000E+00 -0.40463533832E+02  0.40463533915E+02  0.26000000000E-02 0. -1.
        -13    1    1    2    0    0  0.75100561789E+01 -0.67157534716E+01 -0.11665122924E+01  0.10142692538E+02  0.10570000000E+00 0.  1.
         13    1    1    2    0    0 -0.75100561789E+01  0.67157534716E+01 -0.34079855538E+02  0.35538008026E+02  0.10570000000E+00 0. -1.
<mgrwt>
<rscale>  0 0.29058905E+02</rscale>
<asrwt>0</asrwt>
<pdfrwt beam="1">  1        2 0.80264100E-03 0.29058905E+02</pdfrwt>
<pdfrwt beam="2">  1       -2 0.62251589E-02 0.29058905E+02</pdfrwt>
<totfact> 0.15089056E+06</totfact>
</mgrwt>
</event>
<event>
 4    1  0.3704929E-001  0.2180181E+02  0.7818608E-02  0.1711702E+00
          2   -1    0    0  501    0  0.00000000000E+00  0.00000000000E+00  0.12792479397E+02  0.12792479661E+02  0.26000000000E-02 0. -1.
         -2   -1    0    0    0  501 -0.00000000000E+00 -0.00000000000E+00 -0.92890279658E+01  0.92890283297E+01  0.26000000000E-02 0.  1.
        -13    1    1    2    0    0 -0.18765528947E+01 -0.10366531744E+02  0.45862187462E+01  0.11490474579E+02  0.10570000000E+00 0. -1.
         13    1    1    2    0    0  0.18765528947E+01  0.10366531744E+02 -0.10827673153E+01  0.10591033411E+02  0.10570000000E+00 0.  1.
<mgrwt>
<rscale>  0 0.21801808E+02</rscale>
<asrwt>0</asrwt>
<pdfrwt beam="1">  1        2 0.19680738E-02 0.21801808E+02</pdfrwt>
<pdfrwt beam="2">  1       -2 0.14290813E-02 0.21801808E+02</pdfrwt>
<totfact> 0.32975527E+06</totfact>
</mgrwt>
</event>
<event>
 4    1  0.3704929E-001  0.3818685E+02  0.7818608E-02  0.1521995E+00
         -2   -1    0    0    0  501 -0.00000000000E+00  0.00000000000E+00  0.10053933396E+02  0.10053933732E+02  0.26000000000E-02 0.  1.
          2   -1    0    0  501    0  0.00000000000E+00 -0.00000000000E+00 -0.36260323634E+02  0.36260323728E+02  0.26000000000E-02 0. -1.
        -13    1    1    2    0    0 -0.17163496644E+02  0.83337507646E+01 -0.13969922782E+02  0.23647556616E+02  0.10570000000E+00 0. -1.
         13    1    1    2    0    0  0.17163496644E+02 -0.83337507646E+01 -0.12236467456E+02  0.22666700844E+02  0.10570000000E+00 0.  1.
<mgrwt>
<rscale>  0 0.38186851E+02</rscale>
<asrwt>0</asrwt>
<pdfrwt beam="2">  1        2 0.55785113E-02 0.38186851E+02</pdfrwt>
<pdfrwt beam="1">  1       -2 0.15467590E-02 0.38186851E+02</pdfrwt>
<totfact> 0.96126099E+05</totfact>
</mgrwt>
</event>
<event>
 4    1  0.3704929E-001  0.5734065E+02  0.7818608E-02  0.1409343E+00
          2   -1    0    0  501    0  0.00000000000E+00  0.00000000000E+00  0.28536565057E+02  0.28536565176E+02  0.26000000000E-02 0. -1.
         -2   -1    0    0    0  501 -0.00000000000E+00 -0.00000000000E+00 -0.28804715718E+02  0.28804715835E+02  0.26000000000E-02 0.  1.
        -13    1    1    2    0    0  0.26370163822E+02 -0.52314322503E+01  0.98271105850E+01  0.28624058034E+02  0.10570000000E+00 0. -1.
         13    1    1    2    0    0 -0.26370163822E+02  0.52314322503E+01 -0.10095261245E+02  0.28717222977E+02  0.10570000000E+00 0.  1.
<mgrwt>
<rscale>  0 0.57340654E+02</rscale>
<asrwt>0</asrwt>
<pdfrwt beam="1">  1        2 0.43902408E-02 0.57340654E+02</pdfrwt>
<pdfrwt beam="2">  1       -2 0.44314947E-02 0.57340654E+02</pdfrwt>
<totfact> 0.32362261E+05</totfact>
</mgrwt>
</event>
<event>
 4    1  0.3704929E-001  0.4345716E+02  0.7818608E-02  0.1484210E+00
          2   -1    0    0  501    0  0.00000000000E+00  0.00000000000E+00  0.16149727272E+02  0.16149727481E+02  0.26000000000E-02 0. -1.
         -2   -1    0    0    0  501 -0.00000000000E+00 -0.00000000000E+00 -0.29234624235E+02  0.29234624351E+02  0.26000000000E-02 0.  1.
        -13    1    1    2    0    0  0.21239024788E+02 -0.37771674786E+00 -0.17702059925E+01  0.21316276542E+02  0.10570000000E+00 0. -1.
         13    1    1    2    0    0 -0.21239024788E+02  0.37771674786E+00 -0.11314690971E+02  0.24068075289E+02  0.10570000000E+00 0.  1.
<mgrwt>
<rscale>  0 0.43457161E+02</rscale>
<asrwt>0</asrwt>
<pdfrwt beam="1">  1        2 0.24845734E-02 0.43457161E+02</pdfrwt>
<pdfrwt beam="2">  1       -2 0.44976345E-02 0.43457161E+02</pdfrwt>
<totfact> 0.61812800E+05</totfact>
</mgrwt>
</event>
<event>
 4    1  0.3704929E-001  0.3477434E+02  0.7818608E-02  0.1550614E+00
         -2   -1    0    0    0  501 -0.00000000000E+00  0.00000000000E+00  0.15510239330E+02  0.15510239547E+02  0.26000000000E-02 0.  1.
          2   -1    0    0  501    0  0.00000000000E+00 -0.00000000000E+00 -0.19491228983E+02  0.19491229157E+02  0.26000000000E-02 0. -1.
        -13    1    1    2    0    0 -0.11481960940E+02 -0.12764153641E+02  0.77397224475E+00  0.17186309980E+02  0.10570000000E+00 0.  1.
         13    1    1    2    0    0  0.11481960940E+02  0.12764153641E+02 -0.47549618984E+01  0.17815158724E+02  0.10570000000E+00 0. -1.
<mgrwt>
<rscale>  0 0.34774337E+02</rscale>
<asrwt>0</asrwt>
<pdfrwt beam="2">  1        2 0.29986506E-02 0.34774337E+02</pdfrwt>
<pdfrwt beam="1">  1       -2 0.23861907E-02 0.34774337E+02</pdfrwt>
<totfact> 0.11188555E+06</totfact>
</mgrwt>
</event>
<event>
 4    1  0.3704929E-001  0.2614780E+02  0.7818608E-02  0.1645043E+00
          2   -1    0    0  501    0  0.00000000000E+00  0.00000000000E+00  0.66382055638E+02  0.66382055689E+02  0.26000000000E-02 0. -1.
         -2   -1    0    0    0  501 -0.00000000000E+00 -0.00000000000E+00 -0.25748953757E+01  0.25748966884E+01  0.26000000000E-02 0.  1.
        -13    1    1    2    0    0 -0.35098229749E+01 -0.10932014337E+02  0.15415724141E+02  0.19221954065E+02  0.10570000000E+00 0. -1.
         13    1    1    2    0    0  0.35098229749E+01  0.10932014337E+02  0.48391436121E+02  0.49734998313E+02  0.10570000000E+00 0.  1.
<mgrwt>
<rscale>  0 0.26147803E+02</rscale>
<asrwt>0</asrwt>
<pdfrwt beam="1">  1        2 0.10212622E-01 0.26147803E+02</pdfrwt>
<pdfrwt beam="2">  1       -2 0.39613793E-03 0.26147803E+02</pdfrwt>
<totfact> 0.26404073E+06</totfact>
</mgrwt>
</event>
<event>
 4    1  0.3704929E-001  0.2247365E+02  0.7818608E-02  0.1700187E+00
         -2   -1    0    0    0  501 -0.00000000000E+00  0.00000000000E+00  0.27234492398E+01  0.27234504809E+01  0.26000000000E-02 0. -1.
          2   -1    0    0  501    0  0.00000000000E+00 -0.00000000000E+00 -0.46362587453E+02  0.46362587526E+02  0.26000000000E-02 0.  1.
        -13    1    1    2    0    0  0.26100145394E+01  0.10082093190E+02 -0.31033057763E+02  0.32734120205E+02  0.10570000000E+00 0. -1.
         13    1    1    2    0    0 -0.26100145394E+01 -0.10082093190E+02 -0.12606080450E+02  0.16351917802E+02  0.10570000000E+00 0.  1.
<mgrwt>
<rscale>  0 0.22473646E+02</rscale>
<asrwt>0</asrwt>
<pdfrwt beam="2">  1        2 0.71327053E-02 0.22473646E+02</pdfrwt>
<pdfrwt beam="1">  1       -2 0.41899233E-03 0.22473646E+02</pdfrwt>
<totfact> 0.35224808E+06</totfact>
</mgrwt>
</event>
<event>
 4    1  0.3704929E-001  0.2023627E+02  0.7818608E-02  0.1740670E+00
          2   -1    0    0  501    0  0.00000000000E+00  0.00000000000E+00  0.74632597539E+01  0.74632602068E+01  0.26000000000E-02 0.  1.
         -2   -1    0    0    0  501 -0.00000000000E+00 -0.00000000000E+00 -0.13717410625E+02  0.13717410871E+02  0.26000000000E-02 0. -1.
        -13    1    1    2    0    0  0.64056261272E+01  0.78179223254E+01 -0.36106750088E+01  0.10733131047E+02  0.10570000000E+00 0. -1.
         13    1    1    2    0    0 -0.64056261272E+01 -0.78179223254E+01 -0.26434758620E+01  0.10447540031E+02  0.10570000000E+00 0.  1.
<mgrwt>
<rscale>  0 0.20236265E+02</rscale>
<asrwt>0</asrwt>
<pdfrwt beam="1">  1        2 0.11481939E-02 0.20236265E+02</pdfrwt>
<pdfrwt beam="2">  1       -2 0.21103709E-02 0.20236265E+02</pdfrwt>
<totfact> 0.37592237E+06</totfact>
</mgrwt>
</event>
<event>
 4    1  0.3704929E-001  0.3383585E+02  0.7818608E-02  0.1559188E+00
          2   -1    0    0  501    0  0.00000000000E+00  0.00000000000E+00  0.13108042141E+02  0.13108042399E+02  0.26000000000E-02 0. -1.
         -2   -1    0    0    0  501 -0.00000000000E+00 -0.00000000000E+00 -0.21835159927E+02  0.21835160082E+02  0.26000000000E-02 0.  1.
        -13    1    1    2    0    0 -0.46743569101E+01 -0.16245249777E+02 -0.36728826106E+01  0.17299103792E+02  0.10570000000E+00 0. -1.
         13    1    1    2    0    0  0.46743569101E+01  0.16245249777E+02 -0.50542351754E+01  0.17644098689E+02  0.10570000000E+00 0.  1.
<mgrwt>
<rscale>  0 0.33835851E+02</rscale>
<asrwt>0</asrwt>
<pdfrwt beam="1">  1        2 0.20166219E-02 0.33835851E+02</pdfrwt>
<pdfrwt beam="2">  1       -2 0.33592554E-02 0.33835851E+02</pdfrwt>
<totfact> 0.11448077E+06</totfact>
</mgrwt>
</event>
<event>
 4    1  0.3704929E-001  0.2350101E+02  0.7818608E-02  0.1683515E+00
         -2   -1    0    0    0  501 -0.00000000000E+00  0.00000000000E+00  0.55009615227E+01  0.55009621372E+01  0.26000000000E-02 0.  1.
          2   -1    0    0  501    0  0.00000000000E+00 -0.00000000000E+00 -0.25100046115E+02  0.25100046249E+02  0.26000000000E-02 0. -1.
        -13    1    1    2    0    0  0.93959610705E+01  0.55194980364E+01 -0.40770071874E+01  0.11635381520E+02  0.10570000000E+00 0.  1.
         13    1    1    2    0    0 -0.93959610705E+01 -0.55194980364E+01 -0.15522077404E+02  0.18965626867E+02  0.10570000000E+00 0. -1.
<mgrwt>
<rscale>  0 0.23501013E+02</rscale>
<asrwt>0</asrwt>
<pdfrwt beam="2">  1        2 0.38615455E-02 0.23501013E+02</pdfrwt>
<pdfrwt beam="1">  1       -2 0.84630185E-03 0.23501013E+02</pdfrwt>
<totfact> 0.29463697E+06</totfact>
</mgrwt>
</event>
<event>
 4    1  0.3704929E-001  0.3720843E+02  0.7818608E-02  0.1529820E+00
         -2   -1    0    0    0  501 -0.00000000000E+00  0.00000000000E+00  0.24188936768E+02  0.24188936908E+02  0.26000000000E-02 0. -1.
          2   -1    0    0  501    0  0.00000000000E+00 -0.00000000000E+00 -0.14308887117E+02  0.14308887353E+02  0.26000000000E-02 0.  1.
        -13    1    1    2    0    0  0.11554889721E+02  0.14132532228E+02  0.12294317858E+01  0.18296628614E+02  0.10570000000E+00 0.  1.
         13    1    1    2    0    0 -0.11554889721E+02 -0.14132532228E+02  0.86506178655E+01  0.20201195647E+02  0.10570000000E+00 0. -1.
<mgrwt>
<rscale>  0 0.37208428E+02</rscale>
<asrwt>0</asrwt>
<pdfrwt beam="2">  1        2 0.22013673E-02 0.37208428E+02</pdfrwt>
<pdfrwt beam="1">  1       -2 0.37213749E-02 0.37208428E+02</pdfrwt>
<totfact> 0.90909490E+05</totfact>
</mgrwt>
</event>
<event>
 4    1  0.3704929E-001  0.2569612E+02  0.7818608E-02  0.1651200E+00
          2   -1    0    0  501    0  0.00000000000E+00  0.00000000000E+00  0.12499543744E+02  0.12499544014E+02  0.26000000000E-02 0.  1.
         -2   -1    0    0    0  501 -0.00000000000E+00 -0.00000000000E+00 -0.13206295860E+02  0.13206296116E+02  0.26000000000E-02 0. -1.
        -13    1    1    2    0    0 -0.85028964770E+01  0.69764908588E+01 -0.69959800519E+01  0.13035550720E+02  0.10570000000E+00 0.  1.
         13    1    1    2    0    0  0.85028964770E+01 -0.69764908588E+01  0.62892279359E+01  0.12670289409E+02  0.10570000000E+00 0. -1.
<mgrwt>
<rscale>  0 0.25696123E+02</rscale>
<asrwt>0</asrwt>
<pdfrwt beam="1">  1        2 0.19230068E-02 0.25696123E+02</pdfrwt>
<pdfrwt beam="2">  1       -2 0.20317379E-02 0.25696123E+02</pdfrwt>
<totfact> 0.22367527E+06</totfact>
</mgrwt>
</event>
<event>
 4    1  0.3704929E-001  0.2073032E+02  0.7818608E-02  0.1731183E+00
          2   -1    0    0  501    0  0.00000000000E+00  0.00000000000E+00  0.18823756931E+02  0.18823757111E+02  0.26000000000E-02 0. -1.
         -2   -1    0    0    0  501 -0.00000000000E+00 -0.00000000000E+00 -0.57074941700E+01  0.57074947622E+01  0.26000000000E-02 0.  1.
        -13    1    1    2    0    0  0.37890376134E+01 -0.93914763427E+01  0.91692084326E+01  0.13661705227E+02  0.10570000000E+00 0.  1.
         13    1    1    2    0    0 -0.37890376134E+01  0.93914763427E+01  0.39470543287E+01  0.10869546646E+02  0.10570000000E+00 0. -1.
<mgrwt>
<rscale>  0 0.20730315E+02</rscale>
<asrwt>0</asrwt>
<pdfrwt beam="1">  1        2 0.28959627E-02 0.20730315E+02</pdfrwt>
<pdfrwt beam="2">  1       -2 0.87807609E-03 0.20730315E+02</pdfrwt>
<totfact> 0.38221472E+06</totfact>
</mgrwt>
</event>
<event>
 4    1  0.3704929E-001  0.2104723E+02  0.7818608E-02  0.1725270E+00
          2   -1    0    0  501    0  0.00000000000E+00  0.00000000000E+00  0.91111772994E+02  0.91111773032E+02  0.26000000000E-02 0.  1.
         -2   -1    0    0    0  501 -0.00000000000E+00 -0.00000000000E+00 -0.12155001108E+01  0.12155028915E+01  0.26000000000E-02 0. -1.
        -13    1    1    2    0    0 -0.70525191964E+01  0.71822316582E+01  0.58406602712E+02  0.59267739045E+02  0.10570000000E+00 0.  1.
         13    1    1    2    0    0  0.70525191964E+01 -0.71822316582E+01  0.31489670171E+02  0.33059536878E+02  0.10570000000E+00 0. -1.
<mgrwt>
<rscale>  0 0.21047233E+02</rscale>
<asrwt>0</asrwt>
<pdfrwt beam="1">  1        2 0.14017201E-01 0.21047233E+02</pdfrwt>
<pdfrwt beam="2">  1       -2 0.18700017E-03 0.21047233E+02</pdfrwt>
<totfact> 0.46145883E+06</totfact>
</mgrwt>
</event>
<event>
 4    1  0.3704929E-001  0.4932184E+02  0.7818608E-02  0.1449034E+00
         -2   -1    0    0    0  501 -0.00000000000E+00  0.00000000000E+00  0.46984880061E+01  0.46984887255E+01  0.26000000000E-02 0. -1.
          2   -1    0    0  501    0  0.00000000000E+00 -0.00000000000E+00 -0.12943756421E+03  0.12943756424E+03  0.26000000000E-02 0.  1.
        -13    1    1    2    0    0 -0.10995961047E+02 -0.16352937580E+02 -0.22047741214E+02  0.29570995789E+02  0.10570000000E+00 0. -1.
         13    1    1    2    0    0  0.10995961047E+02  0.16352937580E+02 -0.10269133499E+03  0.10456505717E+03  0.10570000000E+00 0.  1.
<mgrwt>
<rscale>  0 0.49321837E+02</rscale>
<asrwt>0</asrwt>
<pdfrwt beam="2">  1        2 0.19913469E-01 0.49321837E+02</pdfrwt>
<pdfrwt beam="1">  1       -2 0.72284446E-03 0.49321837E+02</pdfrwt>
<totfact> 0.66522038E+05</totfact>
</mgrwt>
</event>
<event>
 4    1  0.3704929E-001  0.2353858E+02  0.7818608E-02  0.1682926E+00
          2   -1    0    0  501    0  0.00000000000E+00  0.00000000000E+00  0.68356348002E+01  0.68356352947E+01  0.26000000000E-02 0. -1.
         -2   -1    0    0    0  501 -0.00000000000E+00 -0.00000000000E+00 -0.20263827531E+02  0.20263827698E+02  0.26000000000E-02 0.  1.
        -13    1    1    2    0    0  0.10420307022E+02  0.46319767459E+01 -0.33641017243E+01  0.11889758614E+02  0.10570000000E+00 0. -1.
         13    1    1    2    0    0 -0.10420307022E+02 -0.46319767459E+01 -0.10064091006E+02  0.15209704378E+02  0.10570000000E+00 0.  1.
<mgrwt>
<rscale>  0 0.23538575E+02</rscale>
<asrwt>0</asrwt>
<pdfrwt beam="1">  1        2 0.10516362E-02 0.23538575E+02</pdfrwt>
<pdfrwt beam="2">  1       -2 0.31175120E-02 0.23538575E+02</pdfrwt>
<totfact> 0.26150835E+06</totfact>
</mgrwt>
</event>
<event>
 4    1  0.3704929E-001  0.4967336E+02  0.7818608E-02  0.1447111E+00
         -2   -1    0    0    0  501 -0.00000000000E+00  0.00000000000E+00  0.12192005933E+02  0.12192006210E+02  0.26000000000E-02 0. -1.
          2   -1    0    0  501    0  0.00000000000E+00 -0.00000000000E+00 -0.50595507152E+02  0.50595507219E+02  0.26000000000E-02 0.  1.
        -13    1    1    2    0    0  0.10276107049E+01  0.12752074111E+02 -0.46109924306E+02  0.47851934861E+02  0.10570000000E+00 0.  1.
         13    1    1    2    0    0 -0.10276107049E+01 -0.12752074111E+02  0.77064230865E+01  0.14935578568E+02  0.10570000000E+00 0. -1.
<mgrwt>
<rscale>  0 0.49673362E+02</rscale>
<asrwt>0</asrwt>
<pdfrwt beam="2">  1        2 0.77839241E-02 0.49673362E+02</pdfrwt>
<pdfrwt beam="1">  1       -2 0.18756933E-02 0.49673362E+02</pdfrwt>
<totfact> 0.52287946E+05</totfact>
</mgrwt>
</event>
<event>
 4    1  0.3704929E-001  0.4128378E+02  0.7818608E-02  0.1498971E+00
         -2   -1    0    0    0  501 -0.00000000000E+00  0.00000000000E+00  0.10875652235E+03  0.10875652238E+03  0.26000000000E-02 0. -1.
          2   -1    0    0  501    0  0.00000000000E+00 -0.00000000000E+00 -0.39178107469E+01  0.39178116096E+01  0.26000000000E-02 0.  1.
        -13    1    1    2    0    0  0.39208732956E+01  0.16653720180E+02  0.20901763985E+02  0.27011378221E+02  0.10570000000E+00 0.  1.
         13    1    1    2    0    0 -0.39208732956E+01 -0.16653720180E+02  0.83936947618E+02  0.85662955769E+02  0.10570000000E+00 0. -1.
<mgrwt>
<rscale>  0 0.41283775E+02</rscale>
<asrwt>0</asrwt>
<pdfrwt beam="2">  1        2 0.60274026E-03 0.41283775E+02</pdfrwt>
<pdfrwt beam="1">  1       -2 0.16731771E-01 0.41283775E+02</pdfrwt>
<totfact> 0.54941449E+05</totfact>
</mgrwt>
</event>
<event>
 4    1  0.3704929E-001  0.2644099E+02  0.7818608E-02  0.1641127E+00
         -2   -1    0    0    0  501 -0.00000000000E+00  0.00000000000E+00  0.20160193547E+01  0.20160210313E+01  0.26000000000E-02 0.  1.
          2   -1    0    0  501    0  0.00000000000E+00 -0.00000000000E+00 -0.86696296553E+02  0.86696296592E+02  0.26000000000E-02 0. -1.
        -13    1    1    2    0    0  0.88075467114E+01  0.87842511593E+01 -0.27322763230E+02  0.30021334256E+02  0.10570000000E+00 0.  1.
         13    1    1    2    0    0 -0.88075467114E+01 -0.87842511593E+01 -0.57357513968E+02  0.58690983367E+02  0.10570000000E+00 0. -1.
<mgrwt>
<rscale>  0 0.26440990E+02</rscale>
<asrwt>0</asrwt>
<pdfrwt beam="2">  1        2 0.13337889E-01 0.26440990E+02</pdfrwt>
<pdfrwt beam="1">  1       -2 0.31015702E-03 0.26440990E+02</pdfrwt>
<totfact> 0.27166818E+06</totfact>
</mgrwt>
</event>
<event>
 4    1  0.3704929E-001  0.2047131E+02  0.7818608E-02  0.1736115E+00
         -2   -1    0    0    0  501 -0.00000000000E+00  0.00000000000E+00  0.33089107023E+01  0.33089117238E+01  0.26000000000E-02 0. -1.
          2   -1    0    0  501    0  0.00000000000E+00 -0.00000000000E+00 -0.31662567037E+02  0.31662567144E+02  0.26000000000E-02 0.  1.
        -13    1    1    2    0    0  0.94419837870E+01  0.39381062462E+01 -0.14710839131E+02  0.17918696913E+02  0.10570000000E+00 0.  1.
         13    1    1    2    0    0 -0.94419837870E+01 -0.39381062462E+01 -0.13642817203E+02  0.17052781954E+02  0.10570000000E+00 0. -1.
<mgrwt>
<rscale>  0 0.20471309E+02</rscale>
<asrwt>0</asrwt>
<pdfrwt beam="2">  1        2 0.48711640E-02 0.20471309E+02</pdfrwt>
<pdfrwt beam="1">  1       -2 0.50906329E-03 0.20471309E+02</pdfrwt>
<totfact> 0.41410530E+06</totfact>
</mgrwt>
</event>
<event>
 4    1  0.3704929E-001  0.2022557E+02  0.7818608E-02  0.1740879E+00
         -2   -1    0    0    0  501 -0.00000000000E+00  0.00000000000E+00  0.13216588739E+02  0.13216588995E+02  0.26000000000E-02 0.  1.
          2   -1    0    0  501    0  0.00000000000E+00 -0.00000000000E+00 -0.77378788994E+01  0.77378793362E+01  0.26000000000E-02 0. -1.
        -13    1    1    2    0    0 -0.10032213272E+02  0.11096850081E+01  0.21002828254E+01  0.10310143762E+02  0.10570000000E+00 0.  1.
         13    1    1    2    0    0  0.10032213272E+02 -0.11096850081E+01  0.33784270147E+01  0.10644324569E+02  0.10570000000E+00 0. -1.
<mgrwt>
<rscale>  0 0.20225565E+02</rscale>
<asrwt>0</asrwt>
<pdfrwt beam="2">  1        2 0.11904430E-02 0.20225565E+02</pdfrwt>
<pdfrwt beam="1">  1       -2 0.20333214E-02 0.20225565E+02</pdfrwt>
<totfact> 0.37740347E+06</totfact>
</mgrwt>
</event>
<event>
 4    1  0.3704929E-001  0.4184847E+02  0.7818608E-02  0.1495033E+00
          2   -1    0    0  501    0  0.00000000000E+00  0.00000000000E+00  0.31159361082E+01  0.31159371930E+01  0.26000000000E-02 0. -1.
         -2   -1    0    0    0  501 -0.00000000000E+00 -0.00000000000E+00 -0.14051109775E+03  0.14051109777E+03  0.26000000000E-02 0.  1.
        -13    1    1    2    0    0  0.17821351275E+02 -0.48560740138E+01 -0.34960020456E+02  0.39539805499E+02  0.10570000000E+00 0. -1.
         13    1    1    2    0    0 -0.17821351275E+02  0.48560740138E+01 -0.10243514118E+03  0.10408722946E+03  0.10570000000E+00 0.  1.
<mgrwt>
<rscale>  0 0.41848473E+02</rscale>
<asrwt>0</asrwt>
<pdfrwt beam="1">  1        2 0.47937498E-03 0.41848473E+02</pdfrwt>
<pdfrwt beam="2">  1       -2 0.21617087E-01 0.41848473E+02</pdfrwt>
<totfact> 0.49398583E+05</totfact>
</mgrwt>
</event>
<event>
 4    1  0.3704929E-001  0.2081392E+02  0.7818608E-02  0.1729610E+00
         -2   -1    0    0    0  501 -0.00000000000E+00  0.00000000000E+00  0.49258052129E+01  0.49258058991E+01  0.26000000000E-02 0. -1.
          2   -1    0    0  501    0  0.00000000000E+00 -0.00000000000E+00 -0.21987234922E+02  0.21987235076E+02  0.26000000000E-02 0.  1.
        -13    1    1    2    0    0  0.19060704041E+00 -0.10278630763E+02 -0.10618506511E+02  0.14780068823E+02  0.10570000000E+00 0. -1.
         13    1    1    2    0    0 -0.19060704041E+00  0.10278630763E+02 -0.64429231986E+01  0.12132972152E+02  0.10570000000E+00 0.  1.
<mgrwt>
<rscale>  0 0.20813923E+02</rscale>
<asrwt>0</asrwt>
<pdfrwt beam="2">  1        2 0.33826516E-02 0.20813923E+02</pdfrwt>
<pdfrwt beam="1">  1       -2 0.75781626E-03 0.20813923E+02</pdfrwt>
<totfact> 0.38409777E+06</totfact>
</mgrwt>
</event>
<event>
 4    1  0.3704929E-001  0.2256949E+02  0.7818608E-02  0.1698585E+00
          2   -1    0    0  501    0  0.00000000000E+00  0.00000000000E+00  0.10210836023E+03  0.10210836026E+03  0.26000000000E-02 0.  1.
         -2   -1    0    0    0  501 -0.00000000000E+00 -0.00000000000E+00 -0.12471589033E+01  0.12471616135E+01  0.26000000000E-02 0. -1.
        -13    1    1    2    0    0  0.95511911011E+01  0.57235023043E+01  0.58813080716E+02  0.59857943215E+02  0.10570000000E+00 0.  1.
         13    1    1    2    0    0 -0.95511911011E+01 -0.57235023043E+01  0.42048120609E+02  0.43497578660E+02  0.10570000000E+00 0. -1.
<mgrwt>
<rscale>  0 0.22569492E+02</rscale>
<asrwt>0</asrwt>
<pdfrwt beam="1">  1        2 0.15708984E-01 0.22569492E+02</pdfrwt>
<pdfrwt beam="2">  1       -2 0.19187075E-03 0.22569492E+02</pdfrwt>
<totfact> 0.40486759E+06</totfact>
</mgrwt>
</event>
<event>
 4    1  0.3704929E-001  0.3675189E+02  0.7818608E-02  0.1533572E+00
          2   -1    0    0  501    0  0.00000000000E+00  0.00000000000E+00  0.17937625777E+02  0.17937625966E+02  0.26000000000E-02 0.  1.
         -2   -1    0    0    0  501 -0.00000000000E+00 -0.00000000000E+00 -0.18824972397E+02  0.18824972576E+02  0.26000000000E-02 0. -1.
        -13    1    1    2    0    0  0.88723474745E+01  0.10756493470E+02  0.11528249924E+02  0.18092330427E+02  0.10570000000E+00 0.  1.
         13    1    1    2    0    0 -0.88723474745E+01 -0.10756493470E+02 -0.12415596543E+02  0.18670268115E+02  0.10570000000E+00 0. -1.
<mgrwt>
<rscale>  0 0.36751888E+02</rscale>
<asrwt>0</asrwt>
<pdfrwt beam="1">  1        2 0.27596347E-02 0.36751888E+02</pdfrwt>
<pdfrwt beam="2">  1       -2 0.28961496E-02 0.36751888E+02</pdfrwt>
<totfact> 0.96427643E+05</totfact>
</mgrwt>
</event>
<event>
 4    1  0.3704929E-001  0.2160784E+02  0.7818608E-02  0.1715124E+00
          2   -1    0    0  501    0  0.00000000000E+00  0.00000000000E+00  0.90805593625E+02  0.90805593663E+02  0.26000000000E-02 0. -1.
         -2   -1    0    0    0  501 -0.00000000000E+00 -0.00000000000E+00 -0.12854332162E+01  0.12854358457E+01  0.26000000000E-02 0.  1.
        -13    1    1    2    0    0 -0.10218903786E+02  0.24574414851E+01  0.34106571707E+02  0.35689416068E+02  0.10570000000E+00 0.  1.
         13    1    1    2    0    0  0.10218903786E+02 -0.24574414851E+01  0.55413588703E+02  0.56401613440E+02  0.10570000000E+00 0. -1.
<mgrwt>
<rscale>  0 0.21607836E+02</rscale>
<asrwt>0</asrwt>
<pdfrwt beam="1">  1        2 0.13970091E-01 0.21607836E+02</pdfrwt>
<pdfrwt beam="2">  1       -2 0.19775916E-03 0.21607836E+02</pdfrwt>
<totfact> 0.43480850E+06</totfact>
</mgrwt>
</event>
<event>
 4    1  0.3704929E-001  0.6909920E+02  0.7818608E-02  0.1363183E+00
         -2   -1    0    0    0  501 -0.00000000000E+00  0.00000000000E+00  0.52700865680E+01  0.52700872093E+01  0.26000000000E-02 0. -1.
          2   -1    0    0  501    0  0.00000000000E+00 -0.00000000000E+00 -0.22650000119E+03  0.22650000120E+03  0.26000000000E-02 0.  1.
        -13    1    1    2    0    0 -0.22140067920E+02  0.25767172276E+02 -0.13170455837E+03  0.13601555662E+03  0.10570000000E+00 0.  1.
         13    1    1    2    0    0  0.22140067920E+02 -0.25767172276E+02 -0.89525356247E+02  0.95754531790E+02  0.10570000000E+00 0. -1.
<mgrwt>
<rscale>  0 0.69099195E+02</rscale>
<asrwt>0</asrwt>
<pdfrwt beam="2">  1        2 0.34846146E-01 0.69099195E+02</pdfrwt>
<pdfrwt beam="1">  1       -2 0.81078278E-03 0.69099195E+02</pdfrwt>
<totfact> 0.33654721E+05</totfact>
</mgrwt>
</event>
<event>
 4    1  0.3704929E-001  0.2585496E+02  0.7818608E-02  0.1649017E+00
          2   -1    0    0  501    0  0.00000000000E+00  0.00000000000E+00  0.33374189215E+01  0.33374199343E+01  0.26000000000E-02 0. -1.
         -2   -1    0    0    0  501 -0.00000000000E+00 -0.00000000000E+00 -0.50074526075E+02  0.50074526142E+02  0.26000000000E-02 0.  1.
        -13    1    1    2    0    0  0.10536936219E+02  0.25344839826E+01 -0.37926118247E+02  0.39444293019E+02  0.10570000000E+00 0.  1.
         13    1    1    2    0    0 -0.10536936219E+02 -0.25344839826E+01 -0.88109889057E+01  0.13967653057E+02  0.10570000000E+00 0. -1.
<mgrwt>
<rscale>  0 0.25854957E+02</rscale>
<asrwt>0</asrwt>
<pdfrwt beam="1">  1        2 0.51344918E-03 0.25854957E+02</pdfrwt>
<pdfrwt beam="2">  1       -2 0.77037728E-02 0.25854957E+02</pdfrwt>
<totfact> 0.19124363E+06</totfact>
</mgrwt>
</event>
<event>
 4    1  0.3704929E-001  0.8263522E+02  0.7818608E-02  0.1321735E+00
          2   -1    0    0  501    0  0.00000000000E+00  0.00000000000E+00  0.18656710028E+03  0.18656710030E+03  0.26000000000E-02 0. -1.
         -2   -1    0    0    0  501 -0.00000000000E+00 -0.00000000000E+00 -0.91502990098E+01  0.91502993792E+01  0.26000000000E-02 0.  1.
        -13    1    1    2    0    0  0.96575325983E+01 -0.33489234435E+02  0.14126114959E+03  0.14549749247E+03  0.10570000000E+00 0. -1.
         13    1    1    2    0    0 -0.96575325983E+01  0.33489234435E+02  0.36155651676E+02  0.50219907204E+02  0.10570000000E+00 0.  1.
<mgrwt>
<rscale>  0 0.82635217E+02</rscale>
<asrwt>0</asrwt>
<pdfrwt beam="1">  1        2 0.28702630E-01 0.82635217E+02</pdfrwt>
<pdfrwt beam="2">  1       -2 0.14077384E-02 0.82635217E+02</pdfrwt>
<totfact> 0.19635929E+05</totfact>
</mgrwt>
</event>
<event>
 4    1  0.3704929E-001  0.2262593E+02  0.7818608E-02  0.1697646E+00
          2   -1    0    0  501    0  0.00000000000E+00  0.00000000000E+00  0.32531049998E+02  0.32531050102E+02  0.26000000000E-02 0. -1.
         -2   -1    0    0    0  501 -0.00000000000E+00 -0.00000000000E+00 -0.39341835471E+01  0.39341844062E+01  0.26000000000E-02 0.  1.
        -13    1    1    2    0    0  0.76958702166E+01  0.64598411073E+01  0.59215363407E+01  0.11663264151E+02  0.10570000000E+00 0.  1.
         13    1    1    2    0    0 -0.76958702166E+01 -0.64598411073E+01  0.22675330111E+02  0.24801970358E+02  0.10570000000E+00 0. -1.
<mgrwt>
<rscale>  0 0.22625927E+02</rscale>
<asrwt>0</asrwt>
<pdfrwt beam="1">  1        2 0.50047769E-02 0.22625927E+02</pdfrwt>
<pdfrwt beam="2">  1       -2 0.60525910E-03 0.22625927E+02</pdfrwt>
<totfact> 0.33094939E+06</totfact>
</mgrwt>
</event>
<event>
 4    1  0.3704929E-001  0.3570992E+02  0.7818608E-02  0.1542385E+00
          2   -1    0    0  501    0  0.00000000000E+00  0.00000000000E+00  0.84525054168E+02  0.84525054208E+02  0.26000000000E-02 0.  1.
         -2   -1    0    0    0  501 -0.00000000000E+00 -0.00000000000E+00 -0.37716569983E+01  0.37716578944E+01  0.26000000000E-02 0. -1.
        -13    1    1    2    0    0  0.17498647781E+02 -0.35457228659E+01  0.40664586612E+02  0.44411649391E+02  0.10570000000E+00 0.  1.
         13    1    1    2    0    0 -0.17498647781E+02  0.35457228659E+01  0.40088810558E+02  0.43885062712E+02  0.10570000000E+00 0. -1.
<mgrwt>
<rscale>  0 0.35709918E+02</rscale>
<asrwt>0</asrwt>
<pdfrwt beam="1">  1        2 0.13003854E-01 0.35709918E+02</pdfrwt>
<pdfrwt beam="2">  1       -2 0.58025502E-03 0.35709918E+02</pdfrwt>
<totfact> 0.13242728E+06</totfact>
</mgrwt>
</event>
<event>
 4    1  0.3704929E-001  0.2333602E+02  0.7818608E-02  0.1686121E+00
         -2   -1    0    0    0  501 -0.00000000000E+00  0.00000000000E+00  0.55359352212E+01  0.55359358318E+01  0.26000000000E-02 0. -1.
          2   -1    0    0  501    0  0.00000000000E+00 -0.00000000000E+00 -0.24592492545E+02  0.24592492682E+02  0.26000000000E-02 0.  1.
        -13    1    1    2    0    0  0.11023500609E+02 -0.34633223927E+01 -0.11617705276E+02  0.16385799219E+02  0.10570000000E+00 0.  1.
         13    1    1    2    0    0 -0.11023500609E+02  0.34633223927E+01 -0.74388520481E+01  0.13742629296E+02  0.10570000000E+00 0. -1.
<mgrwt>
<rscale>  0 0.23336020E+02</rscale>
<asrwt>0</asrwt>
<pdfrwt beam="2">  1        2 0.37834604E-02 0.23336020E+02</pdfrwt>
<pdfrwt beam="1">  1       -2 0.85168241E-03 0.23336020E+02</pdfrwt>
<totfact> 0.29883829E+06</totfact>
</mgrwt>
</event>
<event>
 4    1  0.3704929E-001  0.4681257E+02  0.7818608E-02  0.1463333E+00
         -2   -1    0    0    0  501 -0.00000000000E+00  0.00000000000E+00  0.55473046975E+02  0.55473047036E+02  0.26000000000E-02 0.  1.
          2   -1    0    0  501    0  0.00000000000E+00 -0.00000000000E+00 -0.98760442787E+01  0.98760446209E+01  0.26000000000E-02 0. -1.
        -13    1    1    2    0    0 -0.18160263483E+02  0.11626267521E+02  0.10089944132E+02  0.23807213430E+02  0.10570000000E+00 0. -1.
         13    1    1    2    0    0  0.18160263483E+02 -0.11626267521E+02  0.35507058564E+02  0.41541878226E+02  0.10570000000E+00 0.  1.
<mgrwt>
<rscale>  0 0.46812574E+02</rscale>
<asrwt>0</asrwt>
<pdfrwt beam="2">  1        2 0.15193915E-02 0.46812574E+02</pdfrwt>
<pdfrwt beam="1">  1       -2 0.85343149E-02 0.46812574E+02</pdfrwt>
<totfact> 0.46885047E+05</totfact>
</mgrwt>
</event>
<event>
 4    1  0.3704929E-001  0.2674034E+02  0.7818608E-02  0.1637194E+00
         -2   -1    0    0    0  501 -0.00000000000E+00  0.00000000000E+00  0.42524587918E+02  0.42524587998E+02  0.26000000000E-02 0. -1.
          2   -1    0    0  501    0  0.00000000000E+00 -0.00000000000E+00 -0.42037195079E+01  0.42037203119E+01  0.26000000000E-02 0.  1.
        -13    1    1    2    0    0 -0.56256110766E+01 -0.11528451747E+02  0.25744897863E+02  0.28763929462E+02  0.10570000000E+00 0.  1.
         13    1    1    2    0    0  0.56256110766E+01  0.11528451747E+02  0.12575970548E+02  0.17964378847E+02  0.10570000000E+00 0. -1.
<mgrwt>
<rscale>  0 0.26740341E+02</rscale>
<asrwt>0</asrwt>
<pdfrwt beam="2">  1        2 0.64672619E-03 0.26740341E+02</pdfrwt>
<pdfrwt beam="1">  1       -2 0.65422440E-02 0.26740341E+02</pdfrwt>
<totfact> 0.18123739E+06</totfact>
</mgrwt>
</event>
<event>
 4    1  0.3704929E-001  0.2401489E+02  0.7818608E-02  0.1675568E+00
          2   -1    0    0  501    0  0.00000000000E+00  0.00000000000E+00  0.32623966553E+01  0.32623976914E+01  0.26000000000E-02 0. -1.
         -2   -1    0    0    0  501 -0.00000000000E+00 -0.00000000000E+00 -0.44194119086E+02  0.44194119162E+02  0.26000000000E-02 0.  1.
        -13    1    1    2    0    0 -0.11386926537E+02  0.32429661216E+01 -0.16519202932E+02  0.20324226018E+02  0.10570000000E+00 0.  1.
         13    1    1    2    0    0  0.11386926537E+02 -0.32429661216E+01 -0.24412519498E+02  0.27132290835E+02  0.10570000000E+00 0. -1.
<mgrwt>
<rscale>  0 0.24014893E+02</rscale>
<asrwt>0</asrwt>
<pdfrwt beam="1">  1        2 0.50190729E-03 0.24014893E+02</pdfrwt>
<pdfrwt beam="2">  1       -2 0.67990949E-02 0.24014893E+02</pdfrwt>
<totfact> 0.22989650E+06</totfact>
</mgrwt>
</event>
<event>
 4    1  0.3704929E-001  0.4046524E+02  0.7818608E-02  0.1504815E+00
          2   -1    0    0  501    0  0.00000000000E+00  0.00000000000E+00  0.82082580075E+01  0.82082584193E+01  0.26000000000E-02 0.  1.
         -2   -1    0    0    0  501 -0.00000000000E+00 -0.00000000000E+00 -0.49871592594E+02  0.49871592662E+02  0.26000000000E-02 0. -1.
        -13    1    1    2    0    0  0.15326684614E+02 -0.13192513632E+02 -0.21737232122E+02  0.29689528625E+02  0.10570000000E+00 0. -1.
         13    1    1    2    0    0 -0.15326684614E+02  0.13192513632E+02 -0.19926102465E+02  0.28390322456E+02  0.10570000000E+00 0.  1.
<mgrwt>
<rscale>  0 0.40465240E+02</rscale>
<asrwt>0</asrwt>
<pdfrwt beam="1">  1        2 0.12628090E-02 0.40465240E+02</pdfrwt>
<pdfrwt beam="2">  1       -2 0.76725525E-02 0.40465240E+02</pdfrwt>
<totfact> 0.67578929E+05</totfact>
</mgrwt>
</event>
<event>
 4    1  0.3704929E-001  0.2211734E+02  0.7818608E-02  0.1706231E+00
          2   -1    0    0  501    0  0.00000000000E+00  0.00000000000E+00  0.36909367964E+01  0.36909377122E+01  0.26000000000E-02 0. -1.
         -2   -1    0    0    0  501 -0.00000000000E+00 -0.00000000000E+00 -0.33133624704E+02  0.33133624806E+02  0.26000000000E-02 0.  1.
        -13    1    1    2    0    0  0.11039947860E+02  0.40677145815E+00 -0.13910711591E+02  0.17764148762E+02  0.10570000000E+00 0.  1.
         13    1    1    2    0    0 -0.11039947860E+02 -0.40677145815E+00 -0.15531976317E+02  0.19060413756E+02  0.10570000000E+00 0. -1.
<mgrwt>
<rscale>  0 0.22117336E+02</rscale>
<asrwt>0</asrwt>
<pdfrwt beam="1">  1        2 0.56783653E-03 0.22117336E+02</pdfrwt>
<pdfrwt beam="2">  1       -2 0.50974806E-02 0.22117336E+02</pdfrwt>
<totfact> 0.28601353E+06</totfact>
</mgrwt>
</event>
<event>
 4    1  0.3704929E-001  0.2603835E+02  0.7818608E-02  0.1646521E+00
          2   -1    0    0  501    0  0.00000000000E+00  0.00000000000E+00  0.11772439604E+03  0.11772439607E+03  0.26000000000E-02 0.  1.
         -2   -1    0    0    0  501 -0.00000000000E+00 -0.00000000000E+00 -0.14397932936E+01  0.14397956412E+01  0.26000000000E-02 0. -1.
        -13    1    1    2    0    0 -0.12722272836E+02  0.27243818823E+01  0.60235924383E+02  0.61625126706E+02  0.10570000000E+00 0.  1.
         13    1    1    2    0    0  0.12722272836E+02 -0.27243818823E+01  0.56048678368E+02  0.57539065009E+02  0.10570000000E+00 0. -1.
<mgrwt>
<rscale>  0 0.26038352E+02</rscale>
<asrwt>0</asrwt>
<pdfrwt beam="1">  1        2 0.18111444E-01 0.26038352E+02</pdfrwt>
<pdfrwt beam="2">  1       -2 0.22150686E-03 0.26038352E+02</pdfrwt>
<totfact> 0.30265241E+06</totfact>
</mgrwt>
</event>
<event>
 4    1  0.3704929E-001  0.2250851E+02  0.7818608E-02  0.1699603E+00
         -2   -1    0    0    0  501 -0.00000000000E+00  0.00000000000E+00  0.20369478473E+02  0.20369478638E+02  0.26000000000E-02 0.  1.
          2   -1    0    0  501    0  0.00000000000E+00 -0.00000000000E+00 -0.62180398371E+01  0.62180403807E+01  0.26000000000E-02 0. -1.
        -13    1    1    2    0    0 -0.10623300498E+02 -0.29270986615E+01  0.43757457597E+01  0.11856675060E+02  0.10570000000E+00 0. -1.
         13    1    1    2    0    0  0.10623300498E+02  0.29270986615E+01  0.97756928757E+01  0.14730843959E+02  0.10570000000E+00 0.  1.
<mgrwt>
<rscale>  0 0.22508508E+02</rscale>
<asrwt>0</asrwt>
<pdfrwt beam="2">  1        2 0.95662156E-03 0.22508508E+02</pdfrwt>
<pdfrwt beam="1">  1       -2 0.31337660E-02 0.22508508E+02</pdfrwt>
<totfact> 0.28854974E+06</totfact>
</mgrwt>
</event>
<event>
 4    1  0.3704929E-001  0.3106139E+02  0.7818608E-02  0.1586644E+00
          2   -1    0    0  501    0  0.00000000000E+00  0.00000000000E+00  0.22528531849E+01  0.22528546853E+01  0.26000000000E-02 0. -1.
         -2   -1    0    0    0  501 -0.00000000000E+00 -0.00000000000E+00 -0.10706529228E+03  0.10706529231E+03  0.26000000000E-02 0.  1.
        -13    1    1    2    0    0  0.15339938262E+02  0.19763960211E+01 -0.47464658692E+02  0.49921186327E+02  0.10570000000E+00 0. -1.
         13    1    1    2    0    0 -0.15339938262E+02 -0.19763960211E+01 -0.57347780406E+02  0.59396960672E+02  0.10570000000E+00 0.  1.
<mgrwt>
<rscale>  0 0.31061389E+02</rscale>
<asrwt>0</asrwt>
<pdfrwt beam="1">  1        2 0.34659300E-03 0.31061389E+02</pdfrwt>
<pdfrwt beam="2">  1       -2 0.16471580E-01 0.31061389E+02</pdfrwt>
<totfact> 0.10817326E+06</totfact>
</mgrwt>
</event>
<event>
 4    1  0.3704929E-001  0.2521794E+02  0.7818608E-02  0.1657891E+00
         -2   -1    0    0    0  501 -0.00000000000E+00  0.00000000000E+00  0.46632295508E+01  0.46632302756E+01  0.26000000000E-02 0.  1.
          2   -1    0    0  501    0  0.00000000000E+00 -0.00000000000E+00 -0.34093568248E+02  0.34093568347E+02  0.26000000000E-02 0. -1.
        -13    1    1    2    0    0 -0.11011225250E+02  0.34297273201E+01 -0.68839153888E+01  0.13431663135E+02  0.10570000000E+00 0.  1.
         13    1    1    2    0    0  0.11011225250E+02 -0.34297273201E+01 -0.22546423309E+02  0.25325135488E+02  0.10570000000E+00 0. -1.
<mgrwt>
<rscale>  0 0.25217942E+02</rscale>
<asrwt>0</asrwt>
<pdfrwt beam="2">  1        2 0.52451642E-02 0.25217942E+02</pdfrwt>
<pdfrwt beam="1">  1       -2 0.71742002E-03 0.25217942E+02</pdfrwt>
<totfact> 0.25908477E+06</totfact>
</mgrwt>
</event>
<event>
 4    1  0.3704929E-001  0.3600062E+02  0.7818608E-02  0.1539890E+00
          2   -1    0    0  501    0  0.00000000000E+00  0.00000000000E+00  0.43244299257E+01  0.43244307073E+01  0.26000000000E-02 0.  1.
         -2   -1    0    0    0  501 -0.00000000000E+00 -0.00000000000E+00 -0.74925729832E+02  0.74925729877E+02  0.26000000000E-02 0. -1.
        -13    1    1    2    0    0  0.72730259339E+01  0.14645632952E+02 -0.51863339895E+02  0.54380223136E+02  0.10570000000E+00 0. -1.
         13    1    1    2    0    0 -0.72730259339E+01 -0.14645632952E+02 -0.18737960011E+02  0.24869937448E+02  0.10570000000E+00 0.  1.
<mgrwt>
<rscale>  0 0.36000617E+02</rscale>
<asrwt>0</asrwt>
<pdfrwt beam="1">  1        2 0.66529703E-03 0.36000617E+02</pdfrwt>
<pdfrwt beam="2">  1       -2 0.11527034E-01 0.36000617E+02</pdfrwt>
<totfact> 0.82920179E+05</totfact>
</mgrwt>
</event>
<event>
 4    1  0.3704929E-001  0.2558089E+02  0.7818608E-02  0.1652796E+00
          2   -1    0    0  501    0  0.00000000000E+00  0.00000000000E+00  0.52813497963E+02  0.52813498027E+02  0.26000000000E-02 0. -1.
         -2   -1    0    0    0  501 -0.00000000000E+00 -0.00000000000E+00 -0.30976069917E+01  0.30976080829E+01  0.26000000000E-02 0.  1.
        -13    1    1    2    0    0 -0.56761140725E+01  0.91719819532E+01  0.39880404461E+02  0.41313452487E+02  0.10570000000E+00 0. -1.
         13    1    1    2    0    0  0.56761140725E+01 -0.91719819532E+01  0.98354865102E+01  0.14597653623E+02  0.10570000000E+00 0.  1.
<mgrwt>
<rscale>  0 0.25580891E+02</rscale>
<asrwt>0</asrwt>
<pdfrwt beam="1">  1        2 0.81251540E-02 0.25580891E+02</pdfrwt>
<pdfrwt beam="2">  1       -2 0.47655499E-03 0.25580891E+02</pdfrwt>
<totfact> 0.26688557E+06</totfact>
</mgrwt>
</event>
<event>
 4    1  0.3704929E-001  0.4292935E+02  0.7818608E-02  0.1487698E+00
          2   -1    0    0  501    0  0.00000000000E+00  0.00000000000E+00  0.25263650367E+01  0.25263663746E+01  0.26000000000E-02 0.  1.
         -2   -1    0    0    0  501 -0.00000000000E+00 -0.00000000000E+00 -0.18236961236E+03  0.18236961237E+03  0.26000000000E-02 0. -1.
        -13    1    1    2    0    0 -0.14539687611E+01 -0.21375638523E+02 -0.95519405350E+02  0.97892798092E+02  0.10570000000E+00 0.  1.
         13    1    1    2    0    0  0.14539687611E+01  0.21375638523E+02 -0.84323841969E+02  0.87003180656E+02  0.10570000000E+00 0. -1.
<mgrwt>
<rscale>  0 0.42929353E+02</rscale>
<asrwt>0</asrwt>
<pdfrwt beam="1">  1        2 0.38867179E-03 0.42929353E+02</pdfrwt>
<pdfrwt beam="2">  1       -2 0.28056853E-01 0.42929353E+02</pdfrwt>
<totfact> 0.42420473E+05</totfact>
</mgrwt>
</event>
<event>
 4    1  0.3704929E-001  0.2625711E+02  0.7818608E-02  0.1643576E+00
          2   -1    0    0  501    0  0.00000000000E+00  0.00000000000E+00  0.20159257861E+01  0.20159274627E+01  0.26000000000E-02 0. -1.
         -2   -1    0    0    0  501 -0.00000000000E+00 -0.00000000000E+00 -0.85498631999E+02  0.85498632039E+02  0.26000000000E-02 0.  1.
        -13    1    1    2    0    0 -0.10996358383E+02  0.61146444472E+01 -0.29253095653E+02  0.31844364528E+02  0.10570000000E+00 0. -1.
         13    1    1    2    0    0  0.10996358383E+02 -0.61146444472E+01 -0.54229610560E+02  0.55670194973E+02  0.10570000000E+00 0.  1.
<mgrwt>
<rscale>  0 0.26257111E+02</rscale>
<asrwt>0</asrwt>
<pdfrwt beam="1">  1        2 0.31014263E-03 0.26257111E+02</pdfrwt>
<pdfrwt beam="2">  1       -2 0.13153633E-01 0.26257111E+02</pdfrwt>
<totfact> 0.16791158E+06</totfact>
</mgrwt>
</event>
<event>
 4    1  0.3704929E-001  0.2322915E+02  0.7818608E-02  0.1687822E+00
         -2   -1    0    0    0  501 -0.00000000000E+00  0.00000000000E+00  0.51946369296E+02  0.51946369361E+02  0.26000000000E-02 0.  1.
          2   -1    0    0  501    0  0.00000000000E+00 -0.00000000000E+00 -0.25968757975E+01  0.25968770991E+01  0.26000000000E-02 0. -1.
        -13    1    1    2    0    0 -0.55357675208E+01 -0.98790439231E+01  0.30728398216E+02  0.32748829907E+02  0.10570000000E+00 0.  1.
         13    1    1    2    0    0  0.55357675208E+01  0.98790439231E+01  0.18621095283E+02  0.21794416553E+02  0.10570000000E+00 0. -1.
<mgrwt>
<rscale>  0 0.23229146E+02</rscale>
<asrwt>0</asrwt>
<pdfrwt beam="2">  1        2 0.39951946E-03 0.23229146E+02</pdfrwt>
<pdfrwt beam="1">  1       -2 0.79917492E-02 0.23229146E+02</pdfrwt>
<totfact> 0.24209742E+06</totfact>
</mgrwt>
</event>
<event>
 4    1  0.3704929E-001  0.2460850E+02  0.7818608E-02  0.1666690E+00
          2   -1    0    0  501    0  0.00000000000E+00  0.00000000000E+00  0.31572087042E+02  0.31572087149E+02  0.26000000000E-02 0.  1.
         -2   -1    0    0    0  501 -0.00000000000E+00 -0.00000000000E+00 -0.47952007885E+01  0.47952014934E+01  0.26000000000E-02 0. -1.
        -13    1    1    2    0    0 -0.95361427100E+01 -0.56646738820E+01  0.21258074747E+02  0.23977978697E+02  0.10570000000E+00 0.  1.
         13    1    1    2    0    0  0.95361427100E+01  0.56646738820E+01  0.55188115061E+01  0.12389309945E+02  0.10570000000E+00 0. -1.
<mgrwt>
<rscale>  0 0.24608495E+02</rscale>
<asrwt>0</asrwt>
<pdfrwt beam="1">  1        2 0.48572443E-02 0.24608495E+02</pdfrwt>
<pdfrwt beam="2">  1       -2 0.73772325E-03 0.24608495E+02</pdfrwt>
<totfact> 0.27170325E+06</totfact>
</mgrwt>
</event>
<event>
 4    1  0.3704929E-001  0.3121448E+02  0.7818608E-02  0.1585040E+00
          2   -1    0    0  501    0  0.00000000000E+00  0.00000000000E+00  0.85539557872E+01  0.85539561823E+01  0.26000000000E-02 0. -1.
         -2   -1    0    0    0  501 -0.00000000000E+00 -0.00000000000E+00 -0.28476401775E+02  0.28476401894E+02  0.26000000000E-02 0.  1.
        -13    1    1    2    0    0 -0.11296185036E+02 -0.55567977974E+01  0.98208358230E+00  0.12627646605E+02  0.10570000000E+00 0. -1.
         13    1    1    2    0    0  0.11296185036E+02  0.55567977974E+01 -0.20904529570E+02  0.24402711471E+02  0.10570000000E+00 0.  1.
<mgrwt>
<rscale>  0 0.31214477E+02</rscale>
<asrwt>0</asrwt>
<pdfrwt beam="1">  1        2 0.13159933E-02 0.31214477E+02</pdfrwt>
<pdfrwt beam="2">  1       -2 0.43809849E-02 0.31214477E+02</pdfrwt>
<totfact> 0.13363198E+06</totfact>
</mgrwt>
</event>
<event>
 4    1  0.3704929E-001  0.3939522E+02  0.7818608E-02  0.1512710E+00
         -2   -1    0    0    0  501 -0.00000000000E+00  0.00000000000E+00  0.54210222386E+01  0.54210228621E+01  0.26000000000E-02 0.  1.
          2   -1    0    0  501    0  0.00000000000E+00 -0.00000000000E+00 -0.71572442937E+02  0.71572442984E+02  0.26000000000E-02 0. -1.
        -13    1    1    2    0    0  0.15367924379E+02 -0.12320051731E+02 -0.33402062336E+02  0.38777128764E+02  0.10570000000E+00 0.  1.
         13    1    1    2    0    0 -0.15367924379E+02  0.12320051731E+02 -0.32749358362E+02  0.38216337082E+02  0.10570000000E+00 0. -1.
<mgrwt>
<rscale>  0 0.39395220E+02</rscale>
<asrwt>0</asrwt>
<pdfrwt beam="2">  1        2 0.11011144E-01 0.39395220E+02</pdfrwt>
<pdfrwt beam="1">  1       -2 0.83400352E-03 0.39395220E+02</pdfrwt>
<totfact> 0.10041790E+06</totfact>
</mgrwt>
</event>
<event>
 4    1  0.3704929E-001  0.2875533E+02  0.7818608E-02  0.1612269E+00
         -2   -1    0    0    0  501 -0.00000000000E+00  0.00000000000E+00  0.79818749844E+02  0.79818749887E+02  0.26000000000E-02 0. -1.
          2   -1    0    0  501    0  0.00000000000E+00 -0.00000000000E+00 -0.25898326524E+01  0.25898339575E+01  0.26000000000E-02 0.  1.
        -13    1    1    2    0    0 -0.10637117030E+02  0.75117826700E+01  0.56077589764E+02  0.57569804445E+02  0.10570000000E+00 0. -1.
         13    1    1    2    0    0  0.10637117030E+02 -0.75117826700E+01  0.21151327428E+02  0.24838779399E+02  0.10570000000E+00 0.  1.
<mgrwt>
<rscale>  0 0.28755331E+02</rscale>
<asrwt>0</asrwt>
<pdfrwt beam="2">  1        2 0.39843589E-03 0.28755331E+02</pdfrwt>
<pdfrwt beam="1">  1       -2 0.12279808E-01 0.28755331E+02</pdfrwt>
<totfact> 0.13833565E+06</totfact>
</mgrwt>
</event>
<event>
 4    1  0.3704929E-001  0.1280213E+03  0.7818608E-02  0.1230422E+00
          2   -1    0    0  501    0  0.00000000000E+00  0.00000000000E+00  0.11338067641E+03  0.11338067644E+03  0.26000000000E-02 0. -1.
         -2   -1    0    0    0  501 -0.00000000000E+00 -0.00000000000E+00 -0.36138112765E+02  0.36138112858E+02  0.26000000000E-02 0.  1.
        -13    1    1    2    0    0 -0.26635540325E+02 -0.46574568087E+01 -0.29140377400E+02  0.39753197102E+02  0.10570000000E+00 0.  1.
         13    1    1    2    0    0  0.26635540325E+02  0.46574568087E+01  0.10638294105E+03  0.10976559220E+03  0.10570000000E+00 0. -1.
<mgrwt>
<rscale>  0 0.12802131E+03</rscale>
<asrwt>0</asrwt>
<pdfrwt beam="1">  1        2 0.17443181E-01 0.12802131E+03</pdfrwt>
<pdfrwt beam="2">  1       -2 0.55597097E-02 0.12802131E+03</pdfrwt>
<totfact> 0.49093267E+04</totfact>
</mgrwt>
</event>
<event>
 4    1  0.3704929E-001  0.2067876E+02  0.7818608E-02  0.1732158E+00
          2   -1    0    0  501    0  0.00000000000E+00  0.00000000000E+00  0.14214957658E+01  0.14214981435E+01  0.26000000000E-02 0. -1.
         -2   -1    0    0    0  501 -0.00000000000E+00 -0.00000000000E+00 -0.75204341583E+02  0.75204341628E+02  0.26000000000E-02 0.  1.
        -13    1    1    2    0    0 -0.89772427261E+01 -0.49913710029E+01 -0.32527533771E+02  0.34110941018E+02  0.10570000000E+00 0. -1.
         13    1    1    2    0    0  0.89772427261E+01  0.49913710029E+01 -0.41255312046E+02  0.42514898753E+02  0.10570000000E+00 0.  1.
<mgrwt>
<rscale>  0 0.20678757E+02</rscale>
<asrwt>0</asrwt>
<pdfrwt beam="1">  1        2 0.21869190E-03 0.20678757E+02</pdfrwt>
<pdfrwt beam="2">  1       -2 0.11569896E-01 0.20678757E+02</pdfrwt>
<totfact> 0.29416604E+06</totfact>
</mgrwt>
</event>
<event>
 4    1  0.3704929E-001  0.4158202E+02  0.7818608E-02  0.1496882E+00
          2   -1    0    0  501    0  0.00000000000E+00  0.00000000000E+00  0.68881200832E+01  0.68881205739E+01  0.26000000000E-02 0. -1.
         -2   -1    0    0    0  501 -0.00000000000E+00 -0.00000000000E+00 -0.62755318017E+02  0.62755318071E+02  0.26000000000E-02 0.  1.
        -13    1    1    2    0    0 -0.18343600770E+02  0.96652121823E+01 -0.25365565818E+02  0.32761671470E+02  0.10570000000E+00 0. -1.
         13    1    1    2    0    0  0.18343600770E+02 -0.96652121823E+01 -0.30501632116E+02  0.36881767175E+02  0.10570000000E+00 0.  1.
<mgrwt>
<rscale>  0 0.41582024E+02</rscale>
<asrwt>0</asrwt>
<pdfrwt beam="1">  1        2 0.10597109E-02 0.41582024E+02</pdfrwt>
<pdfrwt beam="2">  1       -2 0.96546640E-02 0.41582024E+02</pdfrwt>
<totfact> 0.60897947E+05</totfact>
</mgrwt>
</event>
<event>
 4    1  0.3704929E-001  0.2809263E+02  0.7818608E-02  0.1620182E+00
         -2   -1    0    0    0  501 -0.00000000000E+00  0.00000000000E+00  0.32016930259E+01  0.32016940816E+01  0.26000000000E-02 0. -1.
          2   -1    0    0  501    0  0.00000000000E+00 -0.00000000000E+00 -0.61623331713E+02  0.61623331768E+02  0.26000000000E-02 0.  1.
        -13    1    1    2    0    0 -0.16328876459E+01  0.12281633219E+02 -0.44479555112E+02  0.46173009779E+02  0.10570000000E+00 0.  1.
         13    1    1    2    0    0  0.16328876459E+01 -0.12281633219E+02 -0.13942083575E+02  0.18652016071E+02  0.10570000000E+00 0. -1.
<mgrwt>
<rscale>  0 0.28092634E+02</rscale>
<asrwt>0</asrwt>
<pdfrwt beam="2">  1        2 0.94805118E-02 0.28092634E+02</pdfrwt>
<pdfrwt beam="1">  1       -2 0.49256829E-03 0.28092634E+02</pdfrwt>
<totfact> 0.22022376E+06</totfact>
</mgrwt>
</event>
<event>
 4    1  0.3704929E-001  0.2995040E+02  0.7818608E-02  0.1598638E+00
          2   -1    0    0  501    0  0.00000000000E+00  0.00000000000E+00  0.57494088900E+02  0.57494088958E+02  0.26000000000E-02 0. -1.
         -2   -1    0    0    0  501 -0.00000000000E+00 -0.00000000000E+00 -0.39005144972E+01  0.39005153637E+01  0.26000000000E-02 0.  1.
        -13    1    1    2    0    0  0.88465042619E+01 -0.11861097605E+02  0.31515559989E+02  0.34816489886E+02  0.10570000000E+00 0. -1.
         13    1    1    2    0    0 -0.88465042619E+01  0.11861097605E+02  0.22078014413E+02  0.26578114436E+02  0.10570000000E+00 0.  1.
<mgrwt>
<rscale>  0 0.29950396E+02</rscale>
<asrwt>0</asrwt>
<pdfrwt beam="1">  1        2 0.88452443E-02 0.29950396E+02</pdfrwt>
<pdfrwt beam="2">  1       -2 0.60007924E-03 0.29950396E+02</pdfrwt>
<totfact> 0.18694329E+06</totfact>
</mgrwt>
</event>
<event>
 4    1  0.3704929E-001  0.2078327E+02  0.7818608E-02  0.1730186E+00
         -2   -1    0    0    0  501 -0.00000000000E+00  0.00000000000E+00  0.22168953046E+02  0.22168953198E+02  0.26000000000E-02 0.  1.
          2   -1    0    0  501    0  0.00000000000E+00 -0.00000000000E+00 -0.48710500289E+01  0.48710507228E+01  0.26000000000E-02 0. -1.
        -13    1    1    2    0    0 -0.10379980006E+02  0.36642103923E+00  0.90534682553E+01  0.13778777495E+02  0.10570000000E+00 0. -1.
         13    1    1    2    0    0  0.10379980006E+02 -0.36642103923E+00  0.82444347615E+01  0.13261226426E+02  0.10570000000E+00 0.  1.
<mgrwt>
<rscale>  0 0.20783271E+02</rscale>
<asrwt>0</asrwt>
<pdfrwt beam="2">  1        2 0.74939238E-03 0.20783271E+02</pdfrwt>
<pdfrwt beam="1">  1       -2 0.34106082E-02 0.20783271E+02</pdfrwt>
<totfact> 0.34123831E+06</totfact>
</mgrwt>
</event>
<event>
 4    1  0.3704929E-001  0.2803681E+02  0.7818608E-02  0.1620861E+00
         -2   -1    0    0    0  501 -0.00000000000E+00  0.00000000000E+00  0.69948896545E+02  0.69948896593E+02  0.26000000000E-02 0.  1.
          2   -1    0    0  501    0  0.00000000000E+00 -0.00000000000E+00 -0.28094165697E+01  0.28094177728E+01  0.26000000000E-02 0. -1.
        -13    1    1    2    0    0  0.51586129775E+01 -0.11218031502E+02  0.50793256550E+02  0.52272570265E+02  0.10570000000E+00 0.  1.
         13    1    1    2    0    0 -0.51586129775E+01  0.11218031502E+02  0.16346223424E+02  0.20485744101E+02  0.10570000000E+00 0. -1.
<mgrwt>
<rscale>  0 0.28036807E+02</rscale>
<asrwt>0</asrwt>
<pdfrwt beam="2">  1        2 0.43221804E-03 0.28036807E+02</pdfrwt>
<pdfrwt beam="1">  1       -2 0.10761368E-01 0.28036807E+02</pdfrwt>
<totfact> 0.15043874E+06</totfact>
</mgrwt>
</event>
<event>
 4    1  0.3704929E-001  0.2129938E+02  0.7818608E-02  0.1720658E+00
         -2   -1    0    0    0  501 -0.00000000000E+00  0.00000000000E+00  0.26166383826E+02  0.26166383955E+02  0.26000000000E-02 0.  1.
          2   -1    0    0  501    0  0.00000000000E+00 -0.00000000000E+00 -0.43344114413E+01  0.43344122211E+01  0.26000000000E-02 0. -1.
        -13    1    1    2    0    0  0.69294870255E+01 -0.72620595494E+01  0.58229183455E+01  0.11604863200E+02  0.10570000000E+00 0. -1.
         13    1    1    2    0    0 -0.69294870255E+01  0.72620595494E+01  0.16009054039E+02  0.18895932976E+02  0.10570000000E+00 0.  1.
<mgrwt>
<rscale>  0 0.21299379E+02</rscale>
<asrwt>0</asrwt>
<pdfrwt beam="2">  1        2 0.66683260E-03 0.21299379E+02</pdfrwt>
<pdfrwt beam="1">  1       -2 0.40255976E-02 0.21299379E+02</pdfrwt>
<totfact> 0.31846442E+06</totfact>
</mgrwt>
</event>
<event>
 4    1  0.3704929E-001  0.7028806E+02  0.7818608E-02  0.1359116E+00
         -2   -1    0    0    0  501 -0.00000000000E+00  0.00000000000E+00  0.41228098175E+01  0.41228106373E+01  0.26000000000E-02 0.  1.
          2   -1    0    0  501    0  0.00000000000E+00 -0.00000000000E+00 -0.29957790911E+03  0.29957790912E+03  0.26000000000E-02 0. -1.
        -13    1    1    2    0    0  0.34741036200E+02  0.52908862408E+01 -0.14944842766E+03  0.15352451523E+03  0.10570000000E+00 0. -1.
         13    1    1    2    0    0 -0.34741036200E+02 -0.52908862408E+01 -0.14600667163E+03  0.15017620453E+03  0.10570000000E+00 0.  1.
<mgrwt>
<rscale>  0 0.70288061E+02</rscale>
<asrwt>0</asrwt>
<pdfrwt beam="2">  1        2 0.46088892E-01 0.70288061E+02</pdfrwt>
<pdfrwt beam="1">  1       -2 0.63427873E-03 0.70288061E+02</pdfrwt>
<totfact> 0.35589674E+05</totfact>
</mgrwt>
</event>
<event>
 4    1  0.3704929E-001  0.2328973E+02  0.7818608E-02  0.1686856E+00
         -2   -1    0    0    0  501 -0.00000000000E+00  0.00000000000E+00  0.95248470225E+02  0.95248470260E+02  0.26000000000E-02 0. -1.
          2   -1    0    0  501    0  0.00000000000E+00 -0.00000000000E+00 -0.14236744312E+01  0.14236768053E+01  0.26000000000E-02 0.  1.
        -13    1    1    2    0    0  0.57358454614E+01  0.97273422541E+01  0.35120303107E+02  0.36891299426E+02  0.10570000000E+00 0.  1.
         13    1    1    2    0    0 -0.57358454614E+01 -0.97273422541E+01  0.58704492686E+02  0.59780847640E+02  0.10570000000E+00 0. -1.
<mgrwt>
<rscale>  0 0.23289734E+02</rscale>
<asrwt>0</asrwt>
<pdfrwt beam="2">  1        2 0.21902700E-03 0.23289734E+02</pdfrwt>
<pdfrwt beam="1">  1       -2 0.14653612E-01 0.23289734E+02</pdfrwt>
<totfact> 0.21485034E+06</totfact>
</mgrwt>
</event>
<event>
 4    1  0.3704929E-001  0.3947066E+02  0.7818608E-02  0.1512143E+00
          2   -1    0    0  501    0  0.00000000000E+00  0.00000000000E+00  0.99519565475E+01  0.99519568871E+01  0.26000000000E-02 0.  1.
         -2   -1    0    0    0  501 -0.00000000000E+00 -0.00000000000E+00 -0.39136349734E+02  0.39136349820E+02  0.26000000000E-02 0. -1.
        -13    1    1    2    0    0  0.13969277313E+02 -0.75033045408E+01  0.19250688946E-01  0.15857232759E+02  0.10570000000E+00 0.  1.
         13    1    1    2    0    0 -0.13969277313E+02  0.75033045408E+01 -0.29203643875E+02  0.33231073948E+02  0.10570000000E+00 0. -1.
<mgrwt>
<rscale>  0 0.39470661E+02</rscale>
<asrwt>0</asrwt>
<pdfrwt beam="1">  1        2 0.15310703E-02 0.39470661E+02</pdfrwt>
<pdfrwt beam="2">  1       -2 0.60209769E-02 0.39470661E+02</pdfrwt>
<totfact> 0.74351798E+05</totfact>
</mgrwt>
</event>
<event>
 4    1  0.3704929E-001  0.4171387E+02  0.7818608E-02  0.1495965E+00
          2   -1    0    0  501    0  0.00000000000E+00  0.00000000000E+00  0.21298209528E+01  0.21298225398E+01  0.26000000000E-02 0.  1.
         -2   -1    0    0    0  501 -0.00000000000E+00 -0.00000000000E+00 -0.20424791458E+03  0.20424791460E+03  0.26000000000E-02 0. -1.
        -13    1    1    2    0    0 -0.15723625188E+01  0.20736671460E+02 -0.10891073782E+03  0.11087850041E+03  0.10570000000E+00 0. -1.
         13    1    1    2    0    0  0.15723625188E+01 -0.20736671460E+02 -0.93207355806E+02  0.95499236730E+02  0.10570000000E+00 0.  1.
<mgrwt>
<rscale>  0 0.41713866E+02</rscale>
<asrwt>0</asrwt>
<pdfrwt beam="1">  1        2 0.32766505E-03 0.41713866E+02</pdfrwt>
<pdfrwt beam="2">  1       -2 0.31422741E-01 0.41713866E+02</pdfrwt>
<totfact> 0.43451515E+05</totfact>
</mgrwt>
</event>
<event>
 4    1  0.3704929E-001  0.5229264E+02  0.7818608E-02  0.1433354E+00
          2   -1    0    0  501    0  0.00000000000E+00  0.00000000000E+00  0.25029323812E+02  0.25029323947E+02  0.26000000000E-02 0. -1.
         -2   -1    0    0    0  501 -0.00000000000E+00 -0.00000000000E+00 -0.27313164713E+02  0.27313164836E+02  0.26000000000E-02 0.  1.
        -13    1    1    2    0    0  0.45691209563E+01  0.23365918870E+02 -0.11958509099E+02  0.26643200696E+02  0.10570000000E+00 0.  1.
         13    1    1    2    0    0 -0.45691209563E+01 -0.23365918870E+02  0.96746681987E+01  0.25699288087E+02  0.10570000000E+00 0. -1.
<mgrwt>
<rscale>  0 0.52292640E+02</rscale>
<asrwt>0</asrwt>
<pdfrwt beam="1">  1        2 0.38506652E-02 0.52292640E+02</pdfrwt>
<pdfrwt beam="2">  1       -2 0.42020254E-02 0.52292640E+02</pdfrwt>
<totfact> 0.40505445E+05</totfact>
</mgrwt>
</event>
<event>
 4    1  0.3704929E-001  0.2584841E+02  0.7818608E-02  0.1649107E+00
          2   -1    0    0  501    0  0.00000000000E+00  0.00000000000E+00  0.22044409541E+01  0.22044424874E+01  0.26000000000E-02 0. -1.
         -2   -1    0    0    0  501 -0.00000000000E+00 -0.00000000000E+00 -0.75772043493E+02  0.75772043538E+02  0.26000000000E-02 0.  1.
        -13    1    1    2    0    0 -0.12533703203E+02 -0.50098756670E+00 -0.27398480067E+02  0.30133579060E+02  0.10570000000E+00 0. -1.
         13    1    1    2    0    0  0.12533703203E+02  0.50098756670E+00 -0.46169122472E+02  0.47842906965E+02  0.10570000000E+00 0.  1.
<mgrwt>
<rscale>  0 0.25848409E+02</rscale>
<asrwt>0</asrwt>
<pdfrwt beam="1">  1        2 0.33914494E-03 0.25848409E+02</pdfrwt>
<pdfrwt beam="2">  1       -2 0.11657236E-01 0.25848409E+02</pdfrwt>
<totfact> 0.17837888E+06</totfact>
</mgrwt>
</event>
<event>
 4    1  0.3704929E-001  0.2300718E+02  0.7818608E-02  0.1691394E+00
          2   -1    0    0  501    0  0.00000000000E+00  0.00000000000E+00  0.84357293567E+02  0.84357293607E+02  0.26000000000E-02 0. -1.
         -2   -1    0    0    0  501 -0.00000000000E+00 -0.00000000000E+00 -0.15687136568E+01  0.15687158114E+01  0.26000000000E-02 0.  1.
        -13    1    1    2    0    0  0.11315010868E+02 -0.20715470526E+01  0.41304180346E+02  0.42876185286E+02  0.10570000000E+00 0. -1.
         13    1    1    2    0    0 -0.11315010868E+02  0.20715470526E+01  0.41484399565E+02  0.43049824133E+02  0.10570000000E+00 0.  1.
<mgrwt>
<rscale>  0 0.23007176E+02</rscale>
<asrwt>0</asrwt>
<pdfrwt beam="1">  1        2 0.12978045E-01 0.23007176E+02</pdfrwt>
<pdfrwt beam="2">  1       -2 0.24134074E-03 0.23007176E+02</pdfrwt>
<totfact> 0.37154028E+06</totfact>
</mgrwt>
</event>
<event>
 4    1  0.3704929E-001  0.2040367E+02  0.7818608E-02  0.1737418E+00
         -2   -1    0    0    0  501 -0.00000000000E+00  0.00000000000E+00  0.19517150675E+01  0.19517167993E+01  0.26000000000E-02 0.  1.
          2   -1    0    0  501    0  0.00000000000E+00 -0.00000000000E+00 -0.53326129881E+02  0.53326129945E+02  0.26000000000E-02 0. -1.
        -13    1    1    2    0    0  0.70584318809E+01 -0.72454875031E+01 -0.29268839792E+02  0.30967639642E+02  0.10570000000E+00 0.  1.
         13    1    1    2    0    0 -0.70584318809E+01  0.72454875031E+01 -0.22105575022E+02  0.24310207102E+02  0.10570000000E+00 0. -1.
<mgrwt>
<rscale>  0 0.20403672E+02</rscale>
<asrwt>0</asrwt>
<pdfrwt beam="2">  1        2 0.82040190E-02 0.20403672E+02</pdfrwt>
<pdfrwt beam="1">  1       -2 0.30026404E-03 0.20403672E+02</pdfrwt>
<totfact> 0.44750167E+06</totfact>
</mgrwt>
</event>
<event>
 4    1  0.3704929E-001  0.2681054E+02  0.7818608E-02  0.1636280E+00
         -2   -1    0    0    0  501 -0.00000000000E+00  0.00000000000E+00  0.60995782193E+01  0.60995787735E+01  0.26000000000E-02 0.  1.
          2   -1    0    0  501    0  0.00000000000E+00 -0.00000000000E+00 -0.29461260706E+02  0.29461260821E+02  0.26000000000E-02 0. -1.
        -13    1    1    2    0    0 -0.10462789571E+02 -0.12728432532E+01 -0.69512156283E+00  0.10563354677E+02  0.10570000000E+00 0.  1.
         13    1    1    2    0    0  0.10462789571E+02  0.12728432532E+01 -0.22666560924E+02  0.24997484917E+02  0.10570000000E+00 0. -1.
<mgrwt>
<rscale>  0 0.26810541E+02</rscale>
<asrwt>0</asrwt>
<pdfrwt beam="2">  1        2 0.45325016E-02 0.26810541E+02</pdfrwt>
<pdfrwt beam="1">  1       -2 0.93839672E-03 0.26810541E+02</pdfrwt>
<totfact> 0.22044020E+06</totfact>
</mgrwt>
</event>
<event>
 4    1  0.3704929E-001  0.2643983E+02  0.7818608E-02  0.1641143E+00
          2   -1    0    0  501    0  0.00000000000E+00  0.00000000000E+00  0.67811905595E+02  0.67811905644E+02  0.26000000000E-02 0.  1.
         -2   -1    0    0    0  501 -0.00000000000E+00 -0.00000000000E+00 -0.25772178751E+01  0.25772191866E+01  0.26000000000E-02 0. -1.
        -13    1    1    2    0    0 -0.68869924144E+01 -0.74174142482E+01  0.99795118008E+01  0.14214447823E+02  0.10570000000E+00 0. -1.
         13    1    1    2    0    0  0.68869924144E+01  0.74174142482E+01  0.55255175919E+02  0.56174677008E+02  0.10570000000E+00 0.  1.
<mgrwt>
<rscale>  0 0.26439826E+02</rscale>
<asrwt>0</asrwt>
<pdfrwt beam="1">  1        2 0.10432601E-01 0.26439826E+02</pdfrwt>
<pdfrwt beam="2">  1       -2 0.39649515E-03 0.26439826E+02</pdfrwt>
<totfact> 0.25835249E+06</totfact>
</mgrwt>
</event>
<event>
 4    1  0.3704929E-001  0.2237843E+03  0.7818608E-02  0.1131093E+00
          2   -1    0    0  501    0  0.00000000000E+00  0.00000000000E+00  0.65115905139E+03  0.65115905139E+03  0.26000000000E-02 0. -1.
         -2   -1    0    0    0  501 -0.00000000000E+00 -0.00000000000E+00 -0.19227029479E+02  0.19227029655E+02  0.26000000000E-02 0.  1.
        -13    1    1    2    0    0 -0.71411715461E+02  0.53685347561E+02  0.11416093975E+03  0.14496372300E+03  0.10570000000E+00 0.  1.
         13    1    1    2    0    0  0.71411715461E+02 -0.53685347561E+02  0.51777108216E+03  0.52542235805E+03  0.10570000000E+00 0. -1.
<mgrwt>
<rscale>  0 0.22378431E+03</rscale>
<asrwt>0</asrwt>
<pdfrwt beam="1">  1        2 0.10017831E+00 0.22378431E+03</pdfrwt>
<pdfrwt beam="2">  1       -2 0.29580047E-02 0.22378431E+03</pdfrwt>
<totfact> 0.19446154E+04</totfact>
</mgrwt>
</event>
<event>
 4    1  0.3704929E-001  0.2833900E+02  0.7818608E-02  0.1617209E+00
         -2   -1    0    0    0  501 -0.00000000000E+00  0.00000000000E+00  0.22984297140E+02  0.22984297287E+02  0.26000000000E-02 0.  1.
          2   -1    0    0  501    0  0.00000000000E+00 -0.00000000000E+00 -0.87353000020E+01  0.87353003889E+01  0.26000000000E-02 0. -1.
        -13    1    1    2    0    0  0.98504118724E+01 -0.58561491027E+01  0.16451525101E+02  0.20049662017E+02  0.10570000000E+00 0.  1.
         13    1    1    2    0    0 -0.98504118724E+01  0.58561491027E+01 -0.22025279627E+01  0.11669935659E+02  0.10570000000E+00 0. -1.
<mgrwt>
<rscale>  0 0.28339001E+02</rscale>
<asrwt>0</asrwt>
<pdfrwt beam="2">  1        2 0.13438924E-02 0.28339001E+02</pdfrwt>
<pdfrwt beam="1">  1       -2 0.35360457E-02 0.28339001E+02</pdfrwt>
<totfact> 0.17047676E+06</totfact>
</mgrwt>
</event>
<event>
 4    1  0.3704929E-001  0.4537291E+02  0.7818608E-02  0.1472027E+00
          2   -1    0    0  501    0  0.00000000000E+00  0.00000000000E+00  0.12916529034E+03  0.12916529037E+03  0.26000000000E-02 0.  1.
         -2   -1    0    0    0  501 -0.00000000000E+00 -0.00000000000E+00 -0.39846252189E+01  0.39846260671E+01  0.26000000000E-02 0. -1.
        -13    1    1    2    0    0  0.30935879232E+01 -0.21886042672E+02  0.77581068397E+02  0.80668472752E+02  0.10570000000E+00 0.  1.
         13    1    1    2    0    0 -0.30935879232E+01  0.21886042672E+02  0.47599596726E+02  0.52481443683E+02  0.10570000000E+00 0. -1.
<mgrwt>
<rscale>  0 0.45372914E+02</rscale>
<asrwt>0</asrwt>
<pdfrwt beam="1">  1        2 0.19871582E-01 0.45372914E+02</pdfrwt>
<pdfrwt beam="2">  1       -2 0.61301936E-03 0.45372914E+02</pdfrwt>
<totfact> 0.81925380E+05</totfact>
</mgrwt>
</event>
<event>
 4    1  0.3704929E-001  0.2336959E+02  0.7818608E-02  0.1685588E+00
         -2   -1    0    0    0  501 -0.00000000000E+00  0.00000000000E+00  0.10641254102E+03  0.10641254105E+03  0.26000000000E-02 0.  1.
          2   -1    0    0  501    0  0.00000000000E+00 -0.00000000000E+00 -0.12830662040E+01  0.12830688383E+01  0.26000000000E-02 0. -1.
        -13    1    1    2    0    0 -0.44528048288E+01  0.10636683624E+02  0.61255869729E+02  0.62331847864E+02  0.10570000000E+00 0.  1.
         13    1    1    2    0    0  0.44528048288E+01 -0.10636683624E+02  0.43873605088E+02  0.45363762028E+02  0.10570000000E+00 0. -1.
<mgrwt>
<rscale>  0 0.23369594E+02</rscale>
<asrwt>0</asrwt>
<pdfrwt beam="2">  1        2 0.19739494E-03 0.23369594E+02</pdfrwt>
<pdfrwt beam="1">  1       -2 0.16371166E-01 0.23369594E+02</pdfrwt>
<totfact> 0.20751693E+06</totfact>
</mgrwt>
</event>
<event>
 4    1  0.3704929E-001  0.3838451E+02  0.7818608E-02  0.1520448E+00
         -2   -1    0    0    0  501 -0.00000000000E+00  0.00000000000E+00  0.35629458809E+01  0.35629468295E+01  0.26000000000E-02 0. -1.
          2   -1    0    0  501    0  0.00000000000E+00 -0.00000000000E+00 -0.10338147815E+03  0.10338147819E+03  0.26000000000E-02 0.  1.
        -13    1    1    2    0    0 -0.11199135734E+02  0.11953788435E+02 -0.22045438536E+02  0.27465000125E+02  0.10570000000E+00 0. -1.
         13    1    1    2    0    0  0.11199135734E+02 -0.11953788435E+02 -0.77773093738E+02  0.79479424892E+02  0.10570000000E+00 0.  1.
<mgrwt>
<rscale>  0 0.38384511E+02</rscale>
<asrwt>0</asrwt>
<pdfrwt beam="2">  1        2 0.15904841E-01 0.38384511E+02</pdfrwt>
<pdfrwt beam="1">  1       -2 0.54814567E-03 0.38384511E+02</pdfrwt>
<totfact> 0.11655985E+06</totfact>
</mgrwt>
</event>
<event>
 4    1  0.3704929E-001  0.3197943E+02  0.7818608E-02  0.1577186E+00
         -2   -1    0    0    0  501 -0.00000000000E+00  0.00000000000E+00  0.27022123956E+02  0.27022124081E+02  0.26000000000E-02 0. -1.
          2   -1    0    0  501    0  0.00000000000E+00 -0.00000000000E+00 -0.94615447079E+01  0.94615450651E+01  0.26000000000E-02 0.  1.
        -13    1    1    2    0    0  0.13329886508E+02  0.20177496882E+01 -0.10271996494E+01  0.13521224047E+02  0.10570000000E+00 0.  1.
         13    1    1    2    0    0 -0.13329886508E+02 -0.20177496882E+01  0.18587778898E+02  0.22962445100E+02  0.10570000000E+00 0. -1.
<mgrwt>
<rscale>  0 0.31979434E+02</rscale>
<asrwt>0</asrwt>
<pdfrwt beam="2">  1        2 0.14556223E-02 0.31979434E+02</pdfrwt>
<pdfrwt beam="1">  1       -2 0.41572499E-02 0.31979434E+02</pdfrwt>
<totfact> 0.12716976E+06</totfact>
</mgrwt>
</event>
<event>
 4    1  0.3704929E-001  0.7465636E+02  0.7818608E-02  0.1344938E+00
          2   -1    0    0  501    0  0.00000000000E+00  0.00000000000E+00  0.24811713632E+02  0.24811713769E+02  0.26000000000E-02 0. -1.
         -2   -1    0    0    0  501 -0.00000000000E+00 -0.00000000000E+00 -0.56158671123E+02  0.56158671184E+02  0.26000000000E-02 0.  1.
        -13    1    1    2    0    0 -0.30729354218E+02  0.19334411240E+02 -0.62639562869E+01  0.36842380346E+02  0.10570000000E+00 0. -1.
         13    1    1    2    0    0  0.30729354218E+02 -0.19334411240E+02 -0.25083001204E+02  0.44128004607E+02  0.10570000000E+00 0.  1.
<mgrwt>
<rscale>  0 0.74656356E+02</rscale>
<asrwt>0</asrwt>
<pdfrwt beam="1">  1        2 0.38171867E-02 0.74656356E+02</pdfrwt>
<pdfrwt beam="2">  1       -2 0.86397956E-02 0.74656356E+02</pdfrwt>
<totfact> 0.15133340E+05</totfact>
</mgrwt>
</event>
<event>
 4    1  0.3704929E-001  0.2674857E+02  0.7818608E-02  0.1637086E+00
         -2   -1    0    0    0  501 -0.00000000000E+00  0.00000000000E+00  0.24540809301E+01  0.24540823074E+01  0.26000000000E-02 0.  1.
          2   -1    0    0  501    0  0.00000000000E+00 -0.00000000000E+00 -0.72887360940E+02  0.72887360986E+02  0.26000000000E-02 0. -1.
        -13    1    1    2    0    0 -0.11021808045E+01  0.13278760075E+02 -0.38452840504E+02  0.40696097933E+02  0.10570000000E+00 0. -1.
         13    1    1    2    0    0  0.11021808045E+01 -0.13278760075E+02 -0.31980439506E+02  0.34645345360E+02  0.10570000000E+00 0.  1.
<mgrwt>
<rscale>  0 0.26748573E+02</rscale>
<asrwt>0</asrwt>
<pdfrwt beam="2">  1        2 0.11213439E-01 0.26748573E+02</pdfrwt>
<pdfrwt beam="1">  1       -2 0.37755108E-03 0.26748573E+02</pdfrwt>
<totfact> 0.25503427E+06</totfact>
</mgrwt>
</event>
<event>
 4    1  0.3704929E-001  0.6267104E+02  0.7818608E-02  0.1386953E+00
         -2   -1    0    0    0  501 -0.00000000000E+00  0.00000000000E+00  0.52663413693E+02  0.52663413757E+02  0.26000000000E-02 0. -1.
          2   -1    0    0  501    0  0.00000000000E+00 -0.00000000000E+00 -0.18645105688E+02  0.18645105869E+02  0.26000000000E-02 0.  1.
        -13    1    1    2    0    0  0.21804842307E+02 -0.50289088417E+01 -0.79494598261E+01  0.23747550530E+02  0.10570000000E+00 0.  1.
         13    1    1    2    0    0 -0.21804842307E+02  0.50289088417E+01  0.41967767831E+02  0.47560969096E+02  0.10570000000E+00 0. -1.
<mgrwt>
<rscale>  0 0.62671043E+02</rscale>
<asrwt>0</asrwt>
<pdfrwt beam="2">  1        2 0.28684778E-02 0.62671043E+02</pdfrwt>
<pdfrwt beam="1">  1       -2 0.81020637E-02 0.62671043E+02</pdfrwt>
<totfact> 0.23429587E+05</totfact>
</mgrwt>
</event>
<event>
 4    1  0.3704929E-001  0.2390417E+02  0.7818608E-02  0.1677259E+00
          2   -1    0    0  501    0  0.00000000000E+00  0.00000000000E+00  0.25685348487E+02  0.25685348619E+02  0.26000000000E-02 0.  1.
         -2   -1    0    0    0  501 -0.00000000000E+00 -0.00000000000E+00 -0.55616276989E+01  0.55616283067E+01  0.26000000000E-02 0. -1.
        -13    1    1    2    0    0  0.41546792339E+01  0.10357693690E+02  0.44702591217E+01  0.12022377769E+02  0.10570000000E+00 0. -1.
         13    1    1    2    0    0 -0.41546792339E+01 -0.10357693690E+02  0.15653461667E+02  0.19224599157E+02  0.10570000000E+00 0.  1.
<mgrwt>
<rscale>  0 0.23904172E+02</rscale>
<asrwt>0</asrwt>
<pdfrwt beam="1">  1        2 0.39515921E-02 0.23904172E+02</pdfrwt>
<pdfrwt beam="2">  1       -2 0.85563510E-03 0.23904172E+02</pdfrwt>
<totfact> 0.28395081E+06</totfact>
</mgrwt>
</event>
<event>
 4    1  0.3704929E-001  0.2509206E+02  0.7818608E-02  0.1659683E+00
         -2   -1    0    0    0  501 -0.00000000000E+00  0.00000000000E+00  0.13632882621E+02  0.13632882869E+02  0.26000000000E-02 0.  1.
          2   -1    0    0  501    0  0.00000000000E+00 -0.00000000000E+00 -0.11545824734E+02  0.11545825027E+02  0.26000000000E-02 0. -1.
        -13    1    1    2    0    0 -0.75154155097E+01  0.99200459207E+01  0.26310560163E+01  0.12720943739E+02  0.10570000000E+00 0.  1.
         13    1    1    2    0    0  0.75154155097E+01 -0.99200459207E+01 -0.54399812891E+00  0.12457764158E+02  0.10570000000E+00 0. -1.
<mgrwt>
<rscale>  0 0.25092061E+02</rscale>
<asrwt>0</asrwt>
<pdfrwt beam="2">  1        2 0.17762808E-02 0.25092061E+02</pdfrwt>
<pdfrwt beam="1">  1       -2 0.20973666E-02 0.25092061E+02</pdfrwt>
<totfact> 0.23507841E+06</totfact>
</mgrwt>
</event>
<event>
 4    1  0.3704929E-001  0.3070394E+02  0.7818608E-02  0.1590435E+00
         -2   -1    0    0    0  501 -0.00000000000E+00  0.00000000000E+00  0.74355797188E+02  0.74355797233E+02  0.26000000000E-02 0.  1.
          2   -1    0    0  501    0  0.00000000000E+00 -0.00000000000E+00 -0.31696652484E+01  0.31696663148E+01  0.26000000000E-02 0. -1.
        -13    1    1    2    0    0 -0.31779487795E+01  0.13867117503E+02  0.50158145013E+02  0.52136810316E+02  0.10570000000E+00 0.  1.
         13    1    1    2    0    0  0.31779487795E+01 -0.13867117503E+02  0.21027986926E+02  0.25388653232E+02  0.10570000000E+00 0. -1.
<mgrwt>
<rscale>  0 0.30703943E+02</rscale>
<asrwt>0</asrwt>
<pdfrwt beam="2">  1        2 0.48764094E-03 0.30703943E+02</pdfrwt>
<pdfrwt beam="1">  1       -2 0.11439352E-01 0.30703943E+02</pdfrwt>
<totfact> 0.12055849E+06</totfact>
</mgrwt>
</event>
<event>
 4    1  0.3704929E-001  0.5238181E+02  0.7818608E-02  0.1432902E+00
          2   -1    0    0  501    0  0.00000000000E+00  0.00000000000E+00  0.20673584914E+03  0.20673584915E+03  0.26000000000E-02 0. -1.
         -2   -1    0    0    0  501 -0.00000000000E+00 -0.00000000000E+00 -0.33180672432E+01  0.33180682619E+01  0.26000000000E-02 0.  1.
        -13    1    1    2    0    0  0.62630910721E+01 -0.25024077511E+02  0.11987475628E+03  0.12261891832E+03  0.10570000000E+00 0. -1.
         13    1    1    2    0    0 -0.62630910721E+01  0.25024077511E+02  0.83543025614E+02  0.87434999093E+02  0.10570000000E+00 0.  1.
<mgrwt>
<rscale>  0 0.52381812E+02</rscale>
<asrwt>0</asrwt>
<pdfrwt beam="1">  1        2 0.31805523E-01 0.52381812E+02</pdfrwt>
<pdfrwt beam="2">  1       -2 0.51047183E-03 0.52381812E+02</pdfrwt>
<totfact> 0.66232010E+05</totfact>
</mgrwt>
</event>
<event>
 4    1  0.3704929E-001  0.2979481E+02  0.7818608E-02  0.1600368E+00
         -2   -1    0    0    0  501 -0.00000000000E+00  0.00000000000E+00  0.10387488789E+03  0.10387488792E+03  0.26000000000E-02 0.  1.
          2   -1    0    0  501    0  0.00000000000E+00 -0.00000000000E+00 -0.21365375907E+01  0.21365391727E+01  0.26000000000E-02 0. -1.
        -13    1    1    2    0    0  0.12637661163E+02 -0.40239174063E+01  0.75006060407E+02  0.76169696476E+02  0.10570000000E+00 0.  1.
         13    1    1    2    0    0 -0.12637661163E+02  0.40239174063E+01  0.26732289889E+02  0.29841730616E+02  0.10570000000E+00 0. -1.
<mgrwt>
<rscale>  0 0.29794811E+02</rscale>
<asrwt>0</asrwt>
<pdfrwt beam="2">  1        2 0.32869827E-03 0.29794811E+02</pdfrwt>
<pdfrwt beam="1">  1       -2 0.15980750E-01 0.29794811E+02</pdfrwt>
<totfact> 0.12007237E+06</totfact>
</mgrwt>
</event>
<event>
 4    1  0.3704929E-001  0.4860378E+02  0.7818608E-02  0.1453021E+00
         -2   -1    0    0    0  501 -0.00000000000E+00  0.00000000000E+00  0.58749050105E+02  0.58749050162E+02  0.26000000000E-02 0.  1.
          2   -1    0    0  501    0  0.00000000000E+00 -0.00000000000E+00 -0.10052618917E+02  0.10052619253E+02  0.26000000000E-02 0. -1.
        -13    1    1    2    0    0  0.21639386441E+02  0.76272749536E+01  0.13012020867E+02  0.26377305174E+02  0.10570000000E+00 0. -1.
         13    1    1    2    0    0 -0.21639386441E+02 -0.76272749536E+01  0.35684410322E+02  0.42424364241E+02  0.10570000000E+00 0.  1.
<mgrwt>
<rscale>  0 0.48603779E+02</rscale>
<asrwt>0</asrwt>
<pdfrwt beam="2">  1        2 0.15465568E-02 0.48603779E+02</pdfrwt>
<pdfrwt beam="1">  1       -2 0.90383155E-02 0.48603779E+02</pdfrwt>
<totfact> 0.42395923E+05</totfact>
</mgrwt>
</event>
<event>
 4    1  0.3704929E-001  0.3634019E+02  0.7818608E-02  0.1537011E+00
         -2   -1    0    0    0  501 -0.00000000000E+00  0.00000000000E+00  0.73988152890E+02  0.73988152935E+02  0.26000000000E-02 0.  1.
          2   -1    0    0  501    0  0.00000000000E+00 -0.00000000000E+00 -0.44622326506E+01  0.44622334080E+01  0.26000000000E-02 0. -1.
        -13    1    1    2    0    0  0.17842040911E+02  0.20748931662E+01  0.28851848599E+02  0.33986525942E+02  0.10570000000E+00 0. -1.
         13    1    1    2    0    0 -0.17842040911E+02 -0.20748931662E+01  0.40674071641E+02  0.44463860402E+02  0.10570000000E+00 0.  1.
<mgrwt>
<rscale>  0 0.36340192E+02</rscale>
<asrwt>0</asrwt>
<pdfrwt beam="2">  1        2 0.68649742E-03 0.36340192E+02</pdfrwt>
<pdfrwt beam="1">  1       -2 0.11382792E-01 0.36340192E+02</pdfrwt>
<totfact> 0.81301668E+05</totfact>
</mgrwt>
</event>
<event>
 4    1  0.3704929E-001  0.5959767E+02  0.7818608E-02  0.1399528E+00
         -2   -1    0    0    0  501 -0.00000000000E+00  0.00000000000E+00  0.57453613049E+01  0.57453618932E+01  0.26000000000E-02 0.  1.
          2   -1    0    0  501    0  0.00000000000E+00 -0.00000000000E+00 -0.15455433658E+03  0.15455433660E+03  0.26000000000E-02 0. -1.
        -13    1    1    2    0    0 -0.24029988907E+02  0.12398984534E+02 -0.40725845697E+02  0.48885384979E+02  0.10570000000E+00 0. -1.
         13    1    1    2    0    0  0.24029988907E+02 -0.12398984534E+02 -0.10808312958E+03  0.11141431351E+03  0.10570000000E+00 0.  1.
<mgrwt>
<rscale>  0 0.59597670E+02</rscale>
<asrwt>0</asrwt>
<pdfrwt beam="2">  1        2 0.23777587E-01 0.59597670E+02</pdfrwt>
<pdfrwt beam="1">  1       -2 0.88390190E-03 0.59597670E+02</pdfrwt>
<totfact> 0.43377215E+05</totfact>
</mgrwt>
</event>
<event>
 4    1  0.3704929E-001  0.2198184E+02  0.7818608E-02  0.1708566E+00
          2   -1    0    0  501    0  0.00000000000E+00  0.00000000000E+00  0.44301004302E+02  0.44301004379E+02  0.26000000000E-02 0.  1.
         -2   -1    0    0    0  501 -0.00000000000E+00 -0.00000000000E+00 -0.27268062588E+01  0.27268074984E+01  0.26000000000E-02 0. -1.
        -13    1    1    2    0    0 -0.10764062012E+02 -0.13782607176E+01  0.17066471460E+02  0.20224743612E+02  0.10570000000E+00 0. -1.
         13    1    1    2    0    0  0.10764062012E+02  0.13782607176E+01  0.24507726584E+02  0.26803068265E+02  0.10570000000E+00 0.  1.
<mgrwt>
<rscale>  0 0.21981837E+02</rscale>
<asrwt>0</asrwt>
<pdfrwt beam="1">  1        2 0.68155391E-02 0.21981837E+02</pdfrwt>
<pdfrwt beam="2">  1       -2 0.41950877E-03 0.21981837E+02</pdfrwt>
<totfact> 0.36798314E+06</totfact>
</mgrwt>
</event>
<event>
 4    1  0.3704929E-001  0.4206450E+02  0.7818608E-02  0.1493546E+00
          2   -1    0    0  501    0  0.00000000000E+00  0.00000000000E+00  0.12650045107E+02  0.12650045374E+02  0.26000000000E-02 0.  1.
         -2   -1    0    0    0  501 -0.00000000000E+00 -0.00000000000E+00 -0.34968690952E+02  0.34968691048E+02  0.26000000000E-02 0. -1.
        -13    1    1    2    0    0 -0.20605689918E+02 -0.40702798903E+01 -0.12390449946E+02  0.24386390831E+02  0.10570000000E+00 0.  1.
         13    1    1    2    0    0  0.20605689918E+02  0.40702798903E+01 -0.99281958986E+01  0.23232345591E+02  0.10570000000E+00 0. -1.
<mgrwt>
<rscale>  0 0.42064499E+02</rscale>
<asrwt>0</asrwt>
<pdfrwt beam="1">  1        2 0.19461608E-02 0.42064499E+02</pdfrwt>
<pdfrwt beam="2">  1       -2 0.53797986E-02 0.42064499E+02</pdfrwt>
<totfact> 0.65053118E+05</totfact>
</mgrwt>
</event>
<event>
 4    1  0.3704929E-001  0.2185531E+02  0.7818608E-02  0.1710766E+00
          2   -1    0    0  501    0  0.00000000000E+00  0.00000000000E+00  0.29809913459E+01  0.29809924797E+01  0.26000000000E-02 0. -1.
         -2   -1    0    0    0  501 -0.00000000000E+00 -0.00000000000E+00 -0.40058343460E+02  0.40058343544E+02  0.26000000000E-02 0.  1.
        -13    1    1    2    0    0  0.66167907122E+01  0.86710158406E+01 -0.17241346036E+02  0.20402049423E+02  0.10570000000E+00 0. -1.
         13    1    1    2    0    0 -0.66167907122E+01 -0.86710158406E+01 -0.19836006078E+02  0.22637286601E+02  0.10570000000E+00 0.  1.
<mgrwt>
<rscale>  0 0.21855306E+02</rscale>
<asrwt>0</asrwt>
<pdfrwt beam="1">  1        2 0.45861418E-03 0.21855306E+02</pdfrwt>
<pdfrwt beam="2">  1       -2 0.61628218E-02 0.21855306E+02</pdfrwt>
<totfact> 0.28722395E+06</totfact>
</mgrwt>
</event>
<event>
 4    1  0.3704929E-001  0.2556379E+02  0.7818608E-02  0.1653034E+00
          2   -1    0    0  501    0  0.00000000000E+00  0.00000000000E+00  0.21366274698E+01  0.21366290517E+01  0.26000000000E-02 0.  1.
         -2   -1    0    0    0  501 -0.00000000000E+00 -0.00000000000E+00 -0.76464787717E+02  0.76464787761E+02  0.26000000000E-02 0. -1.
        -13    1    1    2    0    0 -0.10047993725E+02 -0.58974965487E+01 -0.53324054853E+02  0.54582127495E+02  0.10570000000E+00 0. -1.
         13    1    1    2    0    0  0.10047993725E+02  0.58974965487E+01 -0.21004105394E+02  0.24019289318E+02  0.10570000000E+00 0.  1.
<mgrwt>
<rscale>  0 0.25563789E+02</rscale>
<asrwt>0</asrwt>
<pdfrwt beam="1">  1        2 0.32871210E-03 0.25563789E+02</pdfrwt>
<pdfrwt beam="2">  1       -2 0.11763812E-01 0.25563789E+02</pdfrwt>
<totfact> 0.18259375E+06</totfact>
</mgrwt>
</event>
<event>
 4    1  0.3704929E-001  0.4566630E+02  0.7818608E-02  0.1470224E+00
          2   -1    0    0  501    0  0.00000000000E+00  0.00000000000E+00  0.31110159437E+01  0.31110170301E+01  0.26000000000E-02 0.  1.
         -2   -1    0    0    0  501 -0.00000000000E+00 -0.00000000000E+00 -0.16758278597E+03  0.16758278599E+03  0.26000000000E-02 0. -1.
        -13    1    1    2    0    0  0.18493958671E+02 -0.13073206314E+02 -0.71398432912E+02  0.74904490022E+02  0.10570000000E+00 0.  1.
         13    1    1    2    0    0 -0.18493958671E+02  0.13073206314E+02 -0.93073337113E+02  0.95789312997E+02  0.10570000000E+00 0. -1.
<mgrwt>
<rscale>  0 0.45666303E+02</rscale>
<asrwt>0</asrwt>
<pdfrwt beam="1">  1        2 0.47861805E-03 0.45666303E+02</pdfrwt>
<pdfrwt beam="2">  1       -2 0.25781960E-01 0.45666303E+02</pdfrwt>
<totfact> 0.37674550E+05</totfact>
</mgrwt>
</event>
<event>
 4    1  0.3704929E-001  0.2087444E+02  0.7818608E-02  0.1728478E+00
         -2   -1    0    0    0  501 -0.00000000000E+00  0.00000000000E+00  0.19228228009E+01  0.19228245587E+01  0.26000000000E-02 0. -1.
          2   -1    0    0  501    0  0.00000000000E+00 -0.00000000000E+00 -0.56653967621E+02  0.56653967681E+02  0.26000000000E-02 0.  1.
        -13    1    1    2    0    0 -0.10229816000E+02  0.13941024515E+01 -0.31650594073E+02  0.33292100184E+02  0.10570000000E+00 0. -1.
         13    1    1    2    0    0  0.10229816000E+02 -0.13941024515E+01 -0.23080550747E+02  0.25284692055E+02  0.10570000000E+00 0.  1.
<mgrwt>
<rscale>  0 0.20874443E+02</rscale>
<asrwt>0</asrwt>
<pdfrwt beam="2">  1        2 0.87159939E-02 0.20874443E+02</pdfrwt>
<pdfrwt beam="1">  1       -2 0.29581908E-03 0.20874443E+02</pdfrwt>
<totfact> 0.42938434E+06</totfact>
</mgrwt>
</event>
<event>
 4    1  0.3704929E-001  0.2766627E+02  0.7818608E-02  0.1625417E+00
         -2   -1    0    0    0  501 -0.00000000000E+00  0.00000000000E+00  0.26969324351E+01  0.26969336884E+01  0.26000000000E-02 0. -1.
          2   -1    0    0  501    0  0.00000000000E+00 -0.00000000000E+00 -0.70953070453E+02  0.70953070501E+02  0.26000000000E-02 0.  1.
        -13    1    1    2    0    0  0.46961217519E+01  0.12026898876E+02 -0.20912572650E+02  0.24577362011E+02  0.10570000000E+00 0. -1.
         13    1    1    2    0    0 -0.46961217519E+01 -0.12026898876E+02 -0.47343565368E+02  0.49072642178E+02  0.10570000000E+00 0.  1.
<mgrwt>
<rscale>  0 0.27666274E+02</rscale>
<asrwt>0</asrwt>
<pdfrwt beam="2">  1        2 0.10915856E-01 0.27666274E+02</pdfrwt>
<pdfrwt beam="1">  1       -2 0.41491284E-03 0.27666274E+02</pdfrwt>
<totfact> 0.23446523E+06</totfact>
</mgrwt>
</event>
<event>
 4    1  0.3704929E-001  0.3855602E+02  0.7818608E-02  0.1519115E+00
         -2   -1    0    0    0  501 -0.00000000000E+00  0.00000000000E+00  0.67965147192E+02  0.67965147242E+02  0.26000000000E-02 0.  1.
          2   -1    0    0  501    0  0.00000000000E+00 -0.00000000000E+00 -0.54681221183E+01  0.54681227364E+01  0.26000000000E-02 0. -1.
        -13    1    1    2    0    0  0.15950417700E+02 -0.12174781475E+01  0.10759157426E+02  0.19278711545E+02  0.10570000000E+00 0. -1.
         13    1    1    2    0    0 -0.15950417700E+02  0.12174781475E+01  0.51737867648E+02  0.54154558433E+02  0.10570000000E+00 0.  1.
<mgrwt>
<rscale>  0 0.38556024E+02</rscale>
<asrwt>0</asrwt>
<pdfrwt beam="2">  1        2 0.84124961E-03 0.38556024E+02</pdfrwt>
<pdfrwt beam="1">  1       -2 0.10456177E-01 0.38556024E+02</pdfrwt>
<totfact> 0.71824528E+05</totfact>
</mgrwt>
</event>
<event>
 4    1  0.3704929E-001  0.5633741E+02  0.7818608E-02  0.1413878E+00
         -2   -1    0    0    0  501 -0.00000000000E+00  0.00000000000E+00  0.27225386780E+03  0.27225386781E+03  0.26000000000E-02 0.  1.
          2   -1    0    0  501    0  0.00000000000E+00 -0.00000000000E+00 -0.29144699264E+01  0.29144710861E+01  0.26000000000E-02 0. -1.
        -13    1    1    2    0    0 -0.20037337686E+02  0.19198473109E+02  0.15829090760E+03  0.16070500575E+03  0.10570000000E+00 0. -1.
         13    1    1    2    0    0  0.20037337686E+02 -0.19198473109E+02  0.11104849026E+03  0.11446333314E+03  0.10570000000E+00 0.  1.
<mgrwt>
<rscale>  0 0.56337408E+02</rscale>
<asrwt>0</asrwt>
<pdfrwt beam="2">  1        2 0.44838008E-03 0.56337408E+02</pdfrwt>
<pdfrwt beam="1">  1       -2 0.41885211E-01 0.56337408E+02</pdfrwt>
<totfact> 0.18204405E+05</totfact>
</mgrwt>
</event>
<event>
 4    1  0.3704929E-001  0.2700006E+02  0.7818608E-02  0.1633832E+00
          2   -1    0    0  501    0  0.00000000000E+00  0.00000000000E+00  0.88455904539E+02  0.88455904577E+02  0.26000000000E-02 0. -1.
         -2   -1    0    0    0  501 -0.00000000000E+00 -0.00000000000E+00 -0.20603570124E+01  0.20603586529E+01  0.26000000000E-02 0.  1.
        -13    1    1    2    0    0  0.11796156627E+02  0.65301977473E+01  0.40956761827E+02  0.43119140827E+02  0.10570000000E+00 0. -1.
         13    1    1    2    0    0 -0.11796156627E+02 -0.65301977473E+01  0.45438785699E+02  0.47397122403E+02  0.10570000000E+00 0.  1.
<mgrwt>
<rscale>  0 0.27000061E+02</rscale>
<asrwt>0</asrwt>
<pdfrwt beam="1">  1        2 0.13608599E-01 0.27000061E+02</pdfrwt>
<pdfrwt beam="2">  1       -2 0.31697817E-03 0.27000061E+02</pdfrwt>
<totfact> 0.25993691E+06</totfact>
</mgrwt>
</event>
<event>
 4    1  0.3704929E-001  0.3584654E+02  0.7818608E-02  0.1541209E+00
          2   -1    0    0  501    0  0.00000000000E+00  0.00000000000E+00  0.22025226176E+02  0.22025226330E+02  0.26000000000E-02 0.  1.
         -2   -1    0    0    0  501 -0.00000000000E+00 -0.00000000000E+00 -0.14585261762E+02  0.14585261994E+02  0.26000000000E-02 0. -1.
        -13    1    1    2    0    0  0.43836389120E+01 -0.17374468376E+02  0.41076533572E+01  0.18384026491E+02  0.10570000000E+00 0.  1.
         13    1    1    2    0    0 -0.43836389120E+01  0.17374468376E+02  0.33323110573E+01  0.18226461832E+02  0.10570000000E+00 0. -1.
<mgrwt>
<rscale>  0 0.35846545E+02</rscale>
<asrwt>0</asrwt>
<pdfrwt beam="1">  1        2 0.33884963E-02 0.35846545E+02</pdfrwt>
<pdfrwt beam="2">  1       -2 0.22438865E-02 0.35846545E+02</pdfrwt>
<totfact> 0.10525878E+06</totfact>
</mgrwt>
</event>
<event>
 4    1  0.3704929E-001  0.4937754E+02  0.7818608E-02  0.1448728E+00
          2   -1    0    0  501    0  0.00000000000E+00  0.00000000000E+00  0.26120357216E+03  0.26120357217E+03  0.26000000000E-02 0.  1.
         -2   -1    0    0    0  501 -0.00000000000E+00 -0.00000000000E+00 -0.23335634657E+01  0.23335649142E+01  0.26000000000E-02 0. -1.
        -13    1    1    2    0    0  0.24341427705E+02  0.38279945626E+01  0.12122633466E+03  0.12370527083E+03  0.10570000000E+00 0.  1.
         13    1    1    2    0    0 -0.24341427705E+02 -0.38279945626E+01  0.13764367404E+03  0.13983186625E+03  0.10570000000E+00 0. -1.
<mgrwt>
<rscale>  0 0.49377538E+02</rscale>
<asrwt>0</asrwt>
<pdfrwt beam="1">  1        2 0.40185185E-01 0.49377538E+02</pdfrwt>
<pdfrwt beam="2">  1       -2 0.35900969E-03 0.49377538E+02</pdfrwt>
<totfact> 0.83163753E+05</totfact>
</mgrwt>
</event>
<event>
 4    1  0.3704929E-001  0.3459938E+02  0.7818608E-02  0.1552187E+00
         -2   -1    0    0    0  501 -0.00000000000E+00  0.00000000000E+00  0.46507538538E+01  0.46507545806E+01  0.26000000000E-02 0. -1.
          2   -1    0    0  501    0  0.00000000000E+00 -0.00000000000E+00 -0.64350699249E+02  0.64350699302E+02  0.26000000000E-02 0.  1.
        -13    1    1    2    0    0  0.12525342799E+02 -0.92107753300E+01 -0.14721479204E+02  0.21411579037E+02  0.10570000000E+00 0. -1.
         13    1    1    2    0    0 -0.12525342799E+02  0.92107753300E+01 -0.44978466191E+02  0.47589874846E+02  0.10570000000E+00 0.  1.
<mgrwt>
<rscale>  0 0.34599381E+02</rscale>
<asrwt>0</asrwt>
<pdfrwt beam="2">  1        2 0.99001070E-02 0.34599381E+02</pdfrwt>
<pdfrwt beam="1">  1       -2 0.71550070E-03 0.34599381E+02</pdfrwt>
<totfact> 0.13500052E+06</totfact>
</mgrwt>
</event>
<event>
 4    1  0.3704929E-001  0.3012957E+02  0.7818608E-02  0.1596661E+00
         -2   -1    0    0    0  501 -0.00000000000E+00  0.00000000000E+00  0.15006619226E+02  0.15006619451E+02  0.26000000000E-02 0. -1.
          2   -1    0    0  501    0  0.00000000000E+00 -0.00000000000E+00 -0.15123180145E+02  0.15123180369E+02  0.26000000000E-02 0.  1.
        -13    1    1    2    0    0  0.10425370702E+02 -0.62611008706E+01  0.88326185308E+01  0.15030504349E+02  0.10570000000E+00 0. -1.
         13    1    1    2    0    0 -0.10425370702E+02  0.62611008706E+01 -0.89491794503E+01  0.15099295471E+02  0.10570000000E+00 0.  1.
<mgrwt>
<rscale>  0 0.30129574E+02</rscale>
<asrwt>0</asrwt>
<pdfrwt beam="2">  1        2 0.23266431E-02 0.30129574E+02</pdfrwt>
<pdfrwt beam="1">  1       -2 0.23087107E-02 0.30129574E+02</pdfrwt>
<totfact> 0.15504736E+06</totfact>
</mgrwt>
</event>
<event>
 4    1  0.3704929E-001  0.3094257E+02  0.7818608E-02  0.1587898E+00
          2   -1    0    0  501    0  0.00000000000E+00  0.00000000000E+00  0.63273759563E+02  0.63273759616E+02  0.26000000000E-02 0.  1.
         -2   -1    0    0    0  501 -0.00000000000E+00 -0.00000000000E+00 -0.37829362253E+01  0.37829371188E+01  0.26000000000E-02 0. -1.
        -13    1    1    2    0    0 -0.81752260401E+01  0.78687484222E+01  0.69546253893E+01  0.13309001064E+02  0.10570000000E+00 0. -1.
         13    1    1    2    0    0  0.81752260401E+01 -0.78687484222E+01  0.52536197948E+02  0.53747695670E+02  0.10570000000E+00 0.  1.
<mgrwt>
<rscale>  0 0.30942568E+02</rscale>
<asrwt>0</asrwt>
<pdfrwt beam="1">  1        2 0.97344242E-02 0.30942568E+02</pdfrwt>
<pdfrwt beam="2">  1       -2 0.58199029E-03 0.30942568E+02</pdfrwt>
<totfact> 0.17603473E+06</totfact>
</mgrwt>
</event>
<event>
 4    1  0.3704929E-001  0.2915481E+02  0.7818608E-02  0.1607623E+00
          2   -1    0    0  501    0  0.00000000000E+00  0.00000000000E+00  0.16002898483E+02  0.16002898694E+02  0.26000000000E-02 0.  1.
         -2   -1    0    0    0  501 -0.00000000000E+00 -0.00000000000E+00 -0.13278893529E+02  0.13278893783E+02  0.26000000000E-02 0. -1.
        -13    1    1    2    0    0  0.66372264119E+01 -0.87020621719E+01  0.11032591405E+02  0.15540524640E+02  0.10570000000E+00 0.  1.
         13    1    1    2    0    0 -0.66372264119E+01  0.87020621719E+01 -0.83085864509E+01  0.13741267838E+02  0.10570000000E+00 0. -1.
<mgrwt>
<rscale>  0 0.29154814E+02</rscale>
<asrwt>0</asrwt>
<pdfrwt beam="1">  1        2 0.24619844E-02 0.29154814E+02</pdfrwt>
<pdfrwt beam="2">  1       -2 0.20429067E-02 0.29154814E+02</pdfrwt>
<totfact> 0.16896667E+06</totfact>
</mgrwt>
</event>
<event>
 4    1  0.3704929E-001  0.2099261E+02  0.7818608E-02  0.1726280E+00
          2   -1    0    0  501    0  0.00000000000E+00  0.00000000000E+00  0.14770861362E+02  0.14770861591E+02  0.26000000000E-02 0.  1.
         -2   -1    0    0    0  501 -0.00000000000E+00 -0.00000000000E+00 -0.74587650783E+01  0.74587655314E+01  0.26000000000E-02 0. -1.
        -13    1    1    2    0    0  0.25428501551E+01 -0.10121721946E+02  0.24740860791E+01  0.10726025195E+02  0.10570000000E+00 0. -1.
         13    1    1    2    0    0 -0.25428501551E+01  0.10121721946E+02  0.48380102052E+01  0.11503601928E+02  0.10570000000E+00 0.  1.
<mgrwt>
<rscale>  0 0.20992608E+02</rscale>
<asrwt>0</asrwt>
<pdfrwt beam="1">  1        2 0.22724402E-02 0.20992608E+02</pdfrwt>
<pdfrwt beam="2">  1       -2 0.11475024E-02 0.20992608E+02</pdfrwt>
<totfact> 0.36392338E+06</totfact>
</mgrwt>
</event>
<event>
 4    1  0.3704929E-001  0.4016358E+02  0.7818608E-02  0.1507011E+00
         -2   -1    0    0    0  501 -0.00000000000E+00  0.00000000000E+00  0.72964648077E+02  0.72964648124E+02  0.26000000000E-02 0. -1.
          2   -1    0    0  501    0  0.00000000000E+00 -0.00000000000E+00 -0.55270366169E+01  0.55270372285E+01  0.26000000000E-02 0.  1.
        -13    1    1    2    0    0  0.84588055543E+01  0.77228273491E+01  0.14832995481E+01  0.11550099727E+02  0.10570000000E+00 0.  1.
         13    1    1    2    0    0 -0.84588055543E+01 -0.77228273491E+01  0.65954311912E+02  0.66941585625E+02  0.10570000000E+00 0. -1.
<mgrwt>
<rscale>  0 0.40163581E+02</rscale>
<asrwt>0</asrwt>
<pdfrwt beam="2">  1        2 0.85031339E-03 0.40163581E+02</pdfrwt>
<pdfrwt beam="1">  1       -2 0.11225330E-01 0.40163581E+02</pdfrwt>
<totfact> 0.64279220E+05</totfact>
</mgrwt>
</event>
<event>
 4    1  0.3704929E-001  0.3331435E+02  0.7818608E-02  0.1564100E+00
          2   -1    0    0  501    0  0.00000000000E+00  0.00000000000E+00  0.49508920587E+01  0.49508927414E+01  0.26000000000E-02 0.  1.
         -2   -1    0    0    0  501 -0.00000000000E+00 -0.00000000000E+00 -0.56042733696E+02  0.56042733757E+02  0.26000000000E-02 0. -1.
        -13    1    1    2    0    0 -0.11675304518E+02 -0.25622082327E+01 -0.46784799655E+02  0.48287744800E+02  0.10570000000E+00 0. -1.
         13    1    1    2    0    0  0.11675304518E+02  0.25622082327E+01 -0.43070419829E+01  0.12705881699E+02  0.10570000000E+00 0.  1.
<mgrwt>
<rscale>  0 0.33314354E+02</rscale>
<asrwt>0</asrwt>
<pdfrwt beam="1">  1        2 0.76167580E-03 0.33314354E+02</pdfrwt>
<pdfrwt beam="2">  1       -2 0.86219586E-02 0.33314354E+02</pdfrwt>
<totfact> 0.10483524E+06</totfact>
</mgrwt>
</event>
<event>
 4    1  0.3704929E-001  0.3567214E+02  0.7818608E-02  0.1542712E+00
          2   -1    0    0  501    0  0.00000000000E+00  0.00000000000E+00  0.33231172167E+01  0.33231182338E+01  0.26000000000E-02 0. -1.
         -2   -1    0    0    0  501 -0.00000000000E+00 -0.00000000000E+00 -0.95731008185E+02  0.95731008220E+02  0.26000000000E-02 0.  1.
        -13    1    1    2    0    0 -0.13325922407E+02  0.52547341936E+01 -0.16696453768E+02  0.21999435910E+02  0.10570000000E+00 0. -1.
         13    1    1    2    0    0  0.13325922407E+02 -0.52547341936E+01 -0.75711437200E+02  0.77054690544E+02  0.10570000000E+00 0.  1.
<mgrwt>
<rscale>  0 0.35672141E+02</rscale>
<asrwt>0</asrwt>
<pdfrwt beam="1">  1        2 0.51124896E-03 0.35672141E+02</pdfrwt>
<pdfrwt beam="2">  1       -2 0.14727845E-01 0.35672141E+02</pdfrwt>
<totfact> 0.80349970E+05</totfact>
</mgrwt>
</event>
<event>
 4    1  0.3704929E-001  0.2801582E+02  0.7818608E-02  0.1621117E+00
          2   -1    0    0  501    0  0.00000000000E+00  0.00000000000E+00  0.70167433228E+02  0.70167433276E+02  0.26000000000E-02 0. -1.
         -2   -1    0    0    0  501 -0.00000000000E+00 -0.00000000000E+00 -0.27964751403E+01  0.27964763490E+01  0.26000000000E-02 0.  1.
        -13    1    1    2    0    0  0.10490457746E+02  0.40201958232E+01  0.55475100848E+02  0.56601322112E+02  0.10570000000E+00 0. -1.
         13    1    1    2    0    0 -0.10490457746E+02 -0.40201958232E+01  0.11895857239E+02  0.16362587513E+02  0.10570000000E+00 0.  1.
<mgrwt>
<rscale>  0 0.28015819E+02</rscale>
<asrwt>0</asrwt>
<pdfrwt beam="1">  1        2 0.10794990E-01 0.28015819E+02</pdfrwt>
<pdfrwt beam="2">  1       -2 0.43022702E-03 0.28015819E+02</pdfrwt>
<totfact> 0.22716913E+06</totfact>
</mgrwt>
</event>
<event>
 4    1  0.3704929E-001  0.3264991E+02  0.7818608E-02  0.1570518E+00
          2   -1    0    0  501    0  0.00000000000E+00  0.00000000000E+00  0.87470338226E+01  0.87470342090E+01  0.26000000000E-02 0.  1.
         -2   -1    0    0    0  501 -0.00000000000E+00 -0.00000000000E+00 -0.30467950204E+02  0.30467950315E+02  0.26000000000E-02 0. -1.
        -13    1    1    2    0    0  0.70590066577E+01  0.12177359054E+02 -0.20792073707E+02  0.25108547351E+02  0.10570000000E+00 0. -1.
         13    1    1    2    0    0 -0.70590066577E+01 -0.12177359054E+02 -0.92884267382E+00  0.14106437173E+02  0.10570000000E+00 0.  1.
<mgrwt>
<rscale>  0 0.32649913E+02</rscale>
<asrwt>0</asrwt>
<pdfrwt beam="1">  1        2 0.13456976E-02 0.32649913E+02</pdfrwt>
<pdfrwt beam="2">  1       -2 0.46873770E-02 0.32649913E+02</pdfrwt>
<totfact> 0.11954682E+06</totfact>
</mgrwt>
</event>
<event>
 4    1  0.3704929E-001  0.1341878E+03  0.7818608E-02  0.1221371E+00
          2   -1    0    0  501    0  0.00000000000E+00  0.00000000000E+00  0.85464470608E+02  0.85464470647E+02  0.26000000000E-02 0. -1.
         -2   -1    0    0    0  501 -0.00000000000E+00 -0.00000000000E+00 -0.52672099118E+02  0.52672099182E+02  0.26000000000E-02 0.  1.
        -13    1    1    2    0    0  0.64845592476E+02  0.37574058210E+01 -0.90654807995E+00  0.64960772501E+02  0.10570000000E+00 0.  1.
         13    1    1    2    0    0 -0.64845592476E+02 -0.37574058210E+01  0.33698919569E+02  0.73175797328E+02  0.10570000000E+00 0. -1.
<mgrwt>
<rscale>  0 0.13418782E+03</rscale>
<asrwt>0</asrwt>
<pdfrwt beam="1">  1        2 0.13148380E-01 0.13418782E+03</pdfrwt>
<pdfrwt beam="2">  1       -2 0.81033999E-02 0.13418782E+03</pdfrwt>
<totfact> 0.38660709E+04</totfact>
</mgrwt>
</event>
<event>
 4    1  0.3704929E-001  0.2118083E+02  0.7818608E-02  0.1722817E+00
         -2   -1    0    0    0  501 -0.00000000000E+00  0.00000000000E+00  0.17601436153E+02  0.17601436345E+02  0.26000000000E-02 0.  1.
          2   -1    0    0  501    0  0.00000000000E+00 -0.00000000000E+00 -0.63720272487E+01  0.63720277792E+01  0.26000000000E-02 0. -1.
        -13    1    1    2    0    0  0.60673607408E+01  0.83757891657E+01  0.30389227967E+01  0.10780210330E+02  0.10570000000E+00 0. -1.
         13    1    1    2    0    0 -0.60673607408E+01 -0.83757891657E+01  0.81904861077E+01  0.13193253794E+02  0.10570000000E+00 0.  1.
<mgrwt>
<rscale>  0 0.21180825E+02</rscale>
<asrwt>0</asrwt>
<pdfrwt beam="2">  1        2 0.98031195E-03 0.21180825E+02</pdfrwt>
<pdfrwt beam="1">  1       -2 0.27079133E-02 0.21180825E+02</pdfrwt>
<totfact> 0.33384942E+06</totfact>
</mgrwt>
</event>
<event>
 4    1  0.3704929E-001  0.2299971E+02  0.7818608E-02  0.1691515E+00
          2   -1    0    0  501    0  0.00000000000E+00  0.00000000000E+00  0.24575354410E+02  0.24575354547E+02  0.26000000000E-02 0.  1.
         -2   -1    0    0    0  501 -0.00000000000E+00 -0.00000000000E+00 -0.53812723769E+01  0.53812730050E+01  0.26000000000E-02 0. -1.
        -13    1    1    2    0    0  0.10335060332E+02 -0.27104219006E+01  0.40594923584E+01  0.11430245389E+02  0.10570000000E+00 0. -1.
         13    1    1    2    0    0 -0.10335060332E+02  0.27104219006E+01  0.15134589674E+02  0.18526382163E+02  0.10570000000E+00 0.  1.
<mgrwt>
<rscale>  0 0.22999712E+02</rscale>
<asrwt>0</asrwt>
<pdfrwt beam="1">  1        2 0.37808238E-02 0.22999712E+02</pdfrwt>
<pdfrwt beam="2">  1       -2 0.82788813E-03 0.22999712E+02</pdfrwt>
<totfact> 0.30899723E+06</totfact>
</mgrwt>
</event>
<event>
 4    1  0.3704929E-001  0.2941051E+02  0.7818608E-02  0.1604698E+00
          2   -1    0    0  501    0  0.00000000000E+00  0.00000000000E+00  0.35846867834E+02  0.35846867928E+02  0.26000000000E-02 0.  1.
         -2   -1    0    0    0  501 -0.00000000000E+00 -0.00000000000E+00 -0.60324514503E+01  0.60324520106E+01  0.26000000000E-02 0. -1.
        -13    1    1    2    0    0  0.64514862300E+01 -0.92725345043E+01  0.15014378873E+01  0.11395922908E+02  0.10570000000E+00 0. -1.
         13    1    1    2    0    0 -0.64514862300E+01  0.92725345043E+01  0.28312978496E+02  0.30483397031E+02  0.10570000000E+00 0.  1.
<mgrwt>
<rscale>  0 0.29410509E+02</rscale>
<asrwt>0</asrwt>
<pdfrwt beam="1">  1        2 0.55149027E-02 0.29410509E+02</pdfrwt>
<pdfrwt beam="2">  1       -2 0.92806952E-03 0.29410509E+02</pdfrwt>
<totfact> 0.18143251E+06</totfact>
</mgrwt>
</event>
<event>
 4    1  0.3704929E-001  0.5733423E+02  0.7818608E-02  0.1409372E+00
         -2   -1    0    0    0  501 -0.00000000000E+00  0.00000000000E+00  0.10669273241E+03  0.10669273244E+03  0.26000000000E-02 0.  1.
          2   -1    0    0  501    0  0.00000000000E+00 -0.00000000000E+00 -0.77025240003E+01  0.77025244391E+01  0.26000000000E-02 0. -1.
        -13    1    1    2    0    0 -0.17881216119E+02 -0.15996908791E+01  0.49028155142E+01  0.18610364673E+02  0.10570000000E+00 0. -1.
         13    1    1    2    0    0  0.17881216119E+02  0.15996908791E+01  0.94087392891E+02  0.95784892203E+02  0.10570000000E+00 0.  1.
<mgrwt>
<rscale>  0 0.57334226E+02</rscale>
<asrwt>0</asrwt>
<pdfrwt beam="2">  1        2 0.11850038E-02 0.57334226E+02</pdfrwt>
<pdfrwt beam="1">  1       -2 0.16414266E-01 0.57334226E+02</pdfrwt>
<totfact> 0.24808346E+05</totfact>
</mgrwt>
</event>
<event>
 4    1  0.3704929E-001  0.5038011E+02  0.7818608E-02  0.1443302E+00
          2   -1    0    0  501    0  0.00000000000E+00  0.00000000000E+00  0.51886743103E+02  0.51886743168E+02  0.26000000000E-02 0.  1.
         -2   -1    0    0    0  501 -0.00000000000E+00 -0.00000000000E+00 -0.12229306724E+02  0.12229307001E+02  0.26000000000E-02 0. -1.
        -13    1    1    2    0    0  0.19119380708E+02  0.14875216777E+02  0.11038709140E+02  0.26621176999E+02  0.10570000000E+00 0. -1.
         13    1    1    2    0    0 -0.19119380708E+02 -0.14875216777E+02  0.28618727239E+02  0.37494873171E+02  0.10570000000E+00 0.  1.
<mgrwt>
<rscale>  0 0.50380111E+02</rscale>
<asrwt>0</asrwt>
<pdfrwt beam="1">  1        2 0.79825758E-02 0.50380111E+02</pdfrwt>
<pdfrwt beam="2">  1       -2 0.18814319E-02 0.50380111E+02</pdfrwt>
<totfact> 0.50668129E+05</totfact>
</mgrwt>
</event>
<event>
 4    1  0.3704929E-001  0.5857711E+02  0.7818608E-02  0.1403902E+00
          2   -1    0    0  501    0  0.00000000000E+00  0.00000000000E+00  0.47577924183E+02  0.47577924254E+02  0.26000000000E-02 0. -1.
         -2   -1    0    0    0  501 -0.00000000000E+00 -0.00000000000E+00 -0.18029780673E+02  0.18029780860E+02  0.26000000000E-02 0.  1.
        -13    1    1    2    0    0  0.22171197425E+02  0.11872095460E+02  0.31585600828E+02  0.40375363751E+02  0.10570000000E+00 0. -1.
         13    1    1    2    0    0 -0.22171197425E+02 -0.11872095460E+02 -0.20374573176E+01  0.25232341363E+02  0.10570000000E+00 0.  1.
<mgrwt>
<rscale>  0 0.58577113E+02</rscale>
<asrwt>0</asrwt>
<pdfrwt beam="1">  1        2 0.73196805E-02 0.58577113E+02</pdfrwt>
<pdfrwt beam="2">  1       -2 0.27738125E-02 0.58577113E+02</pdfrwt>
<totfact> 0.33621611E+05</totfact>
</mgrwt>
</event>
<event>
 4    1  0.3704929E-001  0.3738362E+02  0.7818608E-02  0.1528398E+00
         -2   -1    0    0    0  501 -0.00000000000E+00  0.00000000000E+00  0.48330924420E+02  0.48330924490E+02  0.26000000000E-02 0.  1.
          2   -1    0    0  501    0  0.00000000000E+00 -0.00000000000E+00 -0.72289882573E+01  0.72289887248E+01  0.26000000000E-02 0. -1.
        -13    1    1    2    0    0 -0.73248667112E+01 -0.17159753644E+02  0.18881569530E+02  0.26544974248E+02  0.10570000000E+00 0. -1.
         13    1    1    2    0    0  0.73248667112E+01  0.17159753644E+02  0.22220366633E+02  0.29014938967E+02  0.10570000000E+00 0.  1.
<mgrwt>
<rscale>  0 0.37383617E+02</rscale>
<asrwt>0</asrwt>
<pdfrwt beam="2">  1        2 0.11121521E-02 0.37383617E+02</pdfrwt>
<pdfrwt beam="1">  1       -2 0.74355269E-02 0.37383617E+02</pdfrwt>
<totfact> 0.81894999E+05</totfact>
</mgrwt>
</event>
<event>
 4    1  0.3704929E-001  0.4121702E+02  0.7818608E-02  0.1499442E+00
          2   -1    0    0  501    0  0.00000000000E+00  0.00000000000E+00  0.10640979622E+02  0.10640979940E+02  0.26000000000E-02 0. -1.
         -2   -1    0    0    0  501 -0.00000000000E+00 -0.00000000000E+00 -0.39912743187E+02  0.39912743272E+02  0.26000000000E-02 0.  1.
        -13    1    1    2    0    0 -0.37331453584E+00 -0.15380204359E+02 -0.31453574725E+02  0.35014690993E+02  0.10570000000E+00 0.  1.
         13    1    1    2    0    0  0.37331453584E+00  0.15380204359E+02  0.21818111596E+01  0.15539032219E+02  0.10570000000E+00 0. -1.
<mgrwt>
<rscale>  0 0.41217021E+02</rscale>
<asrwt>0</asrwt>
<pdfrwt beam="1">  1        2 0.16370738E-02 0.41217021E+02</pdfrwt>
<pdfrwt beam="2">  1       -2 0.61404220E-02 0.41217021E+02</pdfrwt>
<totfact> 0.66952049E+05</totfact>
</mgrwt>
</event>
<event>
 4    1  0.3704929E-001  0.3395400E+02  0.7818608E-02  0.1558090E+00
          2   -1    0    0  501    0  0.00000000000E+00  0.00000000000E+00  0.75640796271E+01  0.75640800740E+01  0.26000000000E-02 0.  1.
         -2   -1    0    0    0  501 -0.00000000000E+00 -0.00000000000E+00 -0.38103576811E+02  0.38103576900E+02  0.26000000000E-02 0. -1.
        -13    1    1    2    0    0  0.12102556595E+01  0.10860271163E+02 -0.32744070159E+02  0.34519494660E+02  0.10570000000E+00 0. -1.
         13    1    1    2    0    0 -0.12102556595E+01 -0.10860271163E+02  0.22045729751E+01  0.11148162314E+02  0.10570000000E+00 0.  1.
<mgrwt>
<rscale>  0 0.33953998E+02</rscale>
<asrwt>0</asrwt>
<pdfrwt beam="1">  1        2 0.11637046E-02 0.33953998E+02</pdfrwt>
<pdfrwt beam="2">  1       -2 0.58620887E-02 0.33953998E+02</pdfrwt>
<totfact> 0.10614122E+06</totfact>
</mgrwt>
</event>
<event>
 4    1  0.3704929E-001  0.3685012E+02  0.7818608E-02  0.1532759E+00
          2   -1    0    0  501    0  0.00000000000E+00  0.00000000000E+00  0.23115195259E+01  0.23115209881E+01  0.26000000000E-02 0.  1.
         -2   -1    0    0    0  501 -0.00000000000E+00 -0.00000000000E+00 -0.14686558636E+03  0.14686558638E+03  0.26000000000E-02 0. -1.
        -13    1    1    2    0    0  0.68167367095E+01  0.15746404857E+02 -0.45104375256E+02  0.48257983847E+02  0.10570000000E+00 0.  1.
         13    1    1    2    0    0 -0.68167367095E+01 -0.15746404857E+02 -0.99449691574E+02  0.10091912352E+03  0.10570000000E+00 0. -1.
<mgrwt>
<rscale>  0 0.36850117E+02</rscale>
<asrwt>0</asrwt>
<pdfrwt beam="1">  1        2 0.35561862E-03 0.36850117E+02</pdfrwt>
<pdfrwt beam="2">  1       -2 0.22594698E-01 0.36850117E+02</pdfrwt>
<totfact> 0.66043706E+05</totfact>
</mgrwt>
</event>
<event>
 4    1  0.3704929E-001  0.4193397E+02  0.7818608E-02  0.1494443E+00
          2   -1    0    0  501    0  0.00000000000E+00  0.00000000000E+00  0.83738960464E+02  0.83738960505E+02  0.26000000000E-02 0.  1.
         -2   -1    0    0    0  501 -0.00000000000E+00 -0.00000000000E+00 -0.52498196455E+01  0.52498202893E+01  0.26000000000E-02 0. -1.
        -13    1    1    2    0    0  0.17170876572E+02  0.10561367707E+02  0.51476103679E+02  0.55282745161E+02  0.10570000000E+00 0.  1.
         13    1    1    2    0    0 -0.17170876572E+02 -0.10561367707E+02  0.27013037140E+02  0.33706035633E+02  0.10570000000E+00 0. -1.
<mgrwt>
<rscale>  0 0.41933970E+02</rscale>
<asrwt>0</asrwt>
<pdfrwt beam="1">  1        2 0.12882916E-01 0.41933970E+02</pdfrwt>
<pdfrwt beam="2">  1       -2 0.80766468E-03 0.41933970E+02</pdfrwt>
<totfact> 0.89092803E+05</totfact>
</mgrwt>
</event>
<event>
 4    1  0.3704929E-001  0.2489636E+02  0.7818608E-02  0.1662495E+00
          2   -1    0    0  501    0  0.00000000000E+00  0.00000000000E+00  0.12550868089E+03  0.12550868091E+03  0.26000000000E-02 0.  1.
         -2   -1    0    0    0  501 -0.00000000000E+00 -0.00000000000E+00 -0.12346319412E+01  0.12346346788E+01  0.26000000000E-02 0. -1.
        -13    1    1    2    0    0  0.99751558309E+01 -0.73944578825E+01  0.66587615104E+02  0.67735540147E+02  0.10570000000E+00 0. -1.
         13    1    1    2    0    0 -0.99751558309E+01  0.73944578825E+01  0.57686433842E+02  0.59007775446E+02  0.10570000000E+00 0.  1.
<mgrwt>
<rscale>  0 0.24896361E+02</rscale>
<asrwt>0</asrwt>
<pdfrwt beam="1">  1        2 0.19309028E-01 0.24896361E+02</pdfrwt>
<pdfrwt beam="2">  1       -2 0.18994359E-03 0.24896361E+02</pdfrwt>
<totfact> 0.34102226E+06</totfact>
</mgrwt>
</event>
<event>
 4    1  0.3704929E-001  0.6380549E+02  0.7818608E-02  0.1382522E+00
          2   -1    0    0  501    0  0.00000000000E+00  0.00000000000E+00  0.15793296804E+02  0.15793297018E+02  0.26000000000E-02 0. -1.
         -2   -1    0    0    0  501 -0.00000000000E+00 -0.00000000000E+00 -0.64444123162E+02  0.64444123214E+02  0.26000000000E-02 0.  1.
        -13    1    1    2    0    0  0.26422978126E+02  0.43463874152E+01 -0.46132227189E+02  0.53340963757E+02  0.10570000000E+00 0. -1.
         13    1    1    2    0    0 -0.26422978126E+02 -0.43463874152E+01 -0.25185991689E+01  0.26896456475E+02  0.10570000000E+00 0.  1.
<mgrwt>
<rscale>  0 0.63805491E+02</rscale>
<asrwt>0</asrwt>
<pdfrwt beam="1">  1        2 0.24297380E-02 0.63805491E+02</pdfrwt>
<pdfrwt beam="2">  1       -2 0.99144803E-02 0.63805491E+02</pdfrwt>
<totfact> 0.21512541E+05</totfact>
</mgrwt>
</event>
<event>
 4    1  0.3704929E-001  0.2436020E+02  0.7818608E-02  0.1670365E+00
         -2   -1    0    0    0  501 -0.00000000000E+00  0.00000000000E+00  0.29815854789E+02  0.29815854903E+02  0.26000000000E-02 0.  1.
          2   -1    0    0  501    0  0.00000000000E+00 -0.00000000000E+00 -0.49757034647E+01  0.49757041440E+01  0.26000000000E-02 0. -1.
        -13    1    1    2    0    0 -0.79027862220E+01 -0.82333441792E+01  0.63435860371E+01  0.13057344399E+02  0.10570000000E+00 0. -1.
         13    1    1    2    0    0  0.79027862220E+01  0.82333441792E+01  0.18496565287E+02  0.21734214648E+02  0.10570000000E+00 0.  1.
<mgrwt>
<rscale>  0 0.24360202E+02</rscale>
<asrwt>0</asrwt>
<pdfrwt beam="2">  1        2 0.76549292E-03 0.24360202E+02</pdfrwt>
<pdfrwt beam="1">  1       -2 0.45870545E-02 0.24360202E+02</pdfrwt>
<totfact> 0.23333491E+06</totfact>
</mgrwt>
</event>
<event>
 4    1  0.3704929E-001  0.2319766E+02  0.7818608E-02  0.1688326E+00
          2   -1    0    0  501    0  0.00000000000E+00  0.00000000000E+00  0.10418745534E+02  0.10418745859E+02  0.26000000000E-02 0. -1.
         -2   -1    0    0    0  501 -0.00000000000E+00 -0.00000000000E+00 -0.12912578157E+02  0.12912578419E+02  0.26000000000E-02 0.  1.
        -13    1    1    2    0    0 -0.88716293716E+01 -0.68485849455E+01  0.17557128887E+01  0.11344717877E+02  0.10570000000E+00 0.  1.
         13    1    1    2    0    0  0.88716293716E+01  0.68485849455E+01 -0.42495455113E+01  0.11986606401E+02  0.10570000000E+00 0. -1.
<mgrwt>
<rscale>  0 0.23197661E+02</rscale>
<asrwt>0</asrwt>
<pdfrwt beam="1">  1        2 0.16028840E-02 0.23197661E+02</pdfrwt>
<pdfrwt beam="2">  1       -2 0.19865505E-02 0.23197661E+02</pdfrwt>
<totfact> 0.28062010E+06</totfact>
</mgrwt>
</event>
<event>
 4    1  0.3704929E-001  0.3084512E+02  0.7818608E-02  0.1588931E+00
         -2   -1    0    0    0  501 -0.00000000000E+00  0.00000000000E+00  0.19946179384E+02  0.19946179554E+02  0.26000000000E-02 0. -1.
          2   -1    0    0  501    0  0.00000000000E+00 -0.00000000000E+00 -0.11924860146E+02  0.11924860429E+02  0.26000000000E-02 0.  1.
        -13    1    1    2    0    0  0.90135793103E+01  0.12257742189E+02  0.66138560094E+01  0.16590693757E+02  0.10570000000E+00 0. -1.
         13    1    1    2    0    0 -0.90135793103E+01 -0.12257742189E+02  0.14074632291E+01  0.15280346226E+02  0.10570000000E+00 0.  1.
<mgrwt>
<rscale>  0 0.30845123E+02</rscale>
<asrwt>0</asrwt>
<pdfrwt beam="2">  1        2 0.18345939E-02 0.30845123E+02</pdfrwt>
<pdfrwt beam="1">  1       -2 0.30686430E-02 0.30845123E+02</pdfrwt>
<totfact> 0.14276796E+06</totfact>
</mgrwt>
</event>
<event>
 4    1  0.3704929E-001  0.2688138E+02  0.7818608E-02  0.1635362E+00
          2   -1    0    0  501    0  0.00000000000E+00  0.00000000000E+00  0.12065088713E+02  0.12065088994E+02  0.26000000000E-02 0. -1.
         -2   -1    0    0    0  501 -0.00000000000E+00 -0.00000000000E+00 -0.14973128587E+02  0.14973128813E+02  0.26000000000E-02 0.  1.
        -13    1    1    2    0    0 -0.12504869150E+02  0.38844234240E+01  0.15935857329E+01  0.13191329947E+02  0.10570000000E+00 0.  1.
         13    1    1    2    0    0  0.12504869150E+02 -0.38844234240E+01 -0.45016256067E+01  0.13846887859E+02  0.10570000000E+00 0. -1.
<mgrwt>
<rscale>  0 0.26881379E+02</rscale>
<asrwt>0</asrwt>
<pdfrwt beam="1">  1        2 0.18561675E-02 0.26881379E+02</pdfrwt>
<pdfrwt beam="2">  1       -2 0.23035583E-02 0.26881379E+02</pdfrwt>
<totfact> 0.20007498E+06</totfact>
</mgrwt>
</event>
<event>
 4    1  0.3704929E-001  0.3576169E+02  0.7818608E-02  0.1541939E+00
          2   -1    0    0  501    0  0.00000000000E+00  0.00000000000E+00  0.98784149957E+01  0.98784153378E+01  0.26000000000E-02 0. -1.
         -2   -1    0    0    0  501 -0.00000000000E+00 -0.00000000000E+00 -0.32365982948E+02  0.32365983053E+02  0.26000000000E-02 0.  1.
        -13    1    1    2    0    0 -0.15133938353E+02  0.94526437977E+01 -0.98840939153E+01  0.20398408023E+02  0.10570000000E+00 0.  1.
         13    1    1    2    0    0  0.15133938353E+02 -0.94526437977E+01 -0.12603474037E+02  0.21845990368E+02  0.10570000000E+00 0. -1.
<mgrwt>
<rscale>  0 0.35761690E+02</rscale>
<asrwt>0</asrwt>
<pdfrwt beam="1">  1        2 0.15197562E-02 0.35761690E+02</pdfrwt>
<pdfrwt beam="2">  1       -2 0.49793820E-02 0.35761690E+02</pdfrwt>
<totfact> 0.96112396E+05</totfact>
</mgrwt>
</event>
<event>
 4    1  0.3704929E-001  0.2470117E+02  0.7818608E-02  0.1665332E+00
         -2   -1    0    0    0  501 -0.00000000000E+00  0.00000000000E+00  0.22761548787E+01  0.22761563637E+01  0.26000000000E-02 0.  1.
          2   -1    0    0  501    0  0.00000000000E+00 -0.00000000000E+00 -0.67015166160E+02  0.67015166211E+02  0.26000000000E-02 0. -1.
        -13    1    1    2    0    0  0.56279114388E+01 -0.10985933411E+02 -0.31241633254E+02  0.33591888023E+02  0.10570000000E+00 0. -1.
         13    1    1    2    0    0 -0.56279114388E+01  0.10985933411E+02 -0.33497378028E+02  0.35699434551E+02  0.10570000000E+00 0.  1.
<mgrwt>
<rscale>  0 0.24701170E+02</rscale>
<asrwt>0</asrwt>
<pdfrwt beam="2">  1        2 0.10310024E-01 0.24701170E+02</pdfrwt>
<pdfrwt beam="1">  1       -2 0.35017784E-03 0.24701170E+02</pdfrwt>
<totfact> 0.30173226E+06</totfact>
</mgrwt>
</event>
<event>
 4    1  0.3704929E-001  0.3598494E+02  0.7818608E-02  0.1540024E+00
          2   -1    0    0  501    0  0.00000000000E+00  0.00000000000E+00  0.29111444970E+01  0.29111456580E+01  0.26000000000E-02 0. -1.
         -2   -1    0    0    0  501 -0.00000000000E+00 -0.00000000000E+00 -0.11120329383E+03  0.11120329386E+03  0.26000000000E-02 0.  1.
        -13    1    1    2    0    0 -0.14584932430E+02  0.81746897841E+01 -0.33069835590E+02  0.37056322072E+02  0.10570000000E+00 0. -1.
         13    1    1    2    0    0  0.14584932430E+02 -0.81746897841E+01 -0.75222313744E+02  0.77058117447E+02  0.10570000000E+00 0.  1.
<mgrwt>
<rscale>  0 0.35984937E+02</rscale>
<asrwt>0</asrwt>
<pdfrwt beam="1">  1        2 0.44786856E-03 0.35984937E+02</pdfrwt>
<pdfrwt beam="2">  1       -2 0.17108196E-01 0.35984937E+02</pdfrwt>
<totfact> 0.75816089E+05</totfact>
</mgrwt>
</event>
<event>
 4    1  0.3704929E-001  0.2169110E+02  0.7818608E-02  0.1713650E+00
          2   -1    0    0  501    0  0.00000000000E+00  0.00000000000E+00  0.17770887986E+01  0.17770907006E+01  0.26000000000E-02 0. -1.
         -2   -1    0    0    0  501 -0.00000000000E+00 -0.00000000000E+00 -0.66190193297E+02  0.66190193348E+02  0.26000000000E-02 0.  1.
        -13    1    1    2    0    0  0.99794300766E-01  0.10396676436E+02 -0.41871462316E+02  0.43143149732E+02  0.10570000000E+00 0.  1.
         13    1    1    2    0    0 -0.99794300766E-01 -0.10396676436E+02 -0.22541642183E+02  0.24824134317E+02  0.10570000000E+00 0. -1.
<mgrwt>
<rscale>  0 0.21691097E+02</rscale>
<asrwt>0</asrwt>
<pdfrwt beam="1">  1        2 0.27339848E-03 0.21691097E+02</pdfrwt>
<pdfrwt beam="2">  1       -2 0.10183105E-01 0.21691097E+02</pdfrwt>
<totfact> 0.27109446E+06</totfact>
</mgrwt>
</event>
<event>
 4    1  0.3704929E-001  0.3386395E+02  0.7818608E-02  0.1558927E+00
         -2   -1    0    0    0  501 -0.00000000000E+00  0.00000000000E+00  0.35210458698E+02  0.35210458794E+02  0.26000000000E-02 0.  1.
          2   -1    0    0  501    0  0.00000000000E+00 -0.00000000000E+00 -0.81422342796E+01  0.81422346947E+01  0.26000000000E-02 0. -1.
        -13    1    1    2    0    0  0.14002244091E+02  0.54516393321E+01  0.23524398409E+02  0.27914005517E+02  0.10570000000E+00 0.  1.
         13    1    1    2    0    0 -0.14002244091E+02 -0.54516393321E+01  0.35438260087E+01  0.15438687971E+02  0.10570000000E+00 0. -1.
<mgrwt>
<rscale>  0 0.33863952E+02</rscale>
<asrwt>0</asrwt>
<pdfrwt beam="2">  1        2 0.12526515E-02 0.33863952E+02</pdfrwt>
<pdfrwt beam="1">  1       -2 0.54169937E-02 0.33863952E+02</pdfrwt>
<totfact> 0.10790837E+06</totfact>
</mgrwt>
</event>
<event>
 4    1  0.3704929E-001  0.4361004E+02  0.7818608E-02  0.1483210E+00
          2   -1    0    0  501    0  0.00000000000E+00  0.00000000000E+00  0.97750628170E+01  0.97750631627E+01  0.26000000000E-02 0. -1.
         -2   -1    0    0    0  501 -0.00000000000E+00 -0.00000000000E+00 -0.48639990768E+02  0.48639990838E+02  0.26000000000E-02 0.  1.
        -13    1    1    2    0    0  0.81674784647E+01  0.20177933984E+02 -0.21122065666E+02  0.30331659283E+02  0.10570000000E+00 0. -1.
         13    1    1    2    0    0 -0.81674784647E+01 -0.20177933984E+02 -0.17742862285E+02  0.28083394718E+02  0.10570000000E+00 0.  1.
<mgrwt>
<rscale>  0 0.43610044E+02</rscale>
<asrwt>0</asrwt>
<pdfrwt beam="1">  1        2 0.15038559E-02 0.43610044E+02</pdfrwt>
<pdfrwt beam="2">  1       -2 0.74830754E-02 0.43610044E+02</pdfrwt>
<totfact> 0.56802353E+05</totfact>
</mgrwt>
</event>
<event>
 4    1  0.3704929E-001  0.2053981E+02  0.7818608E-02  0.1734802E+00
         -2   -1    0    0    0  501 -0.00000000000E+00  0.00000000000E+00  0.29350142809E+02  0.29350142924E+02  0.26000000000E-02 0. -1.
          2   -1    0    0  501    0  0.00000000000E+00 -0.00000000000E+00 -0.35935405864E+01  0.35935415270E+01  0.26000000000E-02 0.  1.
        -13    1    1    2    0    0  0.67563667792E+01  0.74160191025E+01  0.93592447747E+01  0.13720512623E+02  0.10570000000E+00 0.  1.
         13    1    1    2    0    0 -0.67563667792E+01 -0.74160191025E+01  0.16397357448E+02  0.19223171828E+02  0.10570000000E+00 0. -1.
<mgrwt>
<rscale>  0 0.20539810E+02</rscale>
<asrwt>0</asrwt>
<pdfrwt beam="2">  1        2 0.55285247E-03 0.20539810E+02</pdfrwt>
<pdfrwt beam="1">  1       -2 0.45154068E-02 0.20539810E+02</pdfrwt>
<totfact> 0.34100730E+06</totfact>
</mgrwt>
</event>
<event>
 4    1  0.3704929E-001  0.2744250E+02  0.7818608E-02  0.1628210E+00
          2   -1    0    0  501    0  0.00000000000E+00  0.00000000000E+00  0.23883732658E+01  0.23883746810E+01  0.26000000000E-02 0.  1.
         -2   -1    0    0    0  501 -0.00000000000E+00 -0.00000000000E+00 -0.78828811171E+02  0.78828811214E+02  0.26000000000E-02 0. -1.
        -13    1    1    2    0    0  0.11447923472E+02 -0.51833697251E+01 -0.21918754492E+02  0.25265890931E+02  0.10570000000E+00 0.  1.
         13    1    1    2    0    0 -0.11447923472E+02  0.51833697251E+01 -0.54521683413E+02  0.55951294964E+02  0.10570000000E+00 0. -1.
<mgrwt>
<rscale>  0 0.27442499E+02</rscale>
<asrwt>0</asrwt>
<pdfrwt beam="1">  1        2 0.36744221E-03 0.27442499E+02</pdfrwt>
<pdfrwt beam="2">  1       -2 0.12127508E-01 0.27442499E+02</pdfrwt>
<totfact> 0.15439599E+06</totfact>
</mgrwt>
</event>
<event>
 4    1  0.3704929E-001  0.3796817E+02  0.7818608E-02  0.1523719E+00
         -2   -1    0    0    0  501 -0.00000000000E+00  0.00000000000E+00  0.42506291572E+02  0.42506291652E+02  0.26000000000E-02 0.  1.
          2   -1    0    0  501    0  0.00000000000E+00 -0.00000000000E+00 -0.84786363092E+01  0.84786367079E+01  0.26000000000E-02 0. -1.
        -13    1    1    2    0    0 -0.12295823209E+02  0.13229196504E+02  0.91625196754E+01  0.20252452885E+02  0.10570000000E+00 0.  1.
         13    1    1    2    0    0  0.12295823209E+02 -0.13229196504E+02  0.24865135588E+02  0.30732475475E+02  0.10570000000E+00 0. -1.
<mgrwt>
<rscale>  0 0.37968166E+02</rscale>
<asrwt>0</asrwt>
<pdfrwt beam="2">  1        2 0.13044057E-02 0.37968166E+02</pdfrwt>
<pdfrwt beam="1">  1       -2 0.65394293E-02 0.37968166E+02</pdfrwt>
<totfact> 0.80493017E+05</totfact>
</mgrwt>
</event>
<event>
 4    1  0.3704929E-001  0.8754796E+02  0.7818608E-02  0.1308901E+00
         -2   -1    0    0    0  501 -0.00000000000E+00  0.00000000000E+00  0.41780060038E+02  0.41780060119E+02  0.26000000000E-02 0.  1.
          2   -1    0    0  501    0  0.00000000000E+00 -0.00000000000E+00 -0.45863053883E+02  0.45863053957E+02  0.26000000000E-02 0. -1.
        -13    1    1    2    0    0  0.85388681485E+01  0.30805420785E+02 -0.31978243762E+02  0.45216207997E+02  0.10570000000E+00 0. -1.
         13    1    1    2    0    0 -0.85388681485E+01 -0.30805420785E+02  0.27895249917E+02  0.42426906079E+02  0.10570000000E+00 0.  1.
<mgrwt>
<rscale>  0 0.87547956E+02</rscale>
<asrwt>0</asrwt>
<pdfrwt beam="2">  1        2 0.70558544E-02 0.87547956E+02</pdfrwt>
<pdfrwt beam="1">  1       -2 0.64277016E-02 0.87547956E+02</pdfrwt>
<totfact> 0.11097673E+05</totfact>
</mgrwt>
</event>
<event>
 4    1  0.3704929E-001  0.2152310E+02  0.7818608E-02  0.1716633E+00
         -2   -1    0    0    0  501 -0.00000000000E+00  0.00000000000E+00  0.58796317908E+02  0.58796317965E+02  0.26000000000E-02 0. -1.
          2   -1    0    0  501    0  0.00000000000E+00 -0.00000000000E+00 -0.19696965163E+01  0.19696982323E+01  0.26000000000E-02 0.  1.
        -13    1    1    2    0    0  0.74292145136E+01 -0.67334882922E+01  0.17381967298E+02  0.20066814707E+02  0.10570000000E+00 0.  1.
         13    1    1    2    0    0 -0.74292145136E+01  0.67334882922E+01  0.39444654094E+02  0.40699201490E+02  0.10570000000E+00 0. -1.
<mgrwt>
<rscale>  0 0.21523100E+02</rscale>
<asrwt>0</asrwt>
<pdfrwt beam="2">  1        2 0.30303040E-03 0.21523100E+02</pdfrwt>
<pdfrwt beam="1">  1       -2 0.90455867E-02 0.21523100E+02</pdfrwt>
<totfact> 0.28139820E+06</totfact>
</mgrwt>
</event>
<event>
 4    1  0.3704929E-001  0.3139011E+02  0.7818608E-02  0.1583212E+00
         -2   -1    0    0    0  501 -0.00000000000E+00  0.00000000000E+00  0.36426648537E+02  0.36426648630E+02  0.26000000000E-02 0.  1.
          2   -1    0    0  501    0  0.00000000000E+00 -0.00000000000E+00 -0.67624873004E+01  0.67624878002E+01  0.26000000000E-02 0. -1.
        -13    1    1    2    0    0 -0.90240156682E+01  0.85568452550E+01  0.16586780316E+01  0.12546507275E+02  0.10570000000E+00 0. -1.
         13    1    1    2    0    0  0.90240156682E+01 -0.85568452550E+01  0.28005483205E+02  0.30642629155E+02  0.10570000000E+00 0.  1.
<mgrwt>
<rscale>  0 0.31390111E+02</rscale>
<asrwt>0</asrwt>
<pdfrwt beam="2">  1        2 0.10403827E-02 0.31390111E+02</pdfrwt>
<pdfrwt beam="1">  1       -2 0.56040998E-02 0.31390111E+02</pdfrwt>
<totfact> 0.12805661E+06</totfact>
</mgrwt>
</event>
<event>
 4    1  0.3704929E-001  0.1226422E+03  0.7818608E-02  0.1238801E+00
         -2   -1    0    0    0  501 -0.00000000000E+00  0.00000000000E+00  0.85085821857E+01  0.85085825830E+01  0.26000000000E-02 0.  1.
          2   -1    0    0  501    0  0.00000000000E+00 -0.00000000000E+00 -0.44193965618E+03  0.44193965618E+03  0.26000000000E-02 0. -1.
        -13    1    1    2    0    0  0.15217809186E+02 -0.52032105721E+02 -0.11145437487E+03  0.12393954410E+03  0.10570000000E+00 0.  1.
         13    1    1    2    0    0 -0.15217809186E+02  0.52032105721E+02 -0.32197669913E+03  0.32650869467E+03  0.10570000000E+00 0. -1.
<mgrwt>
<rscale>  0 0.12264224E+03</rscale>
<asrwt>0</asrwt>
<pdfrwt beam="2">  1        2 0.67990699E-01 0.12264224E+03</pdfrwt>
<pdfrwt beam="1">  1       -2 0.13090130E-02 0.12264224E+03</pdfrwt>
<totfact> 0.93030000E+04</totfact>
</mgrwt>
</event>
<event>
 4    1  0.3704929E-001  0.4049354E+02  0.7818608E-02  0.1504611E+00
          2   -1    0    0  501    0  0.00000000000E+00  0.00000000000E+00  0.89762289999E+02  0.89762290037E+02  0.26000000000E-02 0.  1.
         -2   -1    0    0    0  501 -0.00000000000E+00 -0.00000000000E+00 -0.45668572722E+01  0.45668580124E+01  0.26000000000E-02 0. -1.
        -13    1    1    2    0    0  0.36149747697E+01 -0.18185385856E+02  0.23652225193E+02  0.30053539399E+02  0.10570000000E+00 0. -1.
         13    1    1    2    0    0 -0.36149747697E+01  0.18185385856E+02  0.61543207534E+02  0.64275608650E+02  0.10570000000E+00 0.  1.
<mgrwt>
<rscale>  0 0.40493535E+02</rscale>
<asrwt>0</asrwt>
<pdfrwt beam="1">  1        2 0.13809584E-01 0.40493535E+02</pdfrwt>
<pdfrwt beam="2">  1       -2 0.70259346E-03 0.40493535E+02</pdfrwt>
<totfact> 0.98733870E+05</totfact>
</mgrwt>
</event>
<event>
 4    1  0.3704929E-001  0.2056578E+02  0.7818608E-02  0.1734305E+00
         -2   -1    0    0    0  501 -0.00000000000E+00  0.00000000000E+00  0.61310481145E+01  0.61310486658E+01  0.26000000000E-02 0.  1.
          2   -1    0    0  501    0  0.00000000000E+00 -0.00000000000E+00 -0.17246281053E+02  0.17246281249E+02  0.26000000000E-02 0. -1.
        -13    1    1    2    0    0 -0.77296140791E+01  0.65906456459E+01 -0.73703295622E+01  0.12550556728E+02  0.10570000000E+00 0. -1.
         13    1    1    2    0    0  0.77296140791E+01 -0.65906456459E+01 -0.37449033759E+01  0.10826773186E+02  0.10570000000E+00 0.  1.
<mgrwt>
<rscale>  0 0.20565776E+02</rscale>
<asrwt>0</asrwt>
<pdfrwt beam="2">  1        2 0.26532741E-02 0.20565776E+02</pdfrwt>
<pdfrwt beam="1">  1       -2 0.94323823E-03 0.20565776E+02</pdfrwt>
<totfact> 0.38629542E+06</totfact>
</mgrwt>
</event>
<event>
 4    1  0.3704929E-001  0.3259454E+02  0.7818608E-02  0.1571062E+00
         -2   -1    0    0    0  501 -0.00000000000E+00  0.00000000000E+00  0.29653882606E+01  0.29653894004E+01  0.26000000000E-02 0. -1.
          2   -1    0    0  501    0  0.00000000000E+00 -0.00000000000E+00 -0.89567008556E+02  0.89567008593E+02  0.26000000000E-02 0.  1.
        -13    1    1    2    0    0 -0.14887801146E+02  0.99287120126E+00 -0.61907454767E+02  0.63680268093E+02  0.10570000000E+00 0.  1.
         13    1    1    2    0    0  0.14887801146E+02 -0.99287120126E+00 -0.24694165528E+02  0.28852129901E+02  0.10570000000E+00 0. -1.
<mgrwt>
<rscale>  0 0.32594540E+02</rscale>
<asrwt>0</asrwt>
<pdfrwt beam="2">  1        2 0.13779538E-01 0.32594540E+02</pdfrwt>
<pdfrwt beam="1">  1       -2 0.45621374E-03 0.32594540E+02</pdfrwt>
<totfact> 0.16717731E+06</totfact>
</mgrwt>
</event>
<event>
 4    1  0.3704929E-001  0.4404563E+02  0.7818608E-02  0.1480389E+00
          2   -1    0    0  501    0  0.00000000000E+00  0.00000000000E+00  0.79113177483E+01  0.79113181756E+01  0.26000000000E-02 0. -1.
         -2   -1    0    0    0  501 -0.00000000000E+00 -0.00000000000E+00 -0.61305142595E+02  0.61305142650E+02  0.26000000000E-02 0.  1.
        -13    1    1    2    0    0 -0.33941430255E+01 -0.13180475276E+02  0.51034651732E+00  0.13620453790E+02  0.10570000000E+00 0. -1.
         13    1    1    2    0    0  0.33941430255E+01  0.13180475276E+02 -0.53904171364E+02  0.55596007035E+02  0.10570000000E+00 0.  1.
<mgrwt>
<rscale>  0 0.44045634E+02</rscale>
<asrwt>0</asrwt>
<pdfrwt beam="1">  1        2 0.12171259E-02 0.44045634E+02</pdfrwt>
<pdfrwt beam="2">  1       -2 0.94315601E-02 0.44045634E+02</pdfrwt>
<totfact> 0.53295140E+05</totfact>
</mgrwt>
</event>
<event>
 4    1  0.3704929E-001  0.2297793E+02  0.7818608E-02  0.1691868E+00
         -2   -1    0    0    0  501 -0.00000000000E+00  0.00000000000E+00  0.22627679231E+01  0.22627694168E+01  0.26000000000E-02 0. -1.
          2   -1    0    0  501    0  0.00000000000E+00 -0.00000000000E+00 -0.58333966336E+02  0.58333966394E+02  0.26000000000E-02 0.  1.
        -13    1    1    2    0    0 -0.53203054205E+01 -0.85382635243E+01 -0.13405235322E+02  0.16760641405E+02  0.10570000000E+00 0. -1.
         13    1    1    2    0    0  0.53203054205E+01  0.85382635243E+01 -0.42665963092E+02  0.43836094406E+02  0.10570000000E+00 0.  1.
<mgrwt>
<rscale>  0 0.22977926E+02</rscale>
<asrwt>0</asrwt>
<pdfrwt beam="2">  1        2 0.89744553E-02 0.22977926E+02</pdfrwt>
<pdfrwt beam="1">  1       -2 0.34811831E-03 0.22977926E+02</pdfrwt>
<totfact> 0.34731911E+06</totfact>
</mgrwt>
</event>
<event>
 4    1  0.3704929E-001  0.2473423E+02  0.7818608E-02  0.1664849E+00
         -2   -1    0    0    0  501 -0.00000000000E+00  0.00000000000E+00  0.38408223083E+02  0.38408223171E+02  0.26000000000E-02 0.  1.
          2   -1    0    0  501    0  0.00000000000E+00 -0.00000000000E+00 -0.39821028620E+01  0.39821037108E+01  0.26000000000E-02 0. -1.
        -13    1    1    2    0    0  0.10229556792E+02  0.69286929737E+01  0.16300174440E+02  0.20453788836E+02  0.10570000000E+00 0. -1.
         13    1    1    2    0    0 -0.10229556792E+02 -0.69286929737E+01  0.18125945781E+02  0.21936538045E+02  0.10570000000E+00 0.  1.
<mgrwt>
<rscale>  0 0.24734229E+02</rscale>
<asrwt>0</asrwt>
<pdfrwt beam="2">  1        2 0.61263127E-03 0.24734229E+02</pdfrwt>
<pdfrwt beam="1">  1       -2 0.59089575E-02 0.24734229E+02</pdfrwt>
<totfact> 0.21904883E+06</totfact>
</mgrwt>
</event>
<event>
 4    1  0.3704929E-001  0.5907974E+02  0.7818608E-02  0.1401735E+00
         -2   -1    0    0    0  501 -0.00000000000E+00  0.00000000000E+00  0.21241448368E+03  0.21241448369E+03  0.26000000000E-02 0. -1.
          2   -1    0    0  501    0  0.00000000000E+00 -0.00000000000E+00 -0.41080240035E+01  0.41080248263E+01  0.26000000000E-02 0.  1.
        -13    1    1    2    0    0 -0.21140969352E+02  0.19105734782E+02  0.75617873565E+02  0.80808685558E+02  0.10570000000E+00 0.  1.
         13    1    1    2    0    0  0.21140969352E+02 -0.19105734782E+02  0.13268858611E+03  0.13571382296E+03  0.10570000000E+00 0. -1.
<mgrwt>
<rscale>  0 0.59079739E+02</rscale>
<asrwt>0</asrwt>
<pdfrwt beam="2">  1        2 0.63200344E-03 0.59079739E+02</pdfrwt>
<pdfrwt beam="1">  1       -2 0.32679168E-01 0.59079739E+02</pdfrwt>
<totfact> 0.18184939E+05</totfact>
</mgrwt>
</event>
<event>
 4    1  0.3704929E-001  0.2500445E+02  0.7818608E-02  0.1660938E+00
         -2   -1    0    0    0  501 -0.00000000000E+00  0.00000000000E+00  0.30398951242E+01  0.30398962361E+01  0.26000000000E-02 0.  1.
          2   -1    0    0  501    0  0.00000000000E+00 -0.00000000000E+00 -0.51418106185E+02  0.51418106251E+02  0.26000000000E-02 0. -1.
        -13    1    1    2    0    0  0.96174163306E+01 -0.31194091967E+01 -0.81744022777E+01  0.13002208878E+02  0.10570000000E+00 0.  1.
         13    1    1    2    0    0 -0.96174163306E+01  0.31194091967E+01 -0.40203808783E+02  0.41455793609E+02  0.10570000000E+00 0. -1.
<mgrwt>
<rscale>  0 0.25004454E+02</rscale>
<asrwt>0</asrwt>
<pdfrwt beam="2">  1        2 0.79104773E-02 0.25004454E+02</pdfrwt>
<pdfrwt beam="1">  1       -2 0.46767630E-03 0.25004454E+02</pdfrwt>
<totfact> 0.28015591E+06</totfact>
</mgrwt>
</event>
<event>
 4    1  0.3704929E-001  0.2019240E+02  0.7818608E-02  0.1741529E+00
         -2   -1    0    0    0  501 -0.00000000000E+00  0.00000000000E+00  0.28649768284E+01  0.28649780081E+01  0.26000000000E-02 0.  1.
          2   -1    0    0  501    0  0.00000000000E+00 -0.00000000000E+00 -0.35579079939E+02  0.35579080034E+02  0.26000000000E-02 0. -1.
        -13    1    1    2    0    0  0.98860488882E+01  0.19686149060E+01 -0.15292432260E+02  0.18316087579E+02  0.10570000000E+00 0. -1.
         13    1    1    2    0    0 -0.98860488882E+01 -0.19686149060E+01 -0.17421670851E+02  0.20127970464E+02  0.10570000000E+00 0.  1.
<mgrwt>
<rscale>  0 0.20192401E+02</rscale>
<asrwt>0</asrwt>
<pdfrwt beam="2">  1        2 0.54737044E-02 0.20192401E+02</pdfrwt>
<pdfrwt beam="1">  1       -2 0.44076579E-03 0.20192401E+02</pdfrwt>
<totfact> 0.43298952E+06</totfact>
</mgrwt>
</event>
<event>
 4    1  0.3704929E-001  0.5482768E+02  0.7818608E-02  0.1420916E+00
          2   -1    0    0  501    0  0.00000000000E+00  0.00000000000E+00  0.78477906718E+01  0.78477911025E+01  0.26000000000E-02 0.  1.
         -2   -1    0    0    0  501 -0.00000000000E+00 -0.00000000000E+00 -0.95761810896E+02  0.95761810931E+02  0.26000000000E-02 0. -1.
        -13    1    1    2    0    0  0.12138501993E+02  0.16722409589E+02 -0.77999741068E+02  0.80690476466E+02  0.10570000000E+00 0. -1.
         13    1    1    2    0    0 -0.12138501993E+02 -0.16722409589E+02 -0.99142791556E+01  0.22919125567E+02  0.10570000000E+00 0.  1.
<mgrwt>
<rscale>  0 0.54827682E+02</rscale>
<asrwt>0</asrwt>
<pdfrwt beam="1">  1        2 0.12073525E-02 0.54827682E+02</pdfrwt>
<pdfrwt beam="2">  1       -2 0.14732585E-01 0.54827682E+02</pdfrwt>
<totfact> 0.28478663E+05</totfact>
</mgrwt>
</event>
<event>
 4    1  0.3704929E-001  0.4571928E+02  0.7818608E-02  0.1469901E+00
         -2   -1    0    0    0  501 -0.00000000000E+00  0.00000000000E+00  0.45027923899E+01  0.45027931405E+01  0.26000000000E-02 0. -1.
          2   -1    0    0  501    0  0.00000000000E+00 -0.00000000000E+00 -0.11605310545E+03  0.11605310547E+03  0.26000000000E-02 0.  1.
        -13    1    1    2    0    0 -0.19197815382E+02 -0.52669865686E+01 -0.26146442759E+02  0.32862515187E+02  0.10570000000E+00 0. -1.
         13    1    1    2    0    0  0.19197815382E+02  0.52669865686E+01 -0.85403870296E+02  0.87693383427E+02  0.10570000000E+00 0.  1.
<mgrwt>
<rscale>  0 0.45719278E+02</rscale>
<asrwt>0</asrwt>
<pdfrwt beam="2">  1        2 0.17854322E-01 0.45719278E+02</pdfrwt>
<pdfrwt beam="1">  1       -2 0.69273744E-03 0.45719278E+02</pdfrwt>
<totfact> 0.78017679E+05</totfact>
</mgrwt>
</event>
<event>
 4    1  0.3704929E-001  0.2906899E+02  0.7818608E-02  0.1608614E+00
          2   -1    0    0  501    0  0.00000000000E+00  0.00000000000E+00  0.44128512040E+02  0.44128512117E+02  0.26000000000E-02 0. -1.
         -2   -1    0    0    0  501 -0.00000000000E+00 -0.00000000000E+00 -0.47871874811E+01  0.47871881872E+01  0.26000000000E-02 0.  1.
        -13    1    1    2    0    0  0.64084478196E+01  0.12483830329E+02  0.26039822081E+02  0.29580360540E+02  0.10570000000E+00 0. -1.
         13    1    1    2    0    0 -0.64084478196E+01 -0.12483830329E+02  0.13301502478E+02  0.19335339764E+02  0.10570000000E+00 0.  1.
<mgrwt>
<rscale>  0 0.29068986E+02</rscale>
<asrwt>0</asrwt>
<pdfrwt beam="1">  1        2 0.67890017E-02 0.29068986E+02</pdfrwt>
<pdfrwt beam="2">  1       -2 0.73649046E-03 0.29068986E+02</pdfrwt>
<totfact> 0.19217495E+06</totfact>
</mgrwt>
</event>
<event>
 4    1  0.3704929E-001  0.2902379E+02  0.7818608E-02  0.1609137E+00
         -2   -1    0    0    0  501 -0.00000000000E+00  0.00000000000E+00  0.11136436595E+02  0.11136436899E+02  0.26000000000E-02 0.  1.
          2   -1    0    0  501    0  0.00000000000E+00 -0.00000000000E+00 -0.18910458830E+02  0.18910459009E+02  0.26000000000E-02 0. -1.
        -13    1    1    2    0    0  0.10606051205E+02  0.70205889452E+01  0.33454543987E+01  0.13152194833E+02  0.10570000000E+00 0.  1.
         13    1    1    2    0    0 -0.10606051205E+02 -0.70205889452E+01 -0.11119476634E+02  0.16894701074E+02  0.10570000000E+00 0. -1.
<mgrwt>
<rscale>  0 0.29023793E+02</rscale>
<asrwt>0</asrwt>
<pdfrwt beam="2">  1        2 0.29093014E-02 0.29023793E+02</pdfrwt>
<pdfrwt beam="1">  1       -2 0.17132980E-02 0.29023793E+02</pdfrwt>
<totfact> 0.17376085E+06</totfact>
</mgrwt>
</event>
<event>
 4    1  0.3704929E-001  0.2276857E+02  0.7818608E-02  0.1695289E+00
          2   -1    0    0  501    0  0.00000000000E+00  0.00000000000E+00  0.48053901448E+01  0.48053908481E+01  0.26000000000E-02 0. -1.
         -2   -1    0    0    0  501 -0.00000000000E+00 -0.00000000000E+00 -0.26970105739E+02  0.26970105864E+02  0.26000000000E-02 0.  1.
        -13    1    1    2    0    0  0.96378410768E+01  0.60489488775E+01 -0.10613312386E+02  0.15560569894E+02  0.10570000000E+00 0. -1.
         13    1    1    2    0    0 -0.96378410768E+01 -0.60489488775E+01 -0.11551403208E+02  0.16214926818E+02  0.10570000000E+00 0.  1.
<mgrwt>
<rscale>  0 0.22768565E+02</rscale>
<asrwt>0</asrwt>
<pdfrwt beam="1">  1        2 0.73929087E-03 0.22768565E+02</pdfrwt>
<pdfrwt beam="2">  1       -2 0.41492470E-02 0.22768565E+02</pdfrwt>
<totfact> 0.27403666E+06</totfact>
</mgrwt>
</event>
<event>
 4    1  0.3704929E-001  0.2261234E+02  0.7818608E-02  0.1697872E+00
          2   -1    0    0  501    0  0.00000000000E+00  0.00000000000E+00  0.27410084503E+01  0.27410096834E+01  0.26000000000E-02 0.  1.
         -2   -1    0    0    0  501 -0.00000000000E+00 -0.00000000000E+00 -0.46635924358E+02  0.46635924430E+02  0.26000000000E-02 0. -1.
        -13    1    1    2    0    0 -0.98141690449E+01 -0.40566600886E+01 -0.13477932882E+02  0.17159261417E+02  0.10570000000E+00 0.  1.
         13    1    1    2    0    0  0.98141690449E+01  0.40566600886E+01 -0.30416983026E+02  0.32217672697E+02  0.10570000000E+00 0. -1.
<mgrwt>
<rscale>  0 0.22612341E+02</rscale>
<asrwt>0</asrwt>
<pdfrwt beam="1">  1        2 0.42169374E-03 0.22612341E+02</pdfrwt>
<pdfrwt beam="2">  1       -2 0.71747571E-02 0.22612341E+02</pdfrwt>
<totfact> 0.26106994E+06</totfact>
</mgrwt>
</event>
<event>
 4    1  0.3704929E-001  0.2762082E+02  0.7818608E-02  0.1625982E+00
         -2   -1    0    0    0  501 -0.00000000000E+00  0.00000000000E+00  0.21237441127E+01  0.21237457042E+01  0.26000000000E-02 0.  1.
          2   -1    0    0  501    0  0.00000000000E+00 -0.00000000000E+00 -0.89807119037E+02  0.89807119074E+02  0.26000000000E-02 0. -1.
        -13    1    1    2    0    0  0.42101900059E+01 -0.12150392822E+02 -0.27081203921E+02  0.29979334948E+02  0.10570000000E+00 0.  1.
         13    1    1    2    0    0 -0.42101900059E+01  0.12150392822E+02 -0.60602171003E+02  0.61951529830E+02  0.10570000000E+00 0. -1.
<mgrwt>
<rscale>  0 0.27620819E+02</rscale>
<asrwt>0</asrwt>
<pdfrwt beam="2">  1        2 0.13816477E-01 0.27620819E+02</pdfrwt>
<pdfrwt beam="1">  1       -2 0.32673006E-03 0.27620819E+02</pdfrwt>
<totfact> 0.24737188E+06</totfact>
</mgrwt>
</event>
<event>
 4    1  0.3704929E-001  0.2243800E+02  0.7818608E-02  0.1700785E+00
         -2   -1    0    0    0  501 -0.00000000000E+00  0.00000000000E+00  0.55733999512E+02  0.55733999573E+02  0.26000000000E-02 0. -1.
          2   -1    0    0  501    0  0.00000000000E+00 -0.00000000000E+00 -0.22583336275E+01  0.22583351241E+01  0.26000000000E-02 0.  1.
        -13    1    1    2    0    0 -0.65244285691E+01  0.85854299204E+01  0.18739443727E+02  0.21620723826E+02  0.10570000000E+00 0.  1.
         13    1    1    2    0    0  0.65244285691E+01 -0.85854299204E+01  0.34736222158E+02  0.36371610871E+02  0.10570000000E+00 0. -1.
<mgrwt>
<rscale>  0 0.22438004E+02</rscale>
<asrwt>0</asrwt>
<pdfrwt beam="2">  1        2 0.34743607E-03 0.22438004E+02</pdfrwt>
<pdfrwt beam="1">  1       -2 0.85744614E-02 0.22438004E+02</pdfrwt>
<totfact> 0.25876263E+06</totfact>
</mgrwt>
</event>
<event>
 4    1  0.3704929E-001  0.2573496E+02  0.7818608E-02  0.1650664E+00
         -2   -1    0    0    0  501 -0.00000000000E+00  0.00000000000E+00  0.19641310322E+01  0.19641327530E+01  0.26000000000E-02 0. -1.
          2   -1    0    0  501    0  0.00000000000E+00 -0.00000000000E+00 -0.84297843025E+02  0.84297843066E+02  0.26000000000E-02 0.  1.
        -13    1    1    2    0    0 -0.52957414300E+01 -0.11635286580E+02 -0.36267817131E+02  0.38455045222E+02  0.10570000000E+00 0. -1.
         13    1    1    2    0    0  0.52957414300E+01  0.11635286580E+02 -0.46065894863E+02  0.47806930597E+02  0.10570000000E+00 0.  1.
<mgrwt>
<rscale>  0 0.25734963E+02</rscale>
<asrwt>0</asrwt>
<pdfrwt beam="2">  1        2 0.12968896E-01 0.25734963E+02</pdfrwt>
<pdfrwt beam="1">  1       -2 0.30217421E-03 0.25734963E+02</pdfrwt>
<totfact> 0.28746971E+06</totfact>
</mgrwt>
</event>
<event>
 4    1  0.3704929E-001  0.2607669E+02  0.7818608E-02  0.1646002E+00
          2   -1    0    0  501    0  0.00000000000E+00  0.00000000000E+00  0.33935719909E+01  0.33935729869E+01  0.26000000000E-02 0.  1.
         -2   -1    0    0    0  501 -0.00000000000E+00 -0.00000000000E+00 -0.50094237687E+02  0.50094237754E+02  0.26000000000E-02 0. -1.
        -13    1    1    2    0    0 -0.83887580084E+01 -0.66128663416E+01 -0.38684276664E+02  0.40132103056E+02  0.10570000000E+00 0. -1.
         13    1    1    2    0    0  0.83887580084E+01  0.66128663416E+01 -0.80163890321E+01  0.13355707685E+02  0.10570000000E+00 0.  1.
<mgrwt>
<rscale>  0 0.26076689E+02</rscale>
<asrwt>0</asrwt>
<pdfrwt beam="1">  1        2 0.52208812E-03 0.26076689E+02</pdfrwt>
<pdfrwt beam="2">  1       -2 0.77068054E-02 0.26076689E+02</pdfrwt>
<totfact> 0.18756168E+06</totfact>
</mgrwt>
</event>
<event>
 4    1  0.3704929E-001  0.4436563E+02  0.7818608E-02  0.1478341E+00
         -2   -1    0    0    0  501 -0.00000000000E+00  0.00000000000E+00  0.30914535644E+01  0.30914546577E+01  0.26000000000E-02 0.  1.
          2   -1    0    0  501    0  0.00000000000E+00 -0.00000000000E+00 -0.15917343155E+03  0.15917343157E+03  0.26000000000E-02 0. -1.
        -13    1    1    2    0    0  0.20674687187E+02 -0.10565963917E+01 -0.48894314201E+02  0.53096367295E+02  0.10570000000E+00 0.  1.
         13    1    1    2    0    0 -0.20674687187E+02  0.10565963917E+01 -0.10718766379E+03  0.10916851894E+03  0.10570000000E+00 0. -1.
<mgrwt>
<rscale>  0 0.44365634E+02</rscale>
<asrwt>0</asrwt>
<pdfrwt beam="2">  1        2 0.24488214E-01 0.44365634E+02</pdfrwt>
<pdfrwt beam="1">  1       -2 0.47560845E-03 0.44365634E+02</pdfrwt>
<totfact> 0.92153305E+05</totfact>
</mgrwt>
</event>
<event>
 4    1  0.3704929E-001  0.6429960E+02  0.7818608E-02  0.1380626E+00
          2   -1    0    0  501    0  0.00000000000E+00  0.00000000000E+00  0.12984989438E+03  0.12984989440E+03  0.26000000000E-02 0. -1.
         -2   -1    0    0    0  501 -0.00000000000E+00 -0.00000000000E+00 -0.79600340498E+01  0.79600344744E+01  0.26000000000E-02 0.  1.
        -13    1    1    2    0    0  0.26966087466E+02  0.14312410293E+02  0.39343436534E+02  0.49798916980E+02  0.10570000000E+00 0. -1.
         13    1    1    2    0    0 -0.26966087466E+02 -0.14312410293E+02  0.82546423792E+02  0.88011011896E+02  0.10570000000E+00 0.  1.
<mgrwt>
<rscale>  0 0.64299599E+02</rscale>
<asrwt>0</asrwt>
<pdfrwt beam="1">  1        2 0.19976904E-01 0.64299599E+02</pdfrwt>
<pdfrwt beam="2">  1       -2 0.12246208E-02 0.64299599E+02</pdfrwt>
<totfact> 0.33774354E+05</totfact>
</mgrwt>
</event>
<event>
 4    1  0.3704929E-001  0.3468758E+02  0.7818608E-02  0.1551393E+00
          2   -1    0    0  501    0  0.00000000000E+00  0.00000000000E+00  0.50434621373E+02  0.50434621440E+02  0.26000000000E-02 0.  1.
         -2   -1    0    0    0  501 -0.00000000000E+00 -0.00000000000E+00 -0.59642947627E+01  0.59642953294E+01  0.26000000000E-02 0. -1.
        -13    1    1    2    0    0  0.15142552763E+02  0.34725359480E+01  0.34770546758E+02  0.38083559503E+02  0.10570000000E+00 0.  1.
         13    1    1    2    0    0 -0.15142552763E+02 -0.34725359480E+01  0.96997798519E+01  0.18315357266E+02  0.10570000000E+00 0. -1.
<mgrwt>
<rscale>  0 0.34687575E+02</rscale>
<asrwt>0</asrwt>
<pdfrwt beam="1">  1        2 0.77591726E-02 0.34687575E+02</pdfrwt>
<pdfrwt beam="2">  1       -2 0.91758386E-03 0.34687575E+02</pdfrwt>
<totfact> 0.12834437E+06</totfact>
</mgrwt>
</event>
<event>
 4    1  0.3704929E-001  0.3227130E+02  0.7818608E-02  0.1574259E+00
         -2   -1    0    0    0  501 -0.00000000000E+00  0.00000000000E+00  0.99255731428E+01  0.99255734834E+01  0.26000000000E-02 0.  1.
          2   -1    0    0  501    0  0.00000000000E+00 -0.00000000000E+00 -0.26231145701E+02  0.26231145830E+02  0.26000000000E-02 0. -1.
        -13    1    1    2    0    0  0.12571005665E+02 -0.96378528135E+01 -0.11593267930E+02  0.19629911464E+02  0.10570000000E+00 0.  1.
         13    1    1    2    0    0 -0.12571005665E+02  0.96378528135E+01 -0.47123046285E+01  0.16526807850E+02  0.10570000000E+00 0. -1.
<mgrwt>
<rscale>  0 0.32271298E+02</rscale>
<asrwt>0</asrwt>
<pdfrwt beam="2">  1        2 0.40355609E-02 0.32271298E+02</pdfrwt>
<pdfrwt beam="1">  1       -2 0.15270113E-02 0.32271298E+02</pdfrwt>
<totfact> 0.13932737E+06</totfact>
</mgrwt>
</event>
<event>
 4    1  0.3704929E-001  0.6176191E+02  0.7818608E-02  0.1390583E+00
         -2   -1    0    0    0  501 -0.00000000000E+00  0.00000000000E+00  0.22294660210E+02  0.22294660362E+02  0.26000000000E-02 0. -1.
          2   -1    0    0  501    0  0.00000000000E+00 -0.00000000000E+00 -0.42774063920E+02  0.42774063999E+02  0.26000000000E-02 0.  1.
        -13    1    1    2    0    0  0.87719528962E+01 -0.58801569011E+01 -0.40812352652E+02  0.42156644841E+02  0.10570000000E+00 0.  1.
         13    1    1    2    0    0 -0.87719528962E+01  0.58801569011E+01  0.20332948942E+02  0.22912079520E+02  0.10570000000E+00 0. -1.
<mgrwt>
<rscale>  0 0.61761905E+02</rscale>
<asrwt>0</asrwt>
<pdfrwt beam="2">  1        2 0.65806252E-02 0.61761905E+02</pdfrwt>
<pdfrwt beam="1">  1       -2 0.34299477E-02 0.61761905E+02</pdfrwt>
<totfact> 0.28597048E+05</totfact>
</mgrwt>
</event>
<event>
 4    1  0.3704929E-001  0.2110982E+02  0.7818608E-02  0.1724118E+00
         -2   -1    0    0    0  501 -0.00000000000E+00  0.00000000000E+00  0.37877373889E+01  0.37877382813E+01  0.26000000000E-02 0. -1.
          2   -1    0    0  501    0  0.00000000000E+00 -0.00000000000E+00 -0.29412312477E+02  0.29412312592E+02  0.26000000000E-02 0.  1.
        -13    1    1    2    0    0  0.72226897526E-02 -0.10033655918E+02 -0.76627894900E+01  0.12625522504E+02  0.10570000000E+00 0. -1.
         13    1    1    2    0    0 -0.72226897526E-02  0.10033655918E+02 -0.17961785598E+02  0.20574528369E+02  0.10570000000E+00 0.  1.
<mgrwt>
<rscale>  0 0.21109821E+02</rscale>
<asrwt>0</asrwt>
<pdfrwt beam="2">  1        2 0.45249711E-02 0.21109821E+02</pdfrwt>
<pdfrwt beam="1">  1       -2 0.58272893E-03 0.21109821E+02</pdfrwt>
<totfact> 0.38315738E+06</totfact>
</mgrwt>
</event>
<event>
 4    1  0.3704929E-001  0.2537564E+02  0.7818608E-02  0.1655664E+00
          2   -1    0    0  501    0  0.00000000000E+00  0.00000000000E+00  0.24598248616E+01  0.24598262357E+01  0.26000000000E-02 0.  1.
         -2   -1    0    0    0  501 -0.00000000000E+00 -0.00000000000E+00 -0.65444001372E+02  0.65444001424E+02  0.26000000000E-02 0. -1.
        -13    1    1    2    0    0 -0.66057069395E+01 -0.80939762948E+01 -0.50755517320E+02  0.51819702115E+02  0.10570000000E+00 0. -1.
         13    1    1    2    0    0  0.66057069395E+01  0.80939762948E+01 -0.12228659191E+02  0.16084125545E+02  0.10570000000E+00 0.  1.
<mgrwt>
<rscale>  0 0.25375644E+02</rscale>
<asrwt>0</asrwt>
<pdfrwt beam="1">  1        2 0.37843475E-03 0.25375644E+02</pdfrwt>
<pdfrwt beam="2">  1       -2 0.10068307E-01 0.25375644E+02</pdfrwt>
<totfact> 0.19114629E+06</totfact>
</mgrwt>
</event>
<event>
 4    1  0.3704929E-001  0.5729952E+02  0.7818608E-02  0.1409527E+00
         -2   -1    0    0    0  501 -0.00000000000E+00  0.00000000000E+00  0.11563454898E+02  0.11563455190E+02  0.26000000000E-02 0. -1.
          2   -1    0    0  501    0  0.00000000000E+00 -0.00000000000E+00 -0.70983002937E+02  0.70983002985E+02  0.26000000000E-02 0.  1.
        -13    1    1    2    0    0 -0.15986624094E+02 -0.18934251271E+02 -0.89970005793E+01  0.26363520498E+02  0.10570000000E+00 0. -1.
         13    1    1    2    0    0  0.15986624094E+02  0.18934251271E+02 -0.50422547460E+02  0.56182937677E+02  0.10570000000E+00 0.  1.
<mgrwt>
<rscale>  0 0.57299521E+02</rscale>
<asrwt>0</asrwt>
<pdfrwt beam="2">  1        2 0.10920462E-01 0.57299521E+02</pdfrwt>
<pdfrwt beam="1">  1       -2 0.17789931E-02 0.57299521E+02</pdfrwt>
<totfact> 0.38808215E+05</totfact>
</mgrwt>
</event>
<event>
 4    1  0.3704929E-001  0.4709423E+02  0.7818608E-02  0.1461676E+00
         -2   -1    0    0    0  501 -0.00000000000E+00  0.00000000000E+00  0.85061517478E+01  0.85061521452E+01  0.26000000000E-02 0. -1.
          2   -1    0    0  501    0  0.00000000000E+00 -0.00000000000E+00 -0.65184202389E+02  0.65184202441E+02  0.26000000000E-02 0.  1.
        -13    1    1    2    0    0  0.13409536245E+02 -0.18932430511E+02 -0.22040479870E+02  0.32000726754E+02  0.10570000000E+00 0.  1.
         13    1    1    2    0    0 -0.13409536245E+02  0.18932430511E+02 -0.34637570771E+02  0.41689627832E+02  0.10570000000E+00 0. -1.
<mgrwt>
<rscale>  0 0.47094235E+02</rscale>
<asrwt>0</asrwt>
<pdfrwt beam="2">  1        2 0.10028339E-01 0.47094235E+02</pdfrwt>
<pdfrwt beam="1">  1       -2 0.13086388E-02 0.47094235E+02</pdfrwt>
<totfact> 0.63017777E+05</totfact>
</mgrwt>
</event>
<event>
 4    1  0.3704929E-001  0.1114178E+03  0.7818608E-02  0.1257967E+00
          2   -1    0    0  501    0  0.00000000000E+00  0.00000000000E+00  0.54579338870E+02  0.54579338932E+02  0.26000000000E-02 0. -1.
         -2   -1    0    0    0  501 -0.00000000000E+00 -0.00000000000E+00 -0.56861857200E+02  0.56861857260E+02  0.26000000000E-02 0.  1.
        -13    1    1    2    0    0  0.34027180919E+02 -0.43805843563E+02  0.40241671189E+01  0.55614800773E+02  0.10570000000E+00 0.  1.
         13    1    1    2    0    0 -0.34027180919E+02  0.43805843563E+02 -0.63066854495E+01  0.55826395418E+02  0.10570000000E+00 0. -1.
<mgrwt>
<rscale>  0 0.11141782E+03</rscale>
<asrwt>0</asrwt>
<pdfrwt beam="1">  1        2 0.83968213E-02 0.11141782E+03</pdfrwt>
<pdfrwt beam="2">  1       -2 0.87479781E-02 0.11141782E+03</pdfrwt>
<totfact> 0.57884989E+04</totfact>
</mgrwt>
</event>
<event>
 4    1  0.3704929E-001  0.3955347E+02  0.7818608E-02  0.1511523E+00
          2   -1    0    0  501    0  0.00000000000E+00  0.00000000000E+00  0.21346392700E+02  0.21346392858E+02  0.26000000000E-02 0.  1.
         -2   -1    0    0    0  501 -0.00000000000E+00 -0.00000000000E+00 -0.18322499382E+02  0.18322499566E+02  0.26000000000E-02 0. -1.
        -13    1    1    2    0    0 -0.13004681194E+02  0.12318999748E+02 -0.68927591784E+01  0.19193769544E+02  0.10570000000E+00 0. -1.
         13    1    1    2    0    0  0.13004681194E+02 -0.12318999748E+02  0.99166524965E+01  0.20475122880E+02  0.10570000000E+00 0.  1.
<mgrwt>
<rscale>  0 0.39553471E+02</rscale>
<asrwt>0</asrwt>
<pdfrwt beam="1">  1        2 0.32840604E-02 0.39553471E+02</pdfrwt>
<pdfrwt beam="2">  1       -2 0.28188461E-02 0.39553471E+02</pdfrwt>
<totfact> 0.81809339E+05</totfact>
</mgrwt>
</event>
<event>
 4    1  0.3704929E-001  0.3725311E+02  0.7818608E-02  0.1529457E+00
          2   -1    0    0  501    0  0.00000000000E+00  0.00000000000E+00  0.32926613677E+01  0.32926623942E+01  0.26000000000E-02 0.  1.
         -2   -1    0    0    0  501 -0.00000000000E+00 -0.00000000000E+00 -0.10537025087E+03  0.10537025090E+03  0.26000000000E-02 0. -1.
        -13    1    1    2    0    0 -0.14073221288E+02 -0.84504447824E+01 -0.76712631597E+02  0.78449375992E+02  0.10570000000E+00 0. -1.
         13    1    1    2    0    0  0.14073221288E+02  0.84504447824E+01 -0.25364957906E+02  0.30213537306E+02  0.10570000000E+00 0.  1.
<mgrwt>
<rscale>  0 0.37253113E+02</rscale>
<asrwt>0</asrwt>
<pdfrwt beam="1">  1        2 0.50656345E-03 0.37253113E+02</pdfrwt>
<pdfrwt beam="2">  1       -2 0.16210805E-01 0.37253113E+02</pdfrwt>
<totfact> 0.70808323E+05</totfact>
</mgrwt>
</event>
<event>
 4    1  0.3704929E-001  0.4760078E+02  0.7818608E-02  0.1458729E+00
         -2   -1    0    0    0  501 -0.00000000000E+00  0.00000000000E+00  0.58644258134E+01  0.58644263898E+01  0.26000000000E-02 0. -1.
          2   -1    0    0  501    0  0.00000000000E+00 -0.00000000000E+00 -0.96592315651E+02  0.96592315686E+02  0.26000000000E-02 0.  1.
        -13    1    1    2    0    0 -0.11032402261E+02 -0.13562498799E+02 -0.10604432549E+02  0.20447993435E+02  0.10570000000E+00 0. -1.
         13    1    1    2    0    0  0.11032402261E+02  0.13562498799E+02 -0.80123457289E+02  0.82008748641E+02  0.10570000000E+00 0.  1.
<mgrwt>
<rscale>  0 0.47600777E+02</rscale>
<asrwt>0</asrwt>
<pdfrwt beam="2">  1        2 0.14860355E-01 0.47600777E+02</pdfrwt>
<pdfrwt beam="1">  1       -2 0.90221947E-03 0.47600777E+02</pdfrwt>
<totfact> 0.67186143E+05</totfact>
</mgrwt>
</event>
<event>
 4    1  0.3704929E-001  0.3569453E+02  0.7818608E-02  0.1542518E+00
          2   -1    0    0  501    0  0.00000000000E+00  0.00000000000E+00  0.87340923422E+01  0.87340927291E+01  0.26000000000E-02 0. -1.
         -2   -1    0    0    0  501 -0.00000000000E+00 -0.00000000000E+00 -0.36469149254E+02  0.36469149347E+02  0.26000000000E-02 0.  1.
        -13    1    1    2    0    0 -0.17634802317E+02 -0.24362973508E+01 -0.12269687003E+02  0.21621243933E+02  0.10570000000E+00 0. -1.
         13    1    1    2    0    0  0.17634802317E+02  0.24362973508E+01 -0.15465369909E+02  0.23581998144E+02  0.10570000000E+00 0.  1.
<mgrwt>
<rscale>  0 0.35694533E+02</rscale>
<asrwt>0</asrwt>
<pdfrwt beam="1">  1        2 0.13437066E-02 0.35694533E+02</pdfrwt>
<pdfrwt beam="2">  1       -2 0.56106383E-02 0.35694533E+02</pdfrwt>
<totfact> 0.95040551E+05</totfact>
</mgrwt>
</event>
<event>
 4    1  0.3704929E-001  0.6266982E+02  0.7818608E-02  0.1386957E+00
          2   -1    0    0  501    0  0.00000000000E+00  0.00000000000E+00  0.73159710843E+02  0.73159710889E+02  0.26000000000E-02 0.  1.
         -2   -1    0    0    0  501 -0.00000000000E+00 -0.00000000000E+00 -0.13421002286E+02  0.13421002538E+02  0.26000000000E-02 0. -1.
        -13    1    1    2    0    0  0.28290202147E+02 -0.13152841159E+02  0.33904938478E+02  0.46074817349E+02  0.10570000000E+00 0. -1.
         13    1    1    2    0    0 -0.28290202147E+02  0.13152841159E+02  0.25833770079E+02  0.40505896078E+02  0.10570000000E+00 0.  1.
<mgrwt>
<rscale>  0 0.62669822E+02</rscale>
<asrwt>0</asrwt>
<pdfrwt beam="1">  1        2 0.11255340E-01 0.62669822E+02</pdfrwt>
<pdfrwt beam="2">  1       -2 0.20647696E-02 0.62669822E+02</pdfrwt>
<totfact> 0.30922111E+05</totfact>
</mgrwt>
</event>
<event>
 4    1  0.3704929E-001  0.3730964E+02  0.7818608E-02  0.1528998E+00
          2   -1    0    0  501    0  0.00000000000E+00  0.00000000000E+00  0.13982468267E+02  0.13982468509E+02  0.26000000000E-02 0. -1.
         -2   -1    0    0    0  501 -0.00000000000E+00 -0.00000000000E+00 -0.24888471959E+02  0.24888472095E+02  0.26000000000E-02 0.  1.
        -13    1    1    2    0    0 -0.47066519885E+01 -0.17066175629E+02  0.67392587900E+00  0.17716440730E+02  0.10570000000E+00 0. -1.
         13    1    1    2    0    0  0.47066519885E+01  0.17066175629E+02 -0.11579929571E+02  0.21154499874E+02  0.10570000000E+00 0.  1.
<mgrwt>
<rscale>  0 0.37309638E+02</rscale>
<asrwt>0</asrwt>
<pdfrwt beam="1">  1        2 0.21511490E-02 0.37309638E+02</pdfrwt>
<pdfrwt beam="2">  1       -2 0.38289957E-02 0.37309638E+02</pdfrwt>
<totfact> 0.90022987E+05</totfact>
</mgrwt>
</event>
<event>
 4    1  0.3704929E-001  0.2761502E+02  0.7818608E-02  0.1626054E+00
          2   -1    0    0  501    0  0.00000000000E+00  0.00000000000E+00  0.10641362415E+03  0.10641362418E+03  0.26000000000E-02 0. -1.
         -2   -1    0    0    0  501 -0.00000000000E+00 -0.00000000000E+00 -0.17915680706E+01  0.17915699572E+01  0.26000000000E-02 0.  1.
        -13    1    1    2    0    0 -0.73801669718E+00 -0.13364879192E+02  0.65582318949E+02  0.66934418617E+02  0.10570000000E+00 0. -1.
         13    1    1    2    0    0  0.73801669718E+00  0.13364879192E+02  0.39039737133E+02  0.41270775524E+02  0.10570000000E+00 0.  1.
<mgrwt>
<rscale>  0 0.27615022E+02</rscale>
<asrwt>0</asrwt>
<pdfrwt beam="1">  1        2 0.16371331E-01 0.27615022E+02</pdfrwt>
<pdfrwt beam="2">  1       -2 0.27562594E-03 0.27615022E+02</pdfrwt>
<totfact> 0.25756001E+06</totfact>
</mgrwt>
</event>
<event>
 4    1  0.3704929E-001  0.2279939E+02  0.7818608E-02  0.1694783E+00
         -2   -1    0    0    0  501 -0.00000000000E+00  0.00000000000E+00  0.19189859025E+01  0.19189876638E+01  0.26000000000E-02 0. -1.
          2   -1    0    0  501    0  0.00000000000E+00 -0.00000000000E+00 -0.67719638744E+02  0.67719638794E+02  0.26000000000E-02 0.  1.
        -13    1    1    2    0    0  0.10303834021E+02 -0.67977465016E+00 -0.47647398013E+02  0.48753633701E+02  0.10570000000E+00 0.  1.
         13    1    1    2    0    0 -0.10303834021E+02  0.67977465016E+00 -0.18153254829E+02  0.20884992757E+02  0.10570000000E+00 0. -1.
<mgrwt>
<rscale>  0 0.22799394E+02</rscale>
<asrwt>0</asrwt>
<pdfrwt beam="2">  1        2 0.10418404E-01 0.22799394E+02</pdfrwt>
<pdfrwt beam="1">  1       -2 0.29522879E-03 0.22799394E+02</pdfrwt>
<totfact> 0.36306759E+06</totfact>
</mgrwt>
</event>
<event>
 4    1  0.3704929E-001  0.3375624E+02  0.7818608E-02  0.1559931E+00
         -2   -1    0    0    0  501 -0.00000000000E+00  0.00000000000E+00  0.95508457105E+01  0.95508460644E+01  0.26000000000E-02 0. -1.
          2   -1    0    0  501    0  0.00000000000E+00 -0.00000000000E+00 -0.29826781925E+02  0.29826782039E+02  0.26000000000E-02 0.  1.
        -13    1    1    2    0    0  0.66934397292E+01 -0.10060015053E+02 -0.23883903754E+02  0.26766734379E+02  0.10570000000E+00 0.  1.
         13    1    1    2    0    0 -0.66934397292E+01  0.10060015053E+02  0.36079675392E+01  0.12610893724E+02  0.10570000000E+00 0. -1.
<mgrwt>
<rscale>  0 0.33756244E+02</rscale>
<asrwt>0</asrwt>
<pdfrwt beam="2">  1        2 0.45887357E-02 0.33756244E+02</pdfrwt>
<pdfrwt beam="1">  1       -2 0.14693609E-02 0.33756244E+02</pdfrwt>
<totfact> 0.12685273E+06</totfact>
</mgrwt>
</event>
<event>
 4    1  0.3704929E-001  0.2586340E+02  0.7818608E-02  0.1648901E+00
         -2   -1    0    0    0  501 -0.00000000000E+00  0.00000000000E+00  0.40070249449E+02  0.40070249533E+02  0.26000000000E-02 0.  1.
          2   -1    0    0  501    0  0.00000000000E+00 -0.00000000000E+00 -0.41733931885E+01  0.41733939984E+01  0.26000000000E-02 0. -1.
        -13    1    1    2    0    0  0.32771477268E+01  0.95006018774E+01  0.40281249707E+01  0.10827654249E+02  0.10570000000E+00 0. -1.
         13    1    1    2    0    0 -0.32771477268E+01 -0.95006018774E+01  0.31868731289E+02  0.33415989283E+02  0.10570000000E+00 0.  1.
<mgrwt>
<rscale>  0 0.25863405E+02</rscale>
<asrwt>0</asrwt>
<pdfrwt beam="2">  1        2 0.64206054E-03 0.25863405E+02</pdfrwt>
<pdfrwt beam="1">  1       -2 0.61646540E-02 0.25863405E+02</pdfrwt>
<totfact> 0.19699711E+06</totfact>
</mgrwt>
</event>
<event>
 4    1  0.3704929E-001  0.3971854E+02  0.7818608E-02  0.1510293E+00
          2   -1    0    0  501    0  0.00000000000E+00  0.00000000000E+00  0.15388517554E+03  0.15388517556E+03  0.26000000000E-02 0.  1.
         -2   -1    0    0    0  501 -0.00000000000E+00 -0.00000000000E+00 -0.25628882957E+01  0.25628896145E+01  0.26000000000E-02 0. -1.
        -13    1    1    2    0    0 -0.17555777343E+02  0.66378352292E+01  0.10122264801E+03  0.10294805397E+03  0.10570000000E+00 0.  1.
         13    1    1    2    0    0  0.17555777343E+02 -0.66378352292E+01  0.50099639235E+02  0.53500011202E+02  0.10570000000E+00 0. -1.
<mgrwt>
<rscale>  0 0.39718541E+02</rscale>
<asrwt>0</asrwt>
<pdfrwt beam="1">  1        2 0.23674639E-01 0.39718541E+02</pdfrwt>
<pdfrwt beam="2">  1       -2 0.39429067E-03 0.39718541E+02</pdfrwt>
<totfact> 0.11970905E+06</totfact>
</mgrwt>
</event>
<event>
 4    1  0.3704929E-001  0.3815828E+02  0.7818608E-02  0.1522219E+00
          2   -1    0    0  501    0  0.00000000000E+00  0.00000000000E+00  0.45052951643E+02  0.45052951718E+02  0.26000000000E-02 0.  1.
         -2   -1    0    0    0  501 -0.00000000000E+00 -0.00000000000E+00 -0.80796839680E+01  0.80796843864E+01  0.26000000000E-02 0. -1.
        -13    1    1    2    0    0  0.53892056548E+01  0.95701017840E+01 -0.32357714752E+01  0.11450405027E+02  0.10570000000E+00 0. -1.
         13    1    1    2    0    0 -0.53892056548E+01 -0.95701017840E+01  0.40209039150E+02  0.41682231078E+02  0.10570000000E+00 0.  1.
<mgrwt>
<rscale>  0 0.38158282E+02</rscale>
<asrwt>0</asrwt>
<pdfrwt beam="1">  1        2 0.69312233E-02 0.38158282E+02</pdfrwt>
<pdfrwt beam="2">  1       -2 0.12430284E-02 0.38158282E+02</pdfrwt>
<totfact> 0.99639740E+05</totfact>
</mgrwt>
</event>
<event>
 4    1  0.3704929E-001  0.5894993E+02  0.7818608E-02  0.1402292E+00
          2   -1    0    0  501    0  0.00000000000E+00  0.00000000000E+00  0.67067279314E+02  0.67067279365E+02  0.26000000000E-02 0.  1.
         -2   -1    0    0    0  501 -0.00000000000E+00 -0.00000000000E+00 -0.12953760718E+02  0.12953760979E+02  0.26000000000E-02 0. -1.
        -13    1    1    2    0    0  0.74024641562E+01  0.85982761208E+01  0.63984028440E+02  0.64982258315E+02  0.10570000000E+00 0.  1.
         13    1    1    2    0    0 -0.74024641562E+01 -0.85982761208E+01 -0.98705098437E+01  0.15038782028E+02  0.10570000000E+00 0. -1.
<mgrwt>
<rscale>  0 0.58949928E+02</rscale>
<asrwt>0</asrwt>
<pdfrwt beam="1">  1        2 0.10318043E-01 0.58949928E+02</pdfrwt>
<pdfrwt beam="2">  1       -2 0.19928862E-02 0.58949928E+02</pdfrwt>
<totfact> 0.35572776E+05</totfact>
</mgrwt>
</event>
<event>
 4    1  0.3704929E-001  0.2154112E+02  0.7818608E-02  0.1716311E+00
          2   -1    0    0  501    0  0.00000000000E+00  0.00000000000E+00  0.19753871312E+01  0.19753888423E+01  0.26000000000E-02 0.  1.
         -2   -1    0    0    0  501 -0.00000000000E+00 -0.00000000000E+00 -0.58725165364E+02  0.58725165421E+02  0.26000000000E-02 0. -1.
        -13    1    1    2    0    0  0.24435014278E+01 -0.10155713390E+02 -0.35768622580E+02  0.37262779653E+02  0.10570000000E+00 0. -1.
         13    1    1    2    0    0 -0.24435014278E+01  0.10155713390E+02 -0.20981155652E+02  0.23437774610E+02  0.10570000000E+00 0.  1.
<mgrwt>
<rscale>  0 0.21541122E+02</rscale>
<asrwt>0</asrwt>
<pdfrwt beam="1">  1        2 0.30390589E-03 0.21541122E+02</pdfrwt>
<pdfrwt beam="2">  1       -2 0.90346396E-02 0.21541122E+02</pdfrwt>
<totfact> 0.28093282E+06</totfact>
</mgrwt>
</event>
<event>
 4    1  0.3704929E-001  0.2380454E+02  0.7818608E-02  0.1678791E+00
         -2   -1    0    0    0  501 -0.00000000000E+00  0.00000000000E+00  0.40338800606E+01  0.40338808985E+01  0.26000000000E-02 0. -1.
          2   -1    0    0  501    0  0.00000000000E+00 -0.00000000000E+00 -0.35118543960E+02  0.35118544056E+02  0.26000000000E-02 0.  1.
        -13    1    1    2    0    0 -0.64501247784E+01  0.93981505946E+01 -0.99107881469E+01  0.15105106370E+02  0.10570000000E+00 0.  1.
         13    1    1    2    0    0  0.64501247784E+01 -0.93981505946E+01 -0.21173875752E+02  0.24047318585E+02  0.10570000000E+00 0. -1.
<mgrwt>
<rscale>  0 0.23804538E+02</rscale>
<asrwt>0</asrwt>
<pdfrwt beam="2">  1        2 0.54028528E-02 0.23804538E+02</pdfrwt>
<pdfrwt beam="1">  1       -2 0.62059703E-03 0.23804538E+02</pdfrwt>
<totfact> 0.29727826E+06</totfact>
</mgrwt>
</event>
<event>
 4    1  0.3704929E-001  0.3139074E+02  0.7818608E-02  0.1583206E+00
         -2   -1    0    0    0  501 -0.00000000000E+00  0.00000000000E+00  0.93802661624E+01  0.93802665228E+01  0.26000000000E-02 0.  1.
          2   -1    0    0  501    0  0.00000000000E+00 -0.00000000000E+00 -0.26262001938E+02  0.26262002067E+02  0.26000000000E-02 0. -1.
        -13    1    1    2    0    0 -0.15509301159E+02  0.23576132094E+01 -0.89932118837E+01  0.18082748546E+02  0.10570000000E+00 0. -1.
         13    1    1    2    0    0  0.15509301159E+02 -0.23576132094E+01 -0.78885238922E+01  0.17559520044E+02  0.10570000000E+00 0.  1.
<mgrwt>
<rscale>  0 0.31390736E+02</rscale>
<asrwt>0</asrwt>
<pdfrwt beam="2">  1        2 0.40403080E-02 0.31390736E+02</pdfrwt>
<pdfrwt beam="1">  1       -2 0.14431179E-02 0.31390736E+02</pdfrwt>
<totfact> 0.14905822E+06</totfact>
</mgrwt>
</event>
<event>
 4    1  0.3704929E-001  0.2646411E+02  0.7818608E-02  0.1640821E+00
          2   -1    0    0  501    0  0.00000000000E+00  0.00000000000E+00  0.15922640320E+02  0.15922640532E+02  0.26000000000E-02 0.  1.
         -2   -1    0    0    0  501 -0.00000000000E+00 -0.00000000000E+00 -0.10996124599E+02  0.10996124906E+02  0.26000000000E-02 0. -1.
        -13    1    1    2    0    0  0.33429909875E+01 -0.10690715941E+02 -0.47011247171E+01  0.12148199133E+02  0.10570000000E+00 0. -1.
         13    1    1    2    0    0 -0.33429909875E+01  0.10690715941E+02  0.96276404382E+01  0.14770566305E+02  0.10570000000E+00 0.  1.
<mgrwt>
<rscale>  0 0.26464115E+02</rscale>
<asrwt>0</asrwt>
<pdfrwt beam="1">  1        2 0.24496370E-02 0.26464115E+02</pdfrwt>
<pdfrwt beam="2">  1       -2 0.16917115E-02 0.26464115E+02</pdfrwt>
<totfact> 0.21318057E+06</totfact>
</mgrwt>
</event>
<event>
 4    1  0.3704929E-001  0.2482266E+02  0.7818608E-02  0.1663562E+00
         -2   -1    0    0    0  501 -0.00000000000E+00  0.00000000000E+00  0.97342978903E+01  0.97342982376E+01  0.26000000000E-02 0. -1.
          2   -1    0    0  501    0  0.00000000000E+00 -0.00000000000E+00 -0.15824571022E+02  0.15824571236E+02  0.26000000000E-02 0.  1.
        -13    1    1    2    0    0 -0.11937312098E+02 -0.32835075883E+01 -0.39363006439E+01  0.12991784999E+02  0.10570000000E+00 0.  1.
         13    1    1    2    0    0  0.11937312098E+02  0.32835075883E+01 -0.21539724878E+01  0.12567084474E+02  0.10570000000E+00 0. -1.
<mgrwt>
<rscale>  0 0.24822659E+02</rscale>
<asrwt>0</asrwt>
<pdfrwt beam="2">  1        2 0.24345494E-02 0.24822659E+02</pdfrwt>
<pdfrwt beam="1">  1       -2 0.14975843E-02 0.24822659E+02</pdfrwt>
<totfact> 0.24802730E+06</totfact>
</mgrwt>
</event>
<event>
 4    1  0.3704929E-001  0.2055988E+02  0.7818608E-02  0.1734418E+00
          2   -1    0    0  501    0  0.00000000000E+00  0.00000000000E+00  0.23478996208E+01  0.23479010604E+01  0.26000000000E-02 0.  1.
         -2   -1    0    0    0  501 -0.00000000000E+00 -0.00000000000E+00 -0.45009208948E+02  0.45009209023E+02  0.26000000000E-02 0. -1.
        -13    1    1    2    0    0  0.48391077527E+01  0.89285664928E+01 -0.24994183126E+02  0.26978818100E+02  0.10570000000E+00 0.  1.
         13    1    1    2    0    0 -0.48391077527E+01 -0.89285664928E+01 -0.17667126202E+02  0.20378291984E+02  0.10570000000E+00 0. -1.
<mgrwt>
<rscale>  0 0.20559877E+02</rscale>
<asrwt>0</asrwt>
<pdfrwt beam="1">  1        2 0.36121548E-03 0.20559877E+02</pdfrwt>
<pdfrwt beam="2">  1       -2 0.69244931E-02 0.20559877E+02</pdfrwt>
<totfact> 0.32377549E+06</totfact>
</mgrwt>
</event>
<event>
 4    1  0.3704929E-001  0.2491695E+02  0.7818608E-02  0.1662198E+00
          2   -1    0    0  501    0  0.00000000000E+00  0.00000000000E+00  0.73864380625E+02  0.73864380671E+02  0.26000000000E-02 0.  1.
         -2   -1    0    0    0  501 -0.00000000000E+00 -0.00000000000E+00 -0.21013306033E+01  0.21013322118E+01  0.26000000000E-02 0. -1.
        -13    1    1    2    0    0 -0.63769451124E+01  0.10437368752E+02  0.43095091810E+02  0.44797345971E+02  0.10570000000E+00 0. -1.
         13    1    1    2    0    0  0.63769451124E+01 -0.10437368752E+02  0.28667958212E+02  0.31168366912E+02  0.10570000000E+00 0.  1.
<mgrwt>
<rscale>  0 0.24916946E+02</rscale>
<asrwt>0</asrwt>
<pdfrwt beam="1">  1        2 0.11363751E-01 0.24916946E+02</pdfrwt>
<pdfrwt beam="2">  1       -2 0.32328177E-03 0.24916946E+02</pdfrwt>
<totfact> 0.30135877E+06</totfact>
</mgrwt>
</event>
<event>
 4    1  0.3704929E-001  0.2994551E+02  0.7818608E-02  0.1598692E+00
         -2   -1    0    0    0  501 -0.00000000000E+00  0.00000000000E+00  0.33035947796E+01  0.33035958027E+01  0.26000000000E-02 0. -1.
          2   -1    0    0  501    0  0.00000000000E+00 -0.00000000000E+00 -0.67860411652E+02  0.67860411702E+02  0.26000000000E-02 0.  1.
        -13    1    1    2    0    0 -0.38643764620E+01  0.12736998333E+02 -0.48571854094E+02  0.50362691693E+02  0.10570000000E+00 0.  1.
         13    1    1    2    0    0  0.38643764620E+01 -0.12736998333E+02 -0.15984962779E+02  0.20801315812E+02  0.10570000000E+00 0. -1.
<mgrwt>
<rscale>  0 0.29945506E+02</rscale>
<asrwt>0</asrwt>
<pdfrwt beam="2">  1        2 0.10440062E-01 0.29945506E+02</pdfrwt>
<pdfrwt beam="1">  1       -2 0.50824548E-03 0.29945506E+02</pdfrwt>
<totfact> 0.19288008E+06</totfact>
</mgrwt>
</event>
<event>
 4    1  0.3704929E-001  0.2235162E+02  0.7818608E-02  0.1702241E+00
         -2   -1    0    0    0  501 -0.00000000000E+00  0.00000000000E+00  0.28187155757E+02  0.28187155877E+02  0.26000000000E-02 0.  1.
          2   -1    0    0  501    0  0.00000000000E+00 -0.00000000000E+00 -0.44310492431E+01  0.44310500059E+01  0.26000000000E-02 0. -1.
        -13    1    1    2    0    0 -0.84828113850E+01 -0.68555161307E+01  0.83239744373E+01  0.13720638226E+02  0.10570000000E+00 0. -1.
         13    1    1    2    0    0  0.84828113850E+01  0.68555161307E+01  0.15432132076E+02  0.18897567656E+02  0.10570000000E+00 0.  1.
<mgrwt>
<rscale>  0 0.22351616E+02</rscale>
<asrwt>0</asrwt>
<pdfrwt beam="2">  1        2 0.68169994E-03 0.22351616E+02</pdfrwt>
<pdfrwt beam="1">  1       -2 0.43364856E-02 0.22351616E+02</pdfrwt>
<totfact> 0.28422900E+06</totfact>
</mgrwt>
</event>
<event>
 4    1  0.3704929E-001  0.4938470E+02  0.7818608E-02  0.1448689E+00
          2   -1    0    0  501    0  0.00000000000E+00  0.00000000000E+00  0.47350517492E+02  0.47350517563E+02  0.26000000000E-02 0.  1.
         -2   -1    0    0    0  501 -0.00000000000E+00 -0.00000000000E+00 -0.12876567240E+02  0.12876567502E+02  0.26000000000E-02 0. -1.
        -13    1    1    2    0    0 -0.22245671860E+02  0.66862673460E+01  0.70243951158E+01  0.24267867371E+02  0.10570000000E+00 0. -1.
         13    1    1    2    0    0  0.22245671860E+02 -0.66862673460E+01  0.27449555136E+02  0.35959217694E+02  0.10570000000E+00 0.  1.
<mgrwt>
<rscale>  0 0.49384699E+02</rscale>
<asrwt>0</asrwt>
<pdfrwt beam="1">  1        2 0.72846951E-02 0.49384699E+02</pdfrwt>
<pdfrwt beam="2">  1       -2 0.19810104E-02 0.49384699E+02</pdfrwt>
<totfact> 0.52420889E+05</totfact>
</mgrwt>
</event>
<event>
 4    1  0.3704929E-001  0.3001865E+02  0.7818608E-02  0.1597883E+00
          2   -1    0    0  501    0  0.00000000000E+00  0.00000000000E+00  0.68181213189E+01  0.68181218146E+01  0.26000000000E-02 0.  1.
         -2   -1    0    0    0  501 -0.00000000000E+00 -0.00000000000E+00 -0.33041342514E+02  0.33041342616E+02  0.26000000000E-02 0. -1.
        -13    1    1    2    0    0 -0.11486901446E+02 -0.96424183396E+01 -0.13889929036E+02  0.20441781659E+02  0.10570000000E+00 0. -1.
         13    1    1    2    0    0  0.11486901446E+02  0.96424183396E+01 -0.12333292159E+02  0.19417682772E+02  0.10570000000E+00 0.  1.
<mgrwt>
<rscale>  0 0.30018654E+02</rscale>
<asrwt>0</asrwt>
<pdfrwt beam="1">  1        2 0.10489418E-02 0.30018654E+02</pdfrwt>
<pdfrwt beam="2">  1       -2 0.50832834E-02 0.30018654E+02</pdfrwt>
<totfact> 0.14364570E+06</totfact>
</mgrwt>
</event>
<event>
 4    1  0.3704929E-001  0.2698500E+02  0.7818608E-02  0.1634025E+00
          2   -1    0    0  501    0  0.00000000000E+00  0.00000000000E+00  0.46463991102E+01  0.46463998376E+01  0.26000000000E-02 0. -1.
         -2   -1    0    0    0  501 -0.00000000000E+00 -0.00000000000E+00 -0.39180358150E+02  0.39180358236E+02  0.26000000000E-02 0.  1.
        -13    1    1    2    0    0  0.19754540409E+01  0.98870883618E+01 -0.31827922479E+02  0.33386894985E+02  0.10570000000E+00 0.  1.
         13    1    1    2    0    0 -0.19754540409E+01 -0.98870883618E+01 -0.27060365602E+01  0.10439863088E+02  0.10570000000E+00 0. -1.
<mgrwt>
<rscale>  0 0.26985003E+02</rscale>
<asrwt>0</asrwt>
<pdfrwt beam="1">  1        2 0.71483072E-03 0.26985003E+02</pdfrwt>
<pdfrwt beam="2">  1       -2 0.60277473E-02 0.26985003E+02</pdfrwt>
<totfact> 0.17941576E+06</totfact>
</mgrwt>
</event>
<event>
 4    1  0.3704929E-001  0.2309793E+02  0.7818608E-02  0.1689928E+00
          2   -1    0    0  501    0  0.00000000000E+00  0.00000000000E+00  0.27778525267E+01  0.27778537434E+01  0.26000000000E-02 0.  1.
         -2   -1    0    0    0  501 -0.00000000000E+00 -0.00000000000E+00 -0.48015007995E+02  0.48015008065E+02  0.26000000000E-02 0. -1.
        -13    1    1    2    0    0 -0.12267160463E+00 -0.11346418052E+02 -0.27340702801E+02  0.29602051501E+02  0.10570000000E+00 0.  1.
         13    1    1    2    0    0  0.12267160463E+00  0.11346418052E+02 -0.17896452667E+02  0.21190810308E+02  0.10570000000E+00 0. -1.
<mgrwt>
<rscale>  0 0.23097934E+02</rscale>
<asrwt>0</asrwt>
<pdfrwt beam="1">  1        2 0.42736206E-03 0.23097934E+02</pdfrwt>
<pdfrwt beam="2">  1       -2 0.73869238E-02 0.23097934E+02</pdfrwt>
<totfact> 0.24798466E+06</totfact>
</mgrwt>
</event>
<event>
 4    1  0.3704929E-001  0.2796125E+02  0.7818608E-02  0.1621783E+00
          2   -1    0    0  501    0  0.00000000000E+00  0.00000000000E+00  0.10859876324E+03  0.10859876328E+03  0.26000000000E-02 0. -1.
         -2   -1    0    0    0  501 -0.00000000000E+00 -0.00000000000E+00 -0.17998156908E+01  0.17998175688E+01  0.26000000000E-02 0.  1.
        -13    1    1    2    0    0 -0.13884684649E+02  0.87286327971E+00  0.47956681456E+02  0.49933964662E+02  0.10570000000E+00 0. -1.
         13    1    1    2    0    0  0.13884684649E+02 -0.87286327971E+00  0.58842266098E+02  0.60464616183E+02  0.10570000000E+00 0.  1.
<mgrwt>
<rscale>  0 0.27961249E+02</rscale>
<asrwt>0</asrwt>
<pdfrwt beam="1">  1        2 0.16707499E-01 0.27961249E+02</pdfrwt>
<pdfrwt beam="2">  1       -2 0.27689491E-03 0.27961249E+02</pdfrwt>
<totfact> 0.25144952E+06</totfact>
</mgrwt>
</event>
<event>
 4    1  0.3704929E-001  0.2627911E+02  0.7818608E-02  0.1643281E+00
          2   -1    0    0  501    0  0.00000000000E+00  0.00000000000E+00  0.46417921963E+01  0.46417929245E+01  0.26000000000E-02 0. -1.
         -2   -1    0    0    0  501 -0.00000000000E+00 -0.00000000000E+00 -0.37194220675E+02  0.37194220766E+02  0.26000000000E-02 0.  1.
        -13    1    1    2    0    0  0.12661842229E+02 -0.35019739572E+01 -0.15918042910E+02  0.20639315221E+02  0.10570000000E+00 0. -1.
         13    1    1    2    0    0 -0.12661842229E+02  0.35019739572E+01 -0.16634385569E+02  0.21196698469E+02  0.10570000000E+00 0.  1.
<mgrwt>
<rscale>  0 0.26279107E+02</rscale>
<asrwt>0</asrwt>
<pdfrwt beam="1">  1        2 0.71412196E-03 0.26279107E+02</pdfrwt>
<pdfrwt beam="2">  1       -2 0.57221877E-02 0.26279107E+02</pdfrwt>
<totfact> 0.19177832E+06</totfact>
</mgrwt>
</event>
<event>
 4    1  0.3704929E-001  0.3638830E+02  0.7818608E-02  0.1536607E+00
          2   -1    0    0  501    0  0.00000000000E+00  0.00000000000E+00  0.20110780563E+03  0.20110780564E+03  0.26000000000E-02 0.  1.
         -2   -1    0    0    0  501 -0.00000000000E+00 -0.00000000000E+00 -0.16460168946E+01  0.16460189481E+01  0.26000000000E-02 0. -1.
        -13    1    1    2    0    0 -0.15931124335E+02 -0.87849922915E+01  0.98629521610E+02  0.10029342211E+03  0.10570000000E+00 0. -1.
         13    1    1    2    0    0  0.15931124335E+02  0.87849922915E+01  0.10083226712E+03  0.10246040249E+03  0.10570000000E+00 0.  1.
<mgrwt>
<rscale>  0 0.36388298E+02</rscale>
<asrwt>0</asrwt>
<pdfrwt beam="1">  1        2 0.30939655E-01 0.36388298E+02</pdfrwt>
<pdfrwt beam="2">  1       -2 0.25323359E-03 0.36388298E+02</pdfrwt>
<totfact> 0.16081806E+06</totfact>
</mgrwt>
</event>
<event>
 4    1  0.3704929E-001  0.3016432E+02  0.7818608E-02  0.1596279E+00
          2   -1    0    0  501    0  0.00000000000E+00  0.00000000000E+00  0.98943302765E+02  0.98943302799E+02  0.26000000000E-02 0.  1.
         -2   -1    0    0    0  501 -0.00000000000E+00 -0.00000000000E+00 -0.22990076515E+01  0.22990091217E+01  0.26000000000E-02 0. -1.
        -13    1    1    2    0    0 -0.66618570622E+00 -0.14390181575E+02  0.33334886467E+02  0.36314555723E+02  0.10570000000E+00 0. -1.
         13    1    1    2    0    0  0.66618570622E+00  0.14390181575E+02  0.63309408647E+02  0.64927756197E+02  0.10570000000E+00 0.  1.
<mgrwt>
<rscale>  0 0.30164316E+02</rscale>
<asrwt>0</asrwt>
<pdfrwt beam="1">  1        2 0.15222045E-01 0.30164316E+02</pdfrwt>
<pdfrwt beam="2">  1       -2 0.35369365E-03 0.30164316E+02</pdfrwt>
<totfact> 0.20574643E+06</totfact>
</mgrwt>
</event>
<event>
 4    1  0.3704929E-001  0.7770479E+02  0.7818608E-02  0.1335694E+00
          2   -1    0    0  501    0  0.00000000000E+00  0.00000000000E+00  0.10219308277E+03  0.10219308280E+03  0.26000000000E-02 0. -1.
         -2   -1    0    0    0  501 -0.00000000000E+00 -0.00000000000E+00 -0.14771144204E+02  0.14771144433E+02  0.26000000000E-02 0.  1.
        -13    1    1    2    0    0 -0.23509763567E+02 -0.27692658354E+02  0.64454074789E+02  0.73986020566E+02  0.10570000000E+00 0. -1.
         13    1    1    2    0    0  0.23509763567E+02  0.27692658354E+02  0.22967863777E+02  0.42978206671E+02  0.10570000000E+00 0.  1.
<mgrwt>
<rscale>  0 0.77704795E+02</rscale>
<asrwt>0</asrwt>
<pdfrwt beam="1">  1        2 0.15722013E-01 0.77704795E+02</pdfrwt>
<pdfrwt beam="2">  1       -2 0.22724836E-02 0.77704795E+02</pdfrwt>
<totfact> 0.19070585E+05</totfact>
</mgrwt>
</event>
<event>
 4    1  0.3704929E-001  0.4554984E+02  0.7818608E-02  0.1470938E+00
          2   -1    0    0  501    0  0.00000000000E+00  0.00000000000E+00  0.60492990411E+01  0.60492995999E+01  0.26000000000E-02 0.  1.
         -2   -1    0    0    0  501 -0.00000000000E+00 -0.00000000000E+00 -0.85744959907E+02  0.85744959946E+02  0.26000000000E-02 0. -1.
        -13    1    1    2    0    0 -0.17824147606E+02 -0.31445401834E+01 -0.67706223603E+02  0.70083751739E+02  0.10570000000E+00 0. -1.
         13    1    1    2    0    0  0.17824147606E+02  0.31445401834E+01 -0.11989437263E+02  0.21710507807E+02  0.10570000000E+00 0.  1.
<mgrwt>
<rscale>  0 0.45549838E+02</rscale>
<asrwt>0</asrwt>
<pdfrwt beam="1">  1        2 0.93066150E-03 0.45549838E+02</pdfrwt>
<pdfrwt beam="2">  1       -2 0.13191531E-01 0.45549838E+02</pdfrwt>
<totfact> 0.45918260E+05</totfact>
</mgrwt>
</event>
<event>
 4    1  0.3704929E-001  0.3675153E+02  0.7818608E-02  0.1533575E+00
          2   -1    0    0  501    0  0.00000000000E+00  0.00000000000E+00  0.63535206187E+02  0.63535206240E+02  0.26000000000E-02 0. -1.
         -2   -1    0    0    0  501 -0.00000000000E+00 -0.00000000000E+00 -0.53146701639E+01  0.53146707999E+01  0.26000000000E-02 0.  1.
        -13    1    1    2    0    0  0.39182241698E-03  0.16716085332E+02  0.43405828871E+02  0.46513489027E+02  0.10570000000E+00 0. -1.
         13    1    1    2    0    0 -0.39182241698E-03 -0.16716085332E+02  0.14814707153E+02  0.22336388014E+02  0.10570000000E+00 0.  1.
<mgrwt>
<rscale>  0 0.36751527E+02</rscale>
<asrwt>0</asrwt>
<pdfrwt beam="1">  1        2 0.97746470E-02 0.36751527E+02</pdfrwt>
<pdfrwt beam="2">  1       -2 0.81764163E-03 0.36751527E+02</pdfrwt>
<totfact> 0.11625635E+06</totfact>
</mgrwt>
</event>
<event>
 4    1  0.3704929E-001  0.2057443E+02  0.7818608E-02  0.1734140E+00
         -2   -1    0    0    0  501 -0.00000000000E+00  0.00000000000E+00  0.92410200901E+01  0.92410204559E+01  0.26000000000E-02 0.  1.
          2   -1    0    0  501    0  0.00000000000E+00 -0.00000000000E+00 -0.11451847926E+02  0.11451848221E+02  0.26000000000E-02 0. -1.
        -13    1    1    2    0    0 -0.10013947545E+02  0.40933452375E+00  0.12250116631E+01  0.10097451473E+02  0.10570000000E+00 0.  1.
         13    1    1    2    0    0  0.10013947545E+02 -0.40933452375E+00 -0.34358394990E+01  0.10595417204E+02  0.10570000000E+00 0. -1.
<mgrwt>
<rscale>  0 0.20574427E+02</rscale>
<asrwt>0</asrwt>
<pdfrwt beam="2">  1        2 0.17618228E-02 0.20574427E+02</pdfrwt>
<pdfrwt beam="1">  1       -2 0.14216954E-02 0.20574427E+02</pdfrwt>
<totfact> 0.37360954E+06</totfact>
</mgrwt>
</event>
<event>
 4    1  0.3704929E-001  0.5275176E+02  0.7818608E-02  0.1431040E+00
          2   -1    0    0  501    0  0.00000000000E+00  0.00000000000E+00  0.76482280249E+02  0.76482280294E+02  0.26000000000E-02 0. -1.
         -2   -1    0    0    0  501 -0.00000000000E+00 -0.00000000000E+00 -0.90960553866E+01  0.90960557582E+01  0.26000000000E-02 0.  1.
        -13    1    1    2    0    0  0.17331501458E+02 -0.11147778634E+00  0.65946897425E+02  0.68186492963E+02  0.10570000000E+00 0. -1.
         13    1    1    2    0    0 -0.17331501458E+02  0.11147778634E+00  0.14393274380E+01  0.17391843089E+02  0.10570000000E+00 0.  1.
<mgrwt>
<rscale>  0 0.52751761E+02</rscale>
<asrwt>0</asrwt>
<pdfrwt beam="1">  1        2 0.11766505E-01 0.52751761E+02</pdfrwt>
<pdfrwt beam="2">  1       -2 0.13993931E-02 0.52751761E+02</pdfrwt>
<totfact> 0.48893594E+05</totfact>
</mgrwt>
</event>
<event>
 4    1  0.3704929E-001  0.3896884E+02  0.7818608E-02  0.1515940E+00
         -2   -1    0    0    0  501 -0.00000000000E+00  0.00000000000E+00  0.45858030068E+01  0.45858037439E+01  0.26000000000E-02 0. -1.
          2   -1    0    0  501    0  0.00000000000E+00 -0.00000000000E+00 -0.82786496570E+02  0.82786496611E+02  0.26000000000E-02 0.  1.
        -13    1    1    2    0    0 -0.13439474527E+02 -0.12185347047E+02 -0.55038126122E+02  0.57950915935E+02  0.10570000000E+00 0.  1.
         13    1    1    2    0    0  0.13439474527E+02  0.12185347047E+02 -0.23162567442E+02  0.29421384420E+02  0.10570000000E+00 0. -1.
<mgrwt>
<rscale>  0 0.38968839E+02</rscale>
<asrwt>0</asrwt>
<pdfrwt beam="2">  1        2 0.12736383E-01 0.38968839E+02</pdfrwt>
<pdfrwt beam="1">  1       -2 0.70550828E-03 0.38968839E+02</pdfrwt>
<totfact> 0.10648775E+06</totfact>
</mgrwt>
</event>
<event>
 4    1  0.3704929E-001  0.2796177E+02  0.7818608E-02  0.1621777E+00
         -2   -1    0    0    0  501 -0.00000000000E+00  0.00000000000E+00  0.25578005997E+01  0.25578019212E+01  0.26000000000E-02 0. -1.
          2   -1    0    0  501    0  0.00000000000E+00 -0.00000000000E+00 -0.76419212355E+02  0.76419212399E+02  0.26000000000E-02 0.  1.
        -13    1    1    2    0    0  0.12521408394E+02 -0.59285949920E+01 -0.42229931591E+02  0.44444484488E+02  0.10570000000E+00 0. -1.
         13    1    1    2    0    0 -0.12521408394E+02  0.59285949920E+01 -0.31631480165E+02  0.34532529833E+02  0.10570000000E+00 0.  1.
<mgrwt>
<rscale>  0 0.27961771E+02</rscale>
<asrwt>0</asrwt>
<pdfrwt beam="2">  1        2 0.11756800E-01 0.27961771E+02</pdfrwt>
<pdfrwt beam="1">  1       -2 0.39350795E-03 0.27961771E+02</pdfrwt>
<totfact> 0.23215742E+06</totfact>
</mgrwt>
</event>
<event>
 4    1  0.3704929E-001  0.2108276E+02  0.7818608E-02  0.1724616E+00
          2   -1    0    0  501    0  0.00000000000E+00  0.00000000000E+00  0.10779947616E+01  0.10779978970E+01  0.26000000000E-02 0.  1.
         -2   -1    0    0    0  501 -0.00000000000E+00 -0.00000000000E+00 -0.10308076503E+03  0.10308076506E+03  0.26000000000E-02 0. -1.
        -13    1    1    2    0    0  0.10330365264E+02 -0.20806364206E+01 -0.52251459379E+02  0.53303580312E+02  0.10570000000E+00 0. -1.
         13    1    1    2    0    0 -0.10330365264E+02  0.20806364206E+01 -0.49751310891E+02  0.50855182649E+02  0.10570000000E+00 0.  1.
<mgrwt>
<rscale>  0 0.21082760E+02</rscale>
<asrwt>0</asrwt>
<pdfrwt beam="1">  1        2 0.16584567E-03 0.21082760E+02</pdfrwt>
<pdfrwt beam="2">  1       -2 0.15858572E-01 0.21082760E+02</pdfrwt>
<totfact> 0.26289149E+06</totfact>
</mgrwt>
</event>
<event>
 4    1  0.3704929E-001  0.4598843E+02  0.7818608E-02  0.1468264E+00
         -2   -1    0    0    0  501 -0.00000000000E+00  0.00000000000E+00  0.53070433221E+01  0.53070439590E+01  0.26000000000E-02 0. -1.
          2   -1    0    0  501    0  0.00000000000E+00 -0.00000000000E+00 -0.99628726528E+02  0.99628726562E+02  0.26000000000E-02 0.  1.
        -13    1    1    2    0    0  0.96185604195E+01  0.20326308872E+02 -0.58115148576E+02  0.62314181398E+02  0.10570000000E+00 0.  1.
         13    1    1    2    0    0 -0.96185604195E+01 -0.20326308872E+02 -0.36206534630E+02  0.42621589122E+02  0.10570000000E+00 0. -1.
<mgrwt>
<rscale>  0 0.45988433E+02</rscale>
<asrwt>0</asrwt>
<pdfrwt beam="2">  1        2 0.15327495E-01 0.45988433E+02</pdfrwt>
<pdfrwt beam="1">  1       -2 0.81646833E-03 0.45988433E+02</pdfrwt>
<totfact> 0.73839877E+05</totfact>
</mgrwt>
</event>
<event>
 4    1  0.3704929E-001  0.2226091E+02  0.7818608E-02  0.1703778E+00
         -2   -1    0    0    0  501 -0.00000000000E+00  0.00000000000E+00  0.13842554651E+01  0.13842579068E+01  0.26000000000E-02 0. -1.
          2   -1    0    0  501    0  0.00000000000E+00 -0.00000000000E+00 -0.89497147366E+02  0.89497147404E+02  0.26000000000E-02 0.  1.
        -13    1    1    2    0    0 -0.90659126839E+01  0.51842244459E+01 -0.28345819020E+02  0.30208667370E+02  0.10570000000E+00 0. -1.
         13    1    1    2    0    0  0.90659126839E+01 -0.51842244459E+01 -0.59767072881E+02  0.60672737940E+02  0.10570000000E+00 0.  1.
<mgrwt>
<rscale>  0 0.22260910E+02</rscale>
<asrwt>0</asrwt>
<pdfrwt beam="2">  1        2 0.13768788E-01 0.22260910E+02</pdfrwt>
<pdfrwt beam="1">  1       -2 0.21296264E-03 0.22260910E+02</pdfrwt>
<totfact> 0.40539460E+06</totfact>
</mgrwt>
</event>
<event>
 4    1  0.3704929E-001  0.8115864E+02  0.7818608E-02  0.1325795E+00
         -2   -1    0    0    0  501 -0.00000000000E+00  0.00000000000E+00  0.16092695789E+02  0.16092695999E+02  0.26000000000E-02 0.  1.
          2   -1    0    0  501    0  0.00000000000E+00 -0.00000000000E+00 -0.10232476142E+03  0.10232476145E+03  0.26000000000E-02 0. -1.
        -13    1    1    2    0    0 -0.34658906025E+02 -0.65139136087E+01 -0.72406957939E+02  0.80538497427E+02  0.10570000000E+00 0. -1.
         13    1    1    2    0    0  0.34658906025E+02  0.65139136087E+01 -0.13825107689E+02  0.37878960023E+02  0.10570000000E+00 0.  1.
<mgrwt>
<rscale>  0 0.81158641E+02</rscale>
<asrwt>0</asrwt>
<pdfrwt beam="2">  1        2 0.15742271E-01 0.81158641E+02</pdfrwt>
<pdfrwt beam="1">  1       -2 0.24757994E-02 0.81158641E+02</pdfrwt>
<totfact> 0.16966652E+05</totfact>
</mgrwt>
</event>
<event>
 4    1  0.3704929E-001  0.5229032E+02  0.7818608E-02  0.1433366E+00
         -2   -1    0    0    0  501 -0.00000000000E+00  0.00000000000E+00  0.53589119254E+01  0.53589125562E+01  0.26000000000E-02 0.  1.
          2   -1    0    0  501    0  0.00000000000E+00 -0.00000000000E+00 -0.12755750829E+03  0.12755750832E+03  0.26000000000E-02 0. -1.
        -13    1    1    2    0    0 -0.74234194909E+01 -0.23005811500E+02 -0.86414283833E+02  0.89731901476E+02  0.10570000000E+00 0. -1.
         13    1    1    2    0    0  0.74234194909E+01  0.23005811500E+02 -0.35784312536E+02  0.43184519401E+02  0.10570000000E+00 0.  1.
<mgrwt>
<rscale>  0 0.52290324E+02</rscale>
<asrwt>0</asrwt>
<pdfrwt beam="2">  1        2 0.19624230E-01 0.52290324E+02</pdfrwt>
<pdfrwt beam="1">  1       -2 0.82444813E-03 0.52290324E+02</pdfrwt>
<totfact> 0.57151534E+05</totfact>
</mgrwt>
</event>
<event>
 4    1  0.3704929E-001  0.2857370E+02  0.7818608E-02  0.1614412E+00
         -2   -1    0    0    0  501 -0.00000000000E+00  0.00000000000E+00  0.18047515155E+02  0.18047515342E+02  0.26000000000E-02 0.  1.
          2   -1    0    0  501    0  0.00000000000E+00 -0.00000000000E+00 -0.11309816678E+02  0.11309816977E+02  0.26000000000E-02 0. -1.
        -13    1    1    2    0    0  0.14056014576E+02 -0.18265056725E+01  0.52053993188E+01  0.15100166333E+02  0.10570000000E+00 0.  1.
         13    1    1    2    0    0 -0.14056014576E+02  0.18265056725E+01  0.15322991583E+01  0.14257165985E+02  0.10570000000E+00 0. -1.
<mgrwt>
<rscale>  0 0.28573701E+02</rscale>
<asrwt>0</asrwt>
<pdfrwt beam="2">  1        2 0.17399719E-02 0.28573701E+02</pdfrwt>
<pdfrwt beam="1">  1       -2 0.27765408E-02 0.28573701E+02</pdfrwt>
<totfact> 0.17144440E+06</totfact>
</mgrwt>
</event>
<event>
 4    1  0.3704929E-001  0.2583754E+02  0.7818608E-02  0.1649255E+00
         -2   -1    0    0    0  501 -0.00000000000E+00  0.00000000000E+00  0.68563380231E+01  0.68563385160E+01  0.26000000000E-02 0.  1.
          2   -1    0    0  501    0  0.00000000000E+00 -0.00000000000E+00 -0.24341658938E+02  0.24341659077E+02  0.26000000000E-02 0. -1.
        -13    1    1    2    0    0 -0.86557754293E+01  0.95268063150E+01 -0.10065921771E+02  0.16340637700E+02  0.10570000000E+00 0. -1.
         13    1    1    2    0    0  0.86557754293E+01 -0.95268063150E+01 -0.74193991442E+01  0.14857359893E+02  0.10570000000E+00 0.  1.
<mgrwt>
<rscale>  0 0.25837543E+02</rscale>
<asrwt>0</asrwt>
<pdfrwt beam="2">  1        2 0.37448706E-02 0.25837543E+02</pdfrwt>
<pdfrwt beam="1">  1       -2 0.10548213E-02 0.25837543E+02</pdfrwt>
<totfact> 0.23539331E+06</totfact>
</mgrwt>
</event>
<event>
 4    1  0.3704929E-001  0.2141662E+02  0.7818608E-02  0.1718541E+00
         -2   -1    0    0    0  501 -0.00000000000E+00  0.00000000000E+00  0.14411376173E+01  0.14411399627E+01  0.26000000000E-02 0.  1.
          2   -1    0    0  501    0  0.00000000000E+00 -0.00000000000E+00 -0.79567587479E+02  0.79567587522E+02  0.26000000000E-02 0. -1.
        -13    1    1    2    0    0 -0.90768168878E+01 -0.56789711890E+01 -0.38563573471E+02  0.40022489801E+02  0.10570000000E+00 0. -1.
         13    1    1    2    0    0  0.90768168878E+01  0.56789711890E+01 -0.39562876391E+02  0.40986237683E+02  0.10570000000E+00 0.  1.
<mgrwt>
<rscale>  0 0.21416623E+02</rscale>
<asrwt>0</asrwt>
<pdfrwt beam="2">  1        2 0.12241164E-01 0.21416623E+02</pdfrwt>
<pdfrwt beam="1">  1       -2 0.22171372E-03 0.21416623E+02</pdfrwt>
<totfact> 0.43140613E+06</totfact>
</mgrwt>
</event>
<event>
 4    1  0.3704929E-001  0.4736010E+02  0.7818608E-02  0.1460124E+00
         -2   -1    0    0    0  501 -0.00000000000E+00  0.00000000000E+00  0.19943627541E+03  0.19943627543E+03  0.26000000000E-02 0. -1.
          2   -1    0    0  501    0  0.00000000000E+00 -0.00000000000E+00 -0.28116479820E+01  0.28116491841E+01  0.26000000000E-02 0.  1.
        -13    1    1    2    0    0  0.81104874811E+01  0.21328741517E+02  0.71290813419E+02  0.74853767255E+02  0.10570000000E+00 0.  1.
         13    1    1    2    0    0 -0.81104874811E+01 -0.21328741517E+02  0.12533381401E+03  0.12739415736E+03  0.10570000000E+00 0. -1.
<mgrwt>
<rscale>  0 0.47360098E+02</rscale>
<asrwt>0</asrwt>
<pdfrwt beam="2">  1        2 0.43256122E-03 0.47360098E+02</pdfrwt>
<pdfrwt beam="1">  1       -2 0.30682511E-01 0.47360098E+02</pdfrwt>
<totfact> 0.32238976E+05</totfact>
</mgrwt>
</event>
<event>
 4    1  0.3704929E-001  0.2128956E+02  0.7818608E-02  0.1720836E+00
          2   -1    0    0  501    0  0.00000000000E+00  0.00000000000E+00  0.19118777686E+02  0.19118777863E+02  0.26000000000E-02 0.  1.
         -2   -1    0    0    0  501 -0.00000000000E+00 -0.00000000000E+00 -0.59267016535E+01  0.59267022238E+01  0.26000000000E-02 0. -1.
        -13    1    1    2    0    0 -0.23265134604E+01  0.10245845479E+02  0.45891749767E+01  0.11465675467E+02  0.10570000000E+00 0. -1.
         13    1    1    2    0    0  0.23265134604E+01 -0.10245845479E+02  0.86029010559E+01  0.13579804620E+02  0.10570000000E+00 0.  1.
<mgrwt>
<rscale>  0 0.21289556E+02</rscale>
<asrwt>0</asrwt>
<pdfrwt beam="1">  1        2 0.29413505E-02 0.21289556E+02</pdfrwt>
<pdfrwt beam="2">  1       -2 0.91180031E-03 0.21289556E+02</pdfrwt>
<totfact> 0.36019913E+06</totfact>
</mgrwt>
</event>
<event>
 4    1  0.3704929E-001  0.3852860E+02  0.7818608E-02  0.1519327E+00
         -2   -1    0    0    0  501 -0.00000000000E+00  0.00000000000E+00  0.12957575566E+03  0.12957575569E+03  0.26000000000E-02 0.  1.
          2   -1    0    0  501    0  0.00000000000E+00 -0.00000000000E+00 -0.28640639913E+01  0.28640651714E+01  0.26000000000E-02 0. -1.
        -13    1    1    2    0    0  0.16844673068E+02  0.92618558306E+01  0.59038907778E+02  0.62089683429E+02  0.10570000000E+00 0. -1.
         13    1    1    2    0    0 -0.16844673068E+02 -0.92618558306E+01  0.67672783893E+02  0.70350137431E+02  0.10570000000E+00 0.  1.
<mgrwt>
<rscale>  0 0.38528604E+02</rscale>
<asrwt>0</asrwt>
<pdfrwt beam="2">  1        2 0.44062545E-03 0.38528604E+02</pdfrwt>
<pdfrwt beam="1">  1       -2 0.19934726E-01 0.38528604E+02</pdfrwt>
<totfact> 0.61743900E+05</totfact>
</mgrwt>
</event>
<event>
 4    1  0.3704929E-001  0.3326373E+02  0.7818608E-02  0.1564583E+00
         -2   -1    0    0    0  501 -0.00000000000E+00  0.00000000000E+00  0.23032003864E+02  0.23032004011E+02  0.26000000000E-02 0.  1.
          2   -1    0    0  501    0  0.00000000000E+00 -0.00000000000E+00 -0.12010200350E+02  0.12010200631E+02  0.26000000000E-02 0. -1.
        -13    1    1    2    0    0  0.11776389797E+02  0.11647579989E+02  0.39277772978E+01  0.17023163139E+02  0.10570000000E+00 0. -1.
         13    1    1    2    0    0 -0.11776389797E+02 -0.11647579989E+02  0.70940262168E+01  0.18019041504E+02  0.10570000000E+00 0.  1.
<mgrwt>
<rscale>  0 0.33263733E+02</rscale>
<asrwt>0</asrwt>
<pdfrwt beam="2">  1        2 0.18477232E-02 0.33263733E+02</pdfrwt>
<pdfrwt beam="1">  1       -2 0.35433852E-02 0.33263733E+02</pdfrwt>
<totfact> 0.11831771E+06</totfact>
</mgrwt>
</event>
<event>
 4    1  0.3704929E-001  0.3397024E+02  0.7818608E-02  0.1557940E+00
          2   -1    0    0  501    0  0.00000000000E+00  0.00000000000E+00  0.52779098671E+02  0.52779098735E+02  0.26000000000E-02 0. -1.
         -2   -1    0    0    0  501 -0.00000000000E+00 -0.00000000000E+00 -0.54660710183E+01  0.54660716367E+01  0.26000000000E-02 0.  1.
        -13    1    1    2    0    0  0.13847835245E+02  0.18165254079E+01  0.70841987463E+01  0.15660758280E+02  0.10570000000E+00 0. -1.
         13    1    1    2    0    0 -0.13847835245E+02 -0.18165254079E+01  0.40228828907E+02  0.42584412092E+02  0.10570000000E+00 0.  1.
<mgrwt>
<rscale>  0 0.33970241E+02</rscale>
<asrwt>0</asrwt>
<pdfrwt beam="1">  1        2 0.81198614E-02 0.33970241E+02</pdfrwt>
<pdfrwt beam="2">  1       -2 0.84093406E-03 0.33970241E+02</pdfrwt>
<totfact> 0.13608594E+06</totfact>
</mgrwt>
</event>
<event>
 4    1  0.3704929E-001  0.4786545E+02  0.7818608E-02  0.1457207E+00
          2   -1    0    0  501    0  0.00000000000E+00  0.00000000000E+00  0.16296170360E+02  0.16296170567E+02  0.26000000000E-02 0.  1.
         -2   -1    0    0    0  501 -0.00000000000E+00 -0.00000000000E+00 -0.35147852071E+02  0.35147852167E+02  0.26000000000E-02 0. -1.
        -13    1    1    2    0    0  0.14270136538E+02  0.14925537505E+02  0.35763833426E+01  0.20957341361E+02  0.10570000000E+00 0.  1.
         13    1    1    2    0    0 -0.14270136538E+02 -0.14925537505E+02 -0.22428065053E+02  0.30486681373E+02  0.10570000000E+00 0. -1.
<mgrwt>
<rscale>  0 0.47865453E+02</rscale>
<asrwt>0</asrwt>
<pdfrwt beam="1">  1        2 0.25071032E-02 0.47865453E+02</pdfrwt>
<pdfrwt beam="2">  1       -2 0.54073619E-02 0.47865453E+02</pdfrwt>
<totfact> 0.47919926E+05</totfact>
</mgrwt>
</event>
<event>
 4    1  0.3704929E-001  0.3945195E+02  0.7818608E-02  0.1512284E+00
          2   -1    0    0  501    0  0.00000000000E+00  0.00000000000E+00  0.13102213232E+03  0.13102213234E+03  0.26000000000E-02 0. -1.
         -2   -1    0    0    0  501 -0.00000000000E+00 -0.00000000000E+00 -0.29698344927E+01  0.29698356309E+01  0.26000000000E-02 0.  1.
        -13    1    1    2    0    0  0.19520907885E+02 -0.29599729605E+00  0.54450239643E+02  0.57844560927E+02  0.10570000000E+00 0.  1.
         13    1    1    2    0    0 -0.19520907885E+02  0.29599729605E+00  0.73602058179E+02  0.76147407045E+02  0.10570000000E+00 0. -1.
<mgrwt>
<rscale>  0 0.39451952E+02</rscale>
<asrwt>0</asrwt>
<pdfrwt beam="1">  1        2 0.20157246E-01 0.39451952E+02</pdfrwt>
<pdfrwt beam="2">  1       -2 0.45689782E-03 0.39451952E+02</pdfrwt>
<totfact> 0.11613349E+06</totfact>
</mgrwt>
</event>
<event>
 4    1  0.3704929E-001  0.2298210E+02  0.7818608E-02  0.1691800E+00
          2   -1    0    0  501    0  0.00000000000E+00  0.00000000000E+00  0.14872817220E+01  0.14872839946E+01  0.26000000000E-02 0.  1.
         -2   -1    0    0    0  501 -0.00000000000E+00 -0.00000000000E+00 -0.88782202363E+02  0.88782202401E+02  0.26000000000E-02 0. -1.
        -13    1    1    2    0    0 -0.66849116264E+00  0.10416617874E+02 -0.24777470249E+02  0.26886558217E+02  0.10570000000E+00 0.  1.
         13    1    1    2    0    0  0.66849116264E+00 -0.10416617874E+02 -0.62517450393E+02  0.63382928178E+02  0.10570000000E+00 0. -1.
<mgrwt>
<rscale>  0 0.22982102E+02</rscale>
<asrwt>0</asrwt>
<pdfrwt beam="1">  1        2 0.22881282E-03 0.22982102E+02</pdfrwt>
<pdfrwt beam="2">  1       -2 0.13658796E-01 0.22982102E+02</pdfrwt>
<totfact> 0.22490194E+06</totfact>
</mgrwt>
</event>
<event>
 4    1  0.3704929E-001  0.2977276E+02  0.7818608E-02  0.1600614E+00
          2   -1    0    0  501    0  0.00000000000E+00  0.00000000000E+00  0.66921325921E+02  0.66921325971E+02  0.26000000000E-02 0. -1.
         -2   -1    0    0    0  501 -0.00000000000E+00 -0.00000000000E+00 -0.33114143651E+01  0.33114153858E+01  0.26000000000E-02 0.  1.
        -13    1    1    2    0    0 -0.42324520637E+00  0.11911317534E+02  0.52842657186E+02  0.54170252103E+02  0.10570000000E+00 0. -1.
         13    1    1    2    0    0  0.42324520637E+00 -0.11911317534E+02  0.10767254369E+02  0.16062489254E+02  0.10570000000E+00 0.  1.
<mgrwt>
<rscale>  0 0.29772758E+02</rscale>
<asrwt>0</asrwt>
<pdfrwt beam="1">  1        2 0.10295589E-01 0.29772758E+02</pdfrwt>
<pdfrwt beam="2">  1       -2 0.50944844E-03 0.29772758E+02</pdfrwt>
<totfact> 0.19501718E+06</totfact>
</mgrwt>
</event>
<event>
 4    1  0.3704929E-001  0.3422974E+02  0.7818608E-02  0.1555549E+00
         -2   -1    0    0    0  501 -0.00000000000E+00  0.00000000000E+00  0.31681541039E+02  0.31681541146E+02  0.26000000000E-02 0.  1.
          2   -1    0    0  501    0  0.00000000000E+00 -0.00000000000E+00 -0.92457245222E+01  0.92457248878E+01  0.26000000000E-02 0. -1.
        -13    1    1    2    0    0 -0.16436587537E+02  0.28783396684E+01  0.66710217811E+01  0.17971086590E+02  0.10570000000E+00 0. -1.
         13    1    1    2    0    0  0.16436587537E+02 -0.28783396684E+01  0.15764794736E+02  0.22956179444E+02  0.10570000000E+00 0.  1.
<mgrwt>
<rscale>  0 0.34229742E+02</rscale>
<asrwt>0</asrwt>
<pdfrwt beam="2">  1        2 0.14224192E-02 0.34229742E+02</pdfrwt>
<pdfrwt beam="1">  1       -2 0.48740833E-02 0.34229742E+02</pdfrwt>
<totfact> 0.10667208E+06</totfact>
</mgrwt>
</event>
<event>
 4    1  0.3704929E-001  0.2991287E+02  0.7818608E-02  0.1599054E+00
         -2   -1    0    0    0  501 -0.00000000000E+00  0.00000000000E+00  0.11572511292E+02  0.11572511584E+02  0.26000000000E-02 0.  1.
          2   -1    0    0  501    0  0.00000000000E+00 -0.00000000000E+00 -0.19329858031E+02  0.19329858206E+02  0.26000000000E-02 0. -1.
        -13    1    1    2    0    0  0.13236085803E+02 -0.81021744105E+00 -0.11023625761E+02  0.17244764918E+02  0.10570000000E+00 0. -1.
         13    1    1    2    0    0 -0.13236085803E+02  0.81021744105E+00  0.32662790218E+01  0.13657604871E+02  0.10570000000E+00 0.  1.
<mgrwt>
<rscale>  0 0.29912874E+02</rscale>
<asrwt>0</asrwt>
<pdfrwt beam="2">  1        2 0.29738244E-02 0.29912874E+02</pdfrwt>
<pdfrwt beam="1">  1       -2 0.17803864E-02 0.29912874E+02</pdfrwt>
<totfact> 0.16189348E+06</totfact>
</mgrwt>
</event>
<event>
 4    1  0.3704929E-001  0.9598009E+02  0.7818608E-02  0.1288984E+00
         -2   -1    0    0    0  501 -0.00000000000E+00  0.00000000000E+00  0.15958893362E+02  0.15958893574E+02  0.26000000000E-02 0.  1.
          2   -1    0    0  501    0  0.00000000000E+00 -0.00000000000E+00 -0.14431102581E+03  0.14431102583E+03  0.26000000000E-02 0. -1.
        -13    1    1    2    0    0 -0.40503549143E+02 -0.13679375164E+02 -0.10058323519E+03  0.10929163358E+03  0.10570000000E+00 0. -1.
         13    1    1    2    0    0  0.40503549143E+02  0.13679375164E+02 -0.27768897263E+02  0.50978285826E+02  0.10570000000E+00 0.  1.
<mgrwt>
<rscale>  0 0.95980087E+02</rscale>
<asrwt>0</asrwt>
<pdfrwt beam="2">  1        2 0.22201695E-01 0.95980087E+02</pdfrwt>
<pdfrwt beam="1">  1       -2 0.24552145E-02 0.95980087E+02</pdfrwt>
<totfact> 0.11995363E+05</totfact>
</mgrwt>
</event>
<event>
 4    1  0.3704929E-001  0.3099132E+02  0.7818608E-02  0.1587383E+00
         -2   -1    0    0    0  501 -0.00000000000E+00  0.00000000000E+00  0.57910218574E+02  0.57910218632E+02  0.26000000000E-02 0. -1.
          2   -1    0    0  501    0  0.00000000000E+00 -0.00000000000E+00 -0.41463397774E+01  0.41463405925E+01  0.26000000000E-02 0.  1.
        -13    1    1    2    0    0  0.92355585628E+01 -0.12429042226E+02  0.28028144951E+02  0.32021316564E+02  0.10570000000E+00 0.  1.
         13    1    1    2    0    0 -0.92355585628E+01  0.12429042226E+02  0.25735733846E+02  0.30035242661E+02  0.10570000000E+00 0. -1.
<mgrwt>
<rscale>  0 0.30991319E+02</rscale>
<asrwt>0</asrwt>
<pdfrwt beam="2">  1        2 0.63789850E-03 0.30991319E+02</pdfrwt>
<pdfrwt beam="1">  1       -2 0.89092644E-02 0.30991319E+02</pdfrwt>
<totfact> 0.12338560E+06</totfact>
</mgrwt>
</event>
<event>
 4    1  0.3704929E-001  0.5840487E+02  0.7818608E-02  0.1404650E+00
         -2   -1    0    0    0  501 -0.00000000000E+00  0.00000000000E+00  0.41153101488E+02  0.41153101570E+02  0.26000000000E-02 0.  1.
          2   -1    0    0  501    0  0.00000000000E+00 -0.00000000000E+00 -0.20722187279E+02  0.20722187442E+02  0.26000000000E-02 0. -1.
        -13    1    1    2    0    0  0.14792224317E+02  0.23923465032E+01 -0.16338559515E+02  0.22169639635E+02  0.10570000000E+00 0. -1.
         13    1    1    2    0    0 -0.14792224317E+02 -0.23923465032E+01  0.36769473724E+02  0.39705649377E+02  0.10570000000E+00 0.  1.
<mgrwt>
<rscale>  0 0.58404873E+02</rscale>
<asrwt>0</asrwt>
<pdfrwt beam="2">  1        2 0.31880289E-02 0.58404873E+02</pdfrwt>
<pdfrwt beam="1">  1       -2 0.63312464E-02 0.58404873E+02</pdfrwt>
<totfact> 0.29081666E+05</totfact>
</mgrwt>
</event>
<event>
 4    1  0.3704929E-001  0.3338660E+02  0.7818608E-02  0.1563413E+00
         -2   -1    0    0    0  501 -0.00000000000E+00  0.00000000000E+00  0.51729156625E+01  0.51729163159E+01  0.26000000000E-02 0.  1.
          2   -1    0    0  501    0  0.00000000000E+00 -0.00000000000E+00 -0.53870256778E+02  0.53870256841E+02  0.26000000000E-02 0. -1.
        -13    1    1    2    0    0  0.13082347780E+02 -0.10202070870E+02 -0.27621566491E+02  0.32220989764E+02  0.10570000000E+00 0.  1.
         13    1    1    2    0    0 -0.13082347780E+02  0.10202070870E+02 -0.21075774625E+02  0.26822183393E+02  0.10570000000E+00 0. -1.
<mgrwt>
<rscale>  0 0.33386603E+02</rscale>
<asrwt>0</asrwt>
<pdfrwt beam="2">  1        2 0.82877315E-02 0.33386603E+02</pdfrwt>
<pdfrwt beam="1">  1       -2 0.79583327E-03 0.33386603E+02</pdfrwt>
<totfact> 0.14242487E+06</totfact>
</mgrwt>
</event>
<event>
 4    1  0.3704929E-001  0.2508436E+02  0.7818608E-02  0.1659793E+00
         -2   -1    0    0    0  501 -0.00000000000E+00  0.00000000000E+00  0.24959376481E+02  0.24959376616E+02  0.26000000000E-02 0. -1.
          2   -1    0    0  501    0  0.00000000000E+00 -0.00000000000E+00 -0.63024929264E+01  0.63024934627E+01  0.26000000000E-02 0.  1.
        -13    1    1    2    0    0 -0.95186023730E+01 -0.79820839368E+01  0.11478997301E+02  0.16914372783E+02  0.10570000000E+00 0.  1.
         13    1    1    2    0    0  0.95186023730E+01  0.79820839368E+01  0.71778862537E+01  0.14347497296E+02  0.10570000000E+00 0. -1.
<mgrwt>
<rscale>  0 0.25084362E+02</rscale>
<asrwt>0</asrwt>
<pdfrwt beam="2">  1        2 0.96961434E-03 0.25084362E+02</pdfrwt>
<pdfrwt beam="1">  1       -2 0.38399042E-02 0.25084362E+02</pdfrwt>
<totfact> 0.22253381E+06</totfact>
</mgrwt>
</event>
<event>
 4    1  0.3704929E-001  0.3084872E+02  0.7818608E-02  0.1588892E+00
         -2   -1    0    0    0  501 -0.00000000000E+00  0.00000000000E+00  0.85940765560E+02  0.85940765600E+02  0.26000000000E-02 0. -1.
          2   -1    0    0  501    0  0.00000000000E+00 -0.00000000000E+00 -0.27683125114E+01  0.27683137324E+01  0.26000000000E-02 0.  1.
        -13    1    1    2    0    0  0.59855982523E+01 -0.11642705153E+02  0.18132796893E+02  0.22364915948E+02  0.10570000000E+00 0. -1.
         13    1    1    2    0    0 -0.59855982523E+01  0.11642705153E+02  0.65039656156E+02  0.66344163384E+02  0.10570000000E+00 0.  1.
<mgrwt>
<rscale>  0 0.30848725E+02</rscale>
<asrwt>0</asrwt>
<pdfrwt beam="2">  1        2 0.42589438E-03 0.30848725E+02</pdfrwt>
<pdfrwt beam="1">  1       -2 0.13221655E-01 0.30848725E+02</pdfrwt>
<totfact> 0.11575196E+06</totfact>
</mgrwt>
</event>
<event>
 4    1  0.3704929E-001  0.8410703E+02  0.7818608E-02  0.1317784E+00
         -2   -1    0    0    0  501 -0.00000000000E+00  0.00000000000E+00  0.29344717937E+02  0.29344718052E+02  0.26000000000E-02 0.  1.
          2   -1    0    0  501    0  0.00000000000E+00 -0.00000000000E+00 -0.60266311330E+02  0.60266311386E+02  0.26000000000E-02 0. -1.
        -13    1    1    2    0    0 -0.21583951592E+02 -0.15815343003E+02 -0.50026003044E+02  0.56732743576E+02  0.10570000000E+00 0. -1.
         13    1    1    2    0    0  0.21583951592E+02  0.15815343003E+02  0.19104409651E+02  0.32878285862E+02  0.10570000000E+00 0.  1.
<mgrwt>
<rscale>  0 0.84107025E+02</rscale>
<asrwt>0</asrwt>
<pdfrwt beam="2">  1        2 0.92717402E-02 0.84107025E+02</pdfrwt>
<pdfrwt beam="1">  1       -2 0.45145720E-02 0.84107025E+02</pdfrwt>
<totfact> 0.13310026E+05</totfact>
</mgrwt>
</event>
<event>
 4    1  0.3704929E-001  0.5235467E+02  0.7818608E-02  0.1433040E+00
          2   -1    0    0  501    0  0.00000000000E+00  0.00000000000E+00  0.18612144919E+02  0.18612145101E+02  0.26000000000E-02 0.  1.
         -2   -1    0    0    0  501 -0.00000000000E+00 -0.00000000000E+00 -0.36817509031E+02  0.36817509123E+02  0.26000000000E-02 0. -1.
        -13    1    1    2    0    0  0.16231916290E+02  0.48231305160E+01  0.12032358000E+02  0.20773216071E+02  0.10570000000E+00 0.  1.
         13    1    1    2    0    0 -0.16231916290E+02 -0.48231305160E+01 -0.30237722112E+02  0.34656438153E+02  0.10570000000E+00 0. -1.
<mgrwt>
<rscale>  0 0.52354668E+02</rscale>
<asrwt>0</asrwt>
<pdfrwt beam="1">  1        2 0.28634069E-02 0.52354668E+02</pdfrwt>
<pdfrwt beam="2">  1       -2 0.56642322E-02 0.52354668E+02</pdfrwt>
<totfact> 0.38469082E+05</totfact>
</mgrwt>
</event>
<event>
 4    1  0.3704929E-001  0.5611807E+02  0.7818608E-02  0.1414884E+00
          2   -1    0    0  501    0  0.00000000000E+00  0.00000000000E+00  0.97874536304E+02  0.97874536338E+02  0.26000000000E-02 0.  1.
         -2   -1    0    0    0  501 -0.00000000000E+00 -0.00000000000E+00 -0.80440666579E+01  0.80440670781E+01  0.26000000000E-02 0. -1.
        -13    1    1    2    0    0  0.13965307722E+02 -0.59654747318E+01  0.89447309042E+02  0.90727333124E+02  0.10570000000E+00 0.  1.
         13    1    1    2    0    0 -0.13965307722E+02  0.59654747318E+01  0.38316060401E+00  0.15191270292E+02  0.10570000000E+00 0. -1.
<mgrwt>
<rscale>  0 0.56118065E+02</rscale>
<asrwt>0</asrwt>
<pdfrwt beam="1">  1        2 0.15057622E-01 0.56118065E+02</pdfrwt>
<pdfrwt beam="2">  1       -2 0.12375487E-02 0.56118065E+02</pdfrwt>
<totfact> 0.44339676E+05</totfact>
</mgrwt>
</event>
<event>
 4    1  0.3704929E-001  0.3446270E+02  0.7818608E-02  0.1553424E+00
          2   -1    0    0  501    0  0.00000000000E+00  0.00000000000E+00  0.42139941372E+02  0.42139941453E+02  0.26000000000E-02 0. -1.
         -2   -1    0    0    0  501 -0.00000000000E+00 -0.00000000000E+00 -0.70460336910E+01  0.70460341707E+01  0.26000000000E-02 0.  1.
        -13    1    1    2    0    0  0.87047961981E+01 -0.14749095353E+02  0.20254542751E+02  0.26524836760E+02  0.10570000000E+00 0. -1.
         13    1    1    2    0    0 -0.87047961981E+01  0.14749095353E+02  0.14839364930E+02  0.22661138864E+02  0.10570000000E+00 0.  1.
<mgrwt>
<rscale>  0 0.34462702E+02</rscale>
<asrwt>0</asrwt>
<pdfrwt beam="1">  1        2 0.64830679E-02 0.34462702E+02</pdfrwt>
<pdfrwt beam="2">  1       -2 0.10840052E-02 0.34462702E+02</pdfrwt>
<totfact> 0.12664758E+06</totfact>
</mgrwt>
</event>
<event>
 4    1  0.3704929E-001  0.4377969E+02  0.7818608E-02  0.1482107E+00
          2   -1    0    0  501    0  0.00000000000E+00  0.00000000000E+00  0.40789728534E+02  0.40789728617E+02  0.26000000000E-02 0. -1.
         -2   -1    0    0    0  501 -0.00000000000E+00 -0.00000000000E+00 -0.11747204022E+02  0.11747204309E+02  0.26000000000E-02 0.  1.
        -13    1    1    2    0    0  0.16195938753E+02 -0.11286512082E+02  0.25871560133E+02  0.32542934460E+02  0.10570000000E+00 0. -1.
         13    1    1    2    0    0 -0.16195938753E+02  0.11286512082E+02  0.31709643791E+01  0.19993998466E+02  0.10570000000E+00 0.  1.
<mgrwt>
<rscale>  0 0.43779688E+02</rscale>
<asrwt>0</asrwt>
<pdfrwt beam="1">  1        2 0.62753429E-02 0.43779688E+02</pdfrwt>
<pdfrwt beam="2">  1       -2 0.18072622E-02 0.43779688E+02</pdfrwt>
<totfact> 0.69471694E+05</totfact>
</mgrwt>
</event>
<event>
 4    1  0.3704929E-001  0.4404569E+02  0.7818608E-02  0.1480389E+00
         -2   -1    0    0    0  501 -0.00000000000E+00  0.00000000000E+00  0.57762210714E+01  0.57762216566E+01  0.26000000000E-02 0. -1.
          2   -1    0    0  501    0  0.00000000000E+00 -0.00000000000E+00 -0.83965908488E+02  0.83965908528E+02  0.26000000000E-02 0.  1.
        -13    1    1    2    0    0  0.96209954433E+01 -0.10020030424E+02 -0.73913071189E+02  0.75207166068E+02  0.10570000000E+00 0.  1.
         13    1    1    2    0    0 -0.96209954433E+01  0.10020030424E+02 -0.42766162281E+01  0.14534964117E+02  0.10570000000E+00 0. -1.
<mgrwt>
<rscale>  0 0.44045689E+02</rscale>
<asrwt>0</asrwt>
<pdfrwt beam="2">  1        2 0.12917831E-01 0.44045689E+02</pdfrwt>
<pdfrwt beam="1">  1       -2 0.88864951E-03 0.44045689E+02</pdfrwt>
<totfact> 0.78885355E+05</totfact>
</mgrwt>
</event>
<event>
 4    1  0.3704929E-001  0.3279962E+02  0.7818608E-02  0.1569056E+00
          2   -1    0    0  501    0  0.00000000000E+00  0.00000000000E+00  0.56211919370E+02  0.56211919430E+02  0.26000000000E-02 0.  1.
         -2   -1    0    0    0  501 -0.00000000000E+00 -0.00000000000E+00 -0.47846384424E+01  0.47846391488E+01  0.26000000000E-02 0. -1.
        -13    1    1    2    0    0  0.15238040905E+02  0.53265245122E+01  0.20332527683E+02  0.25961367616E+02  0.10570000000E+00 0.  1.
         13    1    1    2    0    0 -0.15238040905E+02 -0.53265245122E+01  0.31094753244E+02  0.35035190963E+02  0.10570000000E+00 0. -1.
<mgrwt>
<rscale>  0 0.32799618E+02</rscale>
<asrwt>0</asrwt>
<pdfrwt beam="1">  1        2 0.86479878E-02 0.32799618E+02</pdfrwt>
<pdfrwt beam="2">  1       -2 0.73609827E-03 0.32799618E+02</pdfrwt>
<totfact> 0.14977827E+06</totfact>
</mgrwt>
</event>
<event>
 4    1  0.3704929E-001  0.2146438E+02  0.7818608E-02  0.1717683E+00
         -2   -1    0    0    0  501 -0.00000000000E+00  0.00000000000E+00  0.33035656793E+02  0.33035656896E+02  0.26000000000E-02 0.  1.
          2   -1    0    0  501    0  0.00000000000E+00 -0.00000000000E+00 -0.34865327871E+01  0.34865337566E+01  0.26000000000E-02 0. -1.
        -13    1    1    2    0    0  0.37895766520E+01  0.98554605975E+01  0.18037656923E+02  0.20901177827E+02  0.10570000000E+00 0.  1.
         13    1    1    2    0    0 -0.37895766520E+01 -0.98554605975E+01  0.11511467084E+02  0.15621012826E+02  0.10570000000E+00 0. -1.
<mgrwt>
<rscale>  0 0.21464382E+02</rscale>
<asrwt>0</asrwt>
<pdfrwt beam="2">  1        2 0.53638976E-03 0.21464382E+02</pdfrwt>
<pdfrwt beam="1">  1       -2 0.50824087E-02 0.21464382E+02</pdfrwt>
<totfact> 0.30570051E+06</totfact>
</mgrwt>
</event>
<event>
 4    1  0.3704929E-001  0.2883126E+02  0.7818608E-02  0.1611379E+00
          2   -1    0    0  501    0  0.00000000000E+00  0.00000000000E+00  0.36906199710E+01  0.36906208868E+01  0.26000000000E-02 0. -1.
         -2   -1    0    0    0  501 -0.00000000000E+00 -0.00000000000E+00 -0.56307704767E+02  0.56307704827E+02  0.26000000000E-02 0.  1.
        -13    1    1    2    0    0  0.12257468806E+02  0.28014684524E+01 -0.11636943538E+02  0.17132524461E+02  0.10570000000E+00 0. -1.
         13    1    1    2    0    0 -0.12257468806E+02 -0.28014684524E+01 -0.40980141258E+02  0.42865801253E+02  0.10570000000E+00 0.  1.
<mgrwt>
<rscale>  0 0.28831259E+02</rscale>
<asrwt>0</asrwt>
<pdfrwt beam="1">  1        2 0.56778781E-03 0.28831259E+02</pdfrwt>
<pdfrwt beam="2">  1       -2 0.86627232E-02 0.28831259E+02</pdfrwt>
<totfact> 0.14646651E+06</totfact>
</mgrwt>
</event>
<event>
 4    1  0.3704929E-001  0.2336956E+02  0.7818608E-02  0.1685589E+00
         -2   -1    0    0    0  501 -0.00000000000E+00  0.00000000000E+00  0.11451300371E+03  0.11451300374E+03  0.26000000000E-02 0. -1.
          2   -1    0    0  501    0  0.00000000000E+00 -0.00000000000E+00 -0.11923002709E+01  0.11923031058E+01  0.26000000000E-02 0.  1.
        -13    1    1    2    0    0  0.28529447074E+01 -0.11230453685E+02  0.64104321103E+02  0.65143207935E+02  0.10570000000E+00 0.  1.
         13    1    1    2    0    0 -0.28529447074E+01  0.11230453685E+02  0.49216382333E+02  0.50562098908E+02  0.10570000000E+00 0. -1.
<mgrwt>
<rscale>  0 0.23369557E+02</rscale>
<asrwt>0</asrwt>
<pdfrwt beam="2">  1        2 0.18343101E-03 0.23369557E+02</pdfrwt>
<pdfrwt beam="1">  1       -2 0.17617387E-01 0.23369557E+02</pdfrwt>
<totfact> 0.20356485E+06</totfact>
</mgrwt>
</event>
<event>
 4    1  0.3704929E-001  0.2120296E+02  0.7818608E-02  0.1722412E+00
         -2   -1    0    0    0  501 -0.00000000000E+00  0.00000000000E+00  0.16276338572E+01  0.16276359338E+01  0.26000000000E-02 0. -1.
          2   -1    0    0  501    0  0.00000000000E+00 -0.00000000000E+00 -0.69051985053E+02  0.69051985102E+02  0.26000000000E-02 0.  1.
        -13    1    1    2    0    0 -0.88817040626E+01  0.54762231927E+01 -0.39954387512E+02  0.41294526774E+02  0.10570000000E+00 0. -1.
         13    1    1    2    0    0  0.88817040626E+01 -0.54762231927E+01 -0.27469963683E+02  0.29385094261E+02  0.10570000000E+00 0.  1.
<mgrwt>
<rscale>  0 0.21202964E+02</rscale>
<asrwt>0</asrwt>
<pdfrwt beam="2">  1        2 0.10623380E-01 0.21202964E+02</pdfrwt>
<pdfrwt beam="1">  1       -2 0.25040543E-03 0.21202964E+02</pdfrwt>
<totfact> 0.42923692E+06</totfact>
</mgrwt>
</event>
<event>
 4    1  0.3704929E-001  0.3316778E+02  0.7818608E-02  0.1565500E+00
         -2   -1    0    0    0  501 -0.00000000000E+00  0.00000000000E+00  0.11956322388E+03  0.11956322391E+03  0.26000000000E-02 0.  1.
          2   -1    0    0  501    0  0.00000000000E+00 -0.00000000000E+00 -0.23002498539E+01  0.23002513233E+01  0.26000000000E-02 0. -1.
        -13    1    1    2    0    0 -0.10182253088E+02  0.12959421502E+02  0.65395644085E+02  0.67440539154E+02  0.10570000000E+00 0. -1.
         13    1    1    2    0    0  0.10182253088E+02 -0.12959421502E+02  0.51867329940E+02  0.54422936077E+02  0.10570000000E+00 0.  1.
<mgrwt>
<rscale>  0 0.33167778E+02</rscale>
<asrwt>0</asrwt>
<pdfrwt beam="2">  1        2 0.35388469E-03 0.33167778E+02</pdfrwt>
<pdfrwt beam="1">  1       -2 0.18394343E-01 0.33167778E+02</pdfrwt>
<totfact> 0.90101981E+05</totfact>
</mgrwt>
</event>
<event>
 4    1  0.3704929E-001  0.2239910E+02  0.7818608E-02  0.1701440E+00
          2   -1    0    0  501    0  0.00000000000E+00  0.00000000000E+00  0.14416421431E+01  0.14416444876E+01  0.26000000000E-02 0. -1.
         -2   -1    0    0    0  501 -0.00000000000E+00 -0.00000000000E+00 -0.87004789724E+02  0.87004789762E+02  0.26000000000E-02 0.  1.
        -13    1    1    2    0    0 -0.97851452105E+01  0.53257116822E+01 -0.47294865027E+02  0.48589378491E+02  0.10570000000E+00 0. -1.
         13    1    1    2    0    0  0.97851452105E+01 -0.53257116822E+01 -0.38268282553E+02  0.39857055759E+02  0.10570000000E+00 0.  1.
<mgrwt>
<rscale>  0 0.22399096E+02</rscale>
<asrwt>0</asrwt>
<pdfrwt beam="1">  1        2 0.22179135E-03 0.22399096E+02</pdfrwt>
<pdfrwt beam="2">  1       -2 0.13385348E-01 0.22399096E+02</pdfrwt>
<totfact> 0.23921636E+06</totfact>
</mgrwt>
</event>
<event>
 4    1  0.3704929E-001  0.2313381E+02  0.7818608E-02  0.1689350E+00
         -2   -1    0    0    0  501 -0.00000000000E+00  0.00000000000E+00  0.72143244919E+01  0.72143249604E+01  0.26000000000E-02 0. -1.
          2   -1    0    0  501    0  0.00000000000E+00 -0.00000000000E+00 -0.18545511352E+02  0.18545511534E+02  0.26000000000E-02 0.  1.
        -13    1    1    2    0    0 -0.57924021023E+00  0.11246920402E+02 -0.86018604486E+01  0.14171517682E+02  0.10570000000E+00 0.  1.
         13    1    1    2    0    0  0.57924021023E+00 -0.11246920402E+02 -0.27293264116E+01  0.11588318813E+02  0.10570000000E+00 0. -1.
<mgrwt>
<rscale>  0 0.23133815E+02</rscale>
<asrwt>0</asrwt>
<pdfrwt beam="2">  1        2 0.28531556E-02 0.23133815E+02</pdfrwt>
<pdfrwt beam="1">  1       -2 0.11098961E-02 0.23133815E+02</pdfrwt>
<totfact> 0.29668482E+06</totfact>
</mgrwt>
</event>
<event>
 4    1  0.3704929E-001  0.2239717E+02  0.7818608E-02  0.1701472E+00
          2   -1    0    0  501    0  0.00000000000E+00  0.00000000000E+00  0.15743401631E+01  0.15743423100E+01  0.26000000000E-02 0. -1.
         -2   -1    0    0    0  501 -0.00000000000E+00 -0.00000000000E+00 -0.79657655411E+02  0.79657655454E+02  0.26000000000E-02 0.  1.
        -13    1    1    2    0    0  0.95020121386E+01  0.51870871261E+01 -0.28653901337E+02  0.30630888689E+02  0.10570000000E+00 0. -1.
         13    1    1    2    0    0 -0.95020121386E+01 -0.51870871261E+01 -0.49429413911E+02  0.50601109075E+02  0.10570000000E+00 0.  1.
<mgrwt>
<rscale>  0 0.22397173E+02</rscale>
<asrwt>0</asrwt>
<pdfrwt beam="1">  1        2 0.24220641E-03 0.22397173E+02</pdfrwt>
<pdfrwt beam="2">  1       -2 0.12255021E-01 0.22397173E+02</pdfrwt>
<totfact> 0.24375563E+06</totfact>
</mgrwt>
</event>
<event>
 4    1  0.3704929E-001  0.2711989E+03  0.7818608E-02  0.1100595E+00
         -2   -1    0    0    0  501 -0.00000000000E+00  0.00000000000E+00  0.10232661946E+03  0.10232661950E+03  0.26000000000E-02 0.  1.
          2   -1    0    0  501    0  0.00000000000E+00 -0.00000000000E+00 -0.17969143808E+03  0.17969143810E+03  0.26000000000E-02 0. -1.
        -13    1    1    2    0    0  0.12342573544E+03  0.80684140121E+01  0.19106068785E+02  0.12515616050E+03  0.10570000000E+00 0.  1.
         13    1    1    2    0    0 -0.12342573544E+03 -0.80684140121E+01 -0.96470887398E+02  0.15686189710E+03  0.10570000000E+00 0. -1.
<mgrwt>
<rscale>  0 0.27119895E+03</rscale>
<asrwt>0</asrwt>
<pdfrwt beam="2">  1        2 0.27644837E-01 0.27119895E+03</pdfrwt>
<pdfrwt beam="1">  1       -2 0.15742557E-01 0.27119895E+03</pdfrwt>
<totfact> 0.60156953E+03</totfact>
</mgrwt>
</event>
<event>
 4    1  0.3704929E-001  0.5302094E+02  0.7818608E-02  0.1429697E+00
         -2   -1    0    0    0  501 -0.00000000000E+00  0.00000000000E+00  0.22106350241E+02  0.22106350393E+02  0.26000000000E-02 0. -1.
          2   -1    0    0  501    0  0.00000000000E+00 -0.00000000000E+00 -0.31791997816E+02  0.31791997922E+02  0.26000000000E-02 0.  1.
        -13    1    1    2    0    0  0.11758442084E+02 -0.10575836362E+02 -0.26471298092E+02  0.30835856890E+02  0.10570000000E+00 0.  1.
         13    1    1    2    0    0 -0.11758442084E+02  0.10575836362E+02  0.16785650516E+02  0.23062491425E+02  0.10570000000E+00 0. -1.
<mgrwt>
<rscale>  0 0.53020941E+02</rscale>
<asrwt>0</asrwt>
<pdfrwt beam="2">  1        2 0.48910766E-02 0.53020941E+02</pdfrwt>
<pdfrwt beam="1">  1       -2 0.34009770E-02 0.53020941E+02</pdfrwt>
<totfact> 0.40625088E+05</totfact>
</mgrwt>
</event>
<event>
 4    1  0.3704929E-001  0.3547288E+02  0.7818608E-02  0.1544441E+00
          2   -1    0    0  501    0  0.00000000000E+00  0.00000000000E+00  0.20908765156E+02  0.20908765318E+02  0.26000000000E-02 0.  1.
         -2   -1    0    0    0  501 -0.00000000000E+00 -0.00000000000E+00 -0.15045429879E+02  0.15045430103E+02  0.26000000000E-02 0. -1.
        -13    1    1    2    0    0  0.87162466345E+01  0.12519129240E+02 -0.62392306110E+01  0.16481526732E+02  0.10570000000E+00 0. -1.
         13    1    1    2    0    0 -0.87162466345E+01 -0.12519129240E+02  0.12102565889E+02  0.19472668689E+02  0.10570000000E+00 0.  1.
<mgrwt>
<rscale>  0 0.35472884E+02</rscale>
<asrwt>0</asrwt>
<pdfrwt beam="1">  1        2 0.32167331E-02 0.35472884E+02</pdfrwt>
<pdfrwt beam="2">  1       -2 0.23146816E-02 0.35472884E+02</pdfrwt>
<totfact> 0.10736961E+06</totfact>
</mgrwt>
</event>
<event>
 4    1  0.3704929E-001  0.3488773E+02  0.7818608E-02  0.1549600E+00
          2   -1    0    0  501    0  0.00000000000E+00  0.00000000000E+00  0.70617676667E+02  0.70617676715E+02  0.26000000000E-02 0.  1.
         -2   -1    0    0    0  501 -0.00000000000E+00 -0.00000000000E+00 -0.43089540636E+01  0.43089548480E+01  0.26000000000E-02 0. -1.
        -13    1    1    2    0    0  0.12689538118E+02 -0.99444502321E+01  0.18850186226E+02  0.24804377866E+02  0.10570000000E+00 0. -1.
         13    1    1    2    0    0 -0.12689538118E+02  0.99444502321E+01  0.47458536378E+02  0.50122253697E+02  0.10570000000E+00 0.  1.
<mgrwt>
<rscale>  0 0.34887726E+02</rscale>
<asrwt>0</asrwt>
<pdfrwt beam="1">  1        2 0.10864257E-01 0.34887726E+02</pdfrwt>
<pdfrwt beam="2">  1       -2 0.66291613E-03 0.34887726E+02</pdfrwt>
<totfact> 0.13479292E+06</totfact>
</mgrwt>
</event>
<event>
 4    1  0.3704929E-001  0.3348618E+02  0.7818608E-02  0.1562470E+00
         -2   -1    0    0    0  501 -0.00000000000E+00  0.00000000000E+00  0.28509228329E+01  0.28509240185E+01  0.26000000000E-02 0.  1.
          2   -1    0    0  501    0  0.00000000000E+00 -0.00000000000E+00 -0.98329907295E+02  0.98329907330E+02  0.26000000000E-02 0. -1.
        -13    1    1    2    0    0  0.36723129265E+01  0.15412714258E+02 -0.31388854973E+02  0.35161186443E+02  0.10570000000E+00 0.  1.
         13    1    1    2    0    0 -0.36723129265E+01 -0.15412714258E+02 -0.64090129489E+02  0.66019644906E+02  0.10570000000E+00 0. -1.
<mgrwt>
<rscale>  0 0.33486179E+02</rscale>
<asrwt>0</asrwt>
<pdfrwt beam="2">  1        2 0.15127675E-01 0.33486179E+02</pdfrwt>
<pdfrwt beam="1">  1       -2 0.43860368E-03 0.33486179E+02</pdfrwt>
<totfact> 0.16020872E+06</totfact>
</mgrwt>
</event>
<event>
 4    1  0.3704929E-001  0.4607473E+02  0.7818608E-02  0.1467742E+00
          2   -1    0    0  501    0  0.00000000000E+00  0.00000000000E+00  0.64821382022E+02  0.64821382074E+02  0.26000000000E-02 0. -1.
         -2   -1    0    0    0  501 -0.00000000000E+00 -0.00000000000E+00 -0.81874253045E+01  0.81874257173E+01  0.26000000000E-02 0.  1.
        -13    1    1    2    0    0  0.83720786199E+01  0.74821014550E+01  0.60191556102E+02  0.61229961139E+02  0.10570000000E+00 0. -1.
         13    1    1    2    0    0 -0.83720786199E+01 -0.74821014550E+01 -0.35575993843E+01  0.11778846653E+02  0.10570000000E+00 0.  1.
<mgrwt>
<rscale>  0 0.46074732E+02</rscale>
<asrwt>0</asrwt>
<pdfrwt beam="1">  1        2 0.99725201E-02 0.46074732E+02</pdfrwt>
<pdfrwt beam="2">  1       -2 0.12596040E-02 0.46074732E+02</pdfrwt>
<totfact> 0.66528688E+05</totfact>
</mgrwt>
</event>
<event>
 4    1  0.3704929E-001  0.2239999E+02  0.7818608E-02  0.1701425E+00
         -2   -1    0    0    0  501 -0.00000000000E+00  0.00000000000E+00  0.17629340276E+02  0.17629340467E+02  0.26000000000E-02 0. -1.
          2   -1    0    0  501    0  0.00000000000E+00 -0.00000000000E+00 -0.71154014762E+01  0.71154019512E+01  0.26000000000E-02 0.  1.
        -13    1    1    2    0    0 -0.87898009701E+01 -0.57908138557E+01  0.94829235467E+01  0.14167961663E+02  0.10570000000E+00 0. -1.
         13    1    1    2    0    0  0.87898009701E+01  0.57908138557E+01  0.10310152528E+01  0.10576780755E+02  0.10570000000E+00 0.  1.
<mgrwt>
<rscale>  0 0.22399986E+02</rscale>
<asrwt>0</asrwt>
<pdfrwt beam="2">  1        2 0.10946772E-02 0.22399986E+02</pdfrwt>
<pdfrwt beam="1">  1       -2 0.27122062E-02 0.22399986E+02</pdfrwt>
<totfact> 0.29528305E+06</totfact>
</mgrwt>
</event>
<event>
 4    1  0.3704929E-001  0.2915864E+02  0.7818608E-02  0.1607579E+00
          2   -1    0    0  501    0  0.00000000000E+00  0.00000000000E+00  0.78900265841E+02  0.78900265884E+02  0.26000000000E-02 0. -1.
         -2   -1    0    0    0  501 -0.00000000000E+00 -0.00000000000E+00 -0.26939891915E+01  0.26939904462E+01  0.26000000000E-02 0.  1.
        -13    1    1    2    0    0  0.10387028950E+02  0.93689506931E+01  0.26607066197E+02  0.30060185489E+02  0.10570000000E+00 0.  1.
         13    1    1    2    0    0 -0.10387028950E+02 -0.93689506931E+01  0.49599210452E+02  0.51534070842E+02  0.10570000000E+00 0. -1.
<mgrwt>
<rscale>  0 0.29158636E+02</rscale>
<asrwt>0</asrwt>
<pdfrwt beam="1">  1        2 0.12138501E-01 0.29158636E+02</pdfrwt>
<pdfrwt beam="2">  1       -2 0.41446003E-03 0.29158636E+02</pdfrwt>
<totfact> 0.21180172E+06</totfact>
</mgrwt>
</event>
<event>
 4    1  0.3704929E-001  0.2643254E+02  0.7818608E-02  0.1641239E+00
         -2   -1    0    0    0  501 -0.00000000000E+00  0.00000000000E+00  0.22613133191E+02  0.22613133341E+02  0.26000000000E-02 0.  1.
          2   -1    0    0  501    0  0.00000000000E+00 -0.00000000000E+00 -0.77242600853E+01  0.77242605228E+01  0.26000000000E-02 0. -1.
        -13    1    1    2    0    0  0.10599129096E+01 -0.12474954863E+02  0.12301737960E+02  0.17552545215E+02  0.10570000000E+00 0. -1.
         13    1    1    2    0    0 -0.10599129096E+01  0.12474954863E+02  0.25871351460E+01  0.12784848648E+02  0.10570000000E+00 0.  1.
<mgrwt>
<rscale>  0 0.26432535E+02</rscale>
<asrwt>0</asrwt>
<pdfrwt beam="2">  1        2 0.11883478E-02 0.26432535E+02</pdfrwt>
<pdfrwt beam="1">  1       -2 0.34789436E-02 0.26432535E+02</pdfrwt>
<totfact> 0.19979115E+06</totfact>
</mgrwt>
</event>
<event>
 4    1  0.3704929E-001  0.7326774E+02  0.7818608E-02  0.1349321E+00
         -2   -1    0    0    0  501 -0.00000000000E+00  0.00000000000E+00  0.15602559726E+02  0.15602559943E+02  0.26000000000E-02 0.  1.
          2   -1    0    0  501    0  0.00000000000E+00 -0.00000000000E+00 -0.86014110379E+02  0.86014110418E+02  0.26000000000E-02 0. -1.
        -13    1    1    2    0    0 -0.32239917838E+02  0.13503978610E+02 -0.50415161651E+02  0.61347122486E+02  0.10570000000E+00 0. -1.
         13    1    1    2    0    0  0.32239917838E+02 -0.13503978610E+02 -0.19996389001E+02  0.40269547875E+02  0.10570000000E+00 0.  1.
<mgrwt>
<rscale>  0 0.73267737E+02</rscale>
<asrwt>0</asrwt>
<pdfrwt beam="2">  1        2 0.13232940E-01 0.73267737E+02</pdfrwt>
<pdfrwt beam="1">  1       -2 0.24003939E-02 0.73267737E+02</pdfrwt>
<totfact> 0.21277280E+05</totfact>
</mgrwt>
</event>
<event>
 4    1  0.3704929E-001  0.2442754E+02  0.7818608E-02  0.1669363E+00
          2   -1    0    0  501    0  0.00000000000E+00  0.00000000000E+00  0.18617773109E+01  0.18617791264E+01  0.26000000000E-02 0. -1.
         -2   -1    0    0    0  501 -0.00000000000E+00 -0.00000000000E+00 -0.80125638602E+02  0.80125638644E+02  0.26000000000E-02 0.  1.
        -13    1    1    2    0    0  0.12097614739E+02 -0.15744771101E+01 -0.37192960958E+02  0.39142799821E+02  0.10570000000E+00 0. -1.
         13    1    1    2    0    0 -0.12097614739E+02  0.15744771101E+01 -0.41070900333E+02  0.42844617949E+02  0.10570000000E+00 0.  1.
<mgrwt>
<rscale>  0 0.24427540E+02</rscale>
<asrwt>0</asrwt>
<pdfrwt beam="1">  1        2 0.28642748E-03 0.24427540E+02</pdfrwt>
<pdfrwt beam="2">  1       -2 0.12327019E-01 0.24427540E+02</pdfrwt>
<totfact> 0.20048358E+06</totfact>
</mgrwt>
</event>
<event>
 4    1  0.3704929E-001  0.2295632E+02  0.7818608E-02  0.1692219E+00
          2   -1    0    0  501    0  0.00000000000E+00  0.00000000000E+00  0.71318785688E+02  0.71318785736E+02  0.26000000000E-02 0. -1.
         -2   -1    0    0    0  501 -0.00000000000E+00 -0.00000000000E+00 -0.18473119016E+01  0.18473137312E+01  0.26000000000E-02 0.  1.
        -13    1    1    2    0    0 -0.11140231498E+02  0.11263038613E+01  0.42775806607E+02  0.44217124755E+02  0.10570000000E+00 0. -1.
         13    1    1    2    0    0  0.11140231498E+02 -0.11263038613E+01  0.26695667179E+02  0.28948974712E+02  0.10570000000E+00 0.  1.
<mgrwt>
<rscale>  0 0.22956316E+02</rscale>
<asrwt>0</asrwt>
<pdfrwt beam="1">  1        2 0.10972118E-01 0.22956316E+02</pdfrwt>
<pdfrwt beam="2">  1       -2 0.28420206E-03 0.22956316E+02</pdfrwt>
<totfact> 0.36097615E+06</totfact>
</mgrwt>
</event>
<event>
 4    1  0.3704929E-001  0.2584543E+02  0.7818608E-02  0.1649147E+00
          2   -1    0    0  501    0  0.00000000000E+00  0.00000000000E+00  0.10051213569E+03  0.10051213572E+03  0.26000000000E-02 0.  1.
         -2   -1    0    0    0  501 -0.00000000000E+00 -0.00000000000E+00 -0.16614561669E+01  0.16614582012E+01  0.26000000000E-02 0. -1.
        -13    1    1    2    0    0 -0.12282497237E+02 -0.39722337007E+01  0.47096399703E+02  0.48833599258E+02  0.10570000000E+00 0. -1.
         13    1    1    2    0    0  0.12282497237E+02  0.39722337007E+01  0.51754279821E+02  0.53339994668E+02  0.10570000000E+00 0.  1.
<mgrwt>
<rscale>  0 0.25845434E+02</rscale>
<asrwt>0</asrwt>
<pdfrwt beam="1">  1        2 0.15463408E-01 0.25845434E+02</pdfrwt>
<pdfrwt beam="2">  1       -2 0.25560876E-03 0.25845434E+02</pdfrwt>
<totfact> 0.29617047E+06</totfact>
</mgrwt>
</event>
<event>
 4    1  0.3704929E-001  0.3905326E+02  0.7818608E-02  0.1515296E+00
         -2   -1    0    0    0  501 -0.00000000000E+00  0.00000000000E+00  0.14834181463E+02  0.14834181690E+02  0.26000000000E-02 0. -1.
          2   -1    0    0  501    0  0.00000000000E+00 -0.00000000000E+00 -0.25703426858E+02  0.25703426990E+02  0.26000000000E-02 0.  1.
        -13    1    1    2    0    0  0.30296907242E+01  0.14534946587E+02 -0.18598697362E+02  0.23798454031E+02  0.10570000000E+00 0. -1.
         13    1    1    2    0    0 -0.30296907242E+01 -0.14534946587E+02  0.77294519667E+01  0.16739154649E+02  0.10570000000E+00 0.  1.
<mgrwt>
<rscale>  0 0.39053261E+02</rscale>
<asrwt>0</asrwt>
<pdfrwt beam="2">  1        2 0.39543734E-02 0.39053261E+02</pdfrwt>
<pdfrwt beam="1">  1       -2 0.22821818E-02 0.39053261E+02</pdfrwt>
<totfact> 0.86581350E+05</totfact>
</mgrwt>
</event>
<event>
 4    1  0.3704929E-001  0.4610437E+02  0.7818608E-02  0.1467563E+00
         -2   -1    0    0    0  501 -0.00000000000E+00  0.00000000000E+00  0.49147063543E+02  0.49147063611E+02  0.26000000000E-02 0.  1.
          2   -1    0    0  501    0  0.00000000000E+00 -0.00000000000E+00 -0.10812510137E+02  0.10812510450E+02  0.26000000000E-02 0. -1.
        -13    1    1    2    0    0 -0.22596269724E+02 -0.43659928153E+01  0.20882119022E+02  0.31076154300E+02  0.10570000000E+00 0. -1.
         13    1    1    2    0    0  0.22596269724E+02  0.43659928153E+01  0.17452434383E+02  0.28883419761E+02  0.10570000000E+00 0.  1.
<mgrwt>
<rscale>  0 0.46104366E+02</rscale>
<asrwt>0</asrwt>
<pdfrwt beam="2">  1        2 0.16634631E-02 0.46104366E+02</pdfrwt>
<pdfrwt beam="1">  1       -2 0.75610868E-02 0.46104366E+02</pdfrwt>
<totfact> 0.49654249E+05</totfact>
</mgrwt>
</event>
<event>
 4    1  0.3704929E-001  0.2739377E+02  0.7818608E-02  0.1628823E+00
         -2   -1    0    0    0  501 -0.00000000000E+00  0.00000000000E+00  0.89253531295E+02  0.89253531333E+02  0.26000000000E-02 0. -1.
          2   -1    0    0  501    0  0.00000000000E+00 -0.00000000000E+00 -0.21019285455E+01  0.21019301535E+01  0.26000000000E-02 0.  1.
        -13    1    1    2    0    0 -0.12835409028E+02 -0.47722354978E+01  0.42684120438E+02  0.44827081843E+02  0.10570000000E+00 0.  1.
         13    1    1    2    0    0  0.12835409028E+02  0.47722354978E+01  0.44467482311E+02  0.46528379643E+02  0.10570000000E+00 0. -1.
<mgrwt>
<rscale>  0 0.27393767E+02</rscale>
<asrwt>0</asrwt>
<pdfrwt beam="2">  1        2 0.32337378E-03 0.27393767E+02</pdfrwt>
<pdfrwt beam="1">  1       -2 0.13731311E-01 0.27393767E+02</pdfrwt>
<totfact> 0.15099745E+06</totfact>
</mgrwt>
</event>
<event>
 4    1  0.3704929E-001  0.5943730E+02  0.7818608E-02  0.1400208E+00
          2   -1    0    0  501    0  0.00000000000E+00  0.00000000000E+00  0.64188234613E+02  0.64188234666E+02  0.26000000000E-02 0.  1.
         -2   -1    0    0    0  501 -0.00000000000E+00 -0.00000000000E+00 -0.13759504214E+02  0.13759504459E+02  0.26000000000E-02 0. -1.
        -13    1    1    2    0    0 -0.79055866890E+01 -0.28639054283E+02  0.26135537235E+02  0.39569827018E+02  0.10570000000E+00 0.  1.
         13    1    1    2    0    0  0.79055866890E+01  0.28639054283E+02  0.24293193164E+02  0.38377912107E+02  0.10570000000E+00 0. -1.
<mgrwt>
<rscale>  0 0.59437305E+02</rscale>
<asrwt>0</asrwt>
<pdfrwt beam="1">  1        2 0.98751129E-02 0.59437305E+02</pdfrwt>
<pdfrwt beam="2">  1       -2 0.21168468E-02 0.59437305E+02</pdfrwt>
<totfact> 0.34470637E+05</totfact>
</mgrwt>
</event>
<event>
 4    1  0.3704929E-001  0.4484396E+02  0.7818608E-02  0.1475318E+00
          2   -1    0    0  501    0  0.00000000000E+00  0.00000000000E+00  0.17339335627E+02  0.17339335822E+02  0.26000000000E-02 0.  1.
         -2   -1    0    0    0  501 -0.00000000000E+00 -0.00000000000E+00 -0.28994488950E+02  0.28994489067E+02  0.26000000000E-02 0. -1.
        -13    1    1    2    0    0 -0.76341345230E+01  0.12031606703E+02 -0.23714413342E+02  0.27666299760E+02  0.10570000000E+00 0. -1.
         13    1    1    2    0    0  0.76341345230E+01 -0.12031606703E+02  0.12059260018E+02  0.18667525129E+02  0.10570000000E+00 0.  1.
<mgrwt>
<rscale>  0 0.44843960E+02</rscale>
<asrwt>0</asrwt>
<pdfrwt beam="1">  1        2 0.26675901E-02 0.44843960E+02</pdfrwt>
<pdfrwt beam="2">  1       -2 0.44606906E-02 0.44843960E+02</pdfrwt>
<totfact> 0.57494308E+05</totfact>
</mgrwt>
</event>
<event>
 4    1  0.3704929E-001  0.3193269E+02  0.7818608E-02  0.1577658E+00
          2   -1    0    0  501    0  0.00000000000E+00  0.00000000000E+00  0.24469598336E+01  0.24469612149E+01  0.26000000000E-02 0. -1.
         -2   -1    0    0    0  501 -0.00000000000E+00 -0.00000000000E+00 -0.10417992077E+03  0.10417992080E+03  0.26000000000E-02 0.  1.
        -13    1    1    2    0    0  0.45714332870E+01  0.14749465238E+02 -0.64416971751E+02  0.66241996869E+02  0.10570000000E+00 0. -1.
         13    1    1    2    0    0 -0.45714332870E+01 -0.14749465238E+02 -0.37315989185E+02  0.40384885148E+02  0.10570000000E+00 0.  1.
<mgrwt>
<rscale>  0 0.31932689E+02</rscale>
<asrwt>0</asrwt>
<pdfrwt beam="1">  1        2 0.37645555E-03 0.31932689E+02</pdfrwt>
<pdfrwt beam="2">  1       -2 0.16027677E-01 0.31932689E+02</pdfrwt>
<totfact> 0.10211406E+06</totfact>
</mgrwt>
</event>
<event>
 4    1  0.3704929E-001  0.5471130E+02  0.7818608E-02  0.1421469E+00
         -2   -1    0    0    0  501 -0.00000000000E+00  0.00000000000E+00  0.15373848249E+03  0.15373848251E+03  0.26000000000E-02 0. -1.
          2   -1    0    0  501    0  0.00000000000E+00 -0.00000000000E+00 -0.48675607228E+01  0.48675614172E+01  0.26000000000E-02 0.  1.
        -13    1    1    2    0    0  0.21575207842E+02 -0.31565512995E+01  0.12232251753E+03  0.12425080634E+03  0.10570000000E+00 0. -1.
         13    1    1    2    0    0 -0.21575207842E+02  0.31565512995E+01  0.26548404235E+02  0.34355237584E+02  0.10570000000E+00 0.  1.
<mgrwt>
<rscale>  0 0.54711295E+02</rscale>
<asrwt>0</asrwt>
<pdfrwt beam="2">  1        2 0.74885557E-03 0.54711295E+02</pdfrwt>
<pdfrwt beam="1">  1       -2 0.23652074E-01 0.54711295E+02</pdfrwt>
<totfact> 0.24926924E+05</totfact>
</mgrwt>
</event>
<event>
 4    1  0.3704929E-001  0.4308505E+02  0.7818608E-02  0.1486663E+00
         -2   -1    0    0    0  501 -0.00000000000E+00  0.00000000000E+00  0.14398487307E+03  0.14398487309E+03  0.26000000000E-02 0. -1.
          2   -1    0    0  501    0  0.00000000000E+00 -0.00000000000E+00 -0.32231181657E+01  0.32231192144E+01  0.26000000000E-02 0.  1.
        -13    1    1    2    0    0 -0.33115646688E+01  0.20636732163E+02  0.88209287420E+02  0.90651700119E+02  0.10570000000E+00 0. -1.
         13    1    1    2    0    0  0.33115646688E+01 -0.20636732163E+02  0.52552467483E+02  0.56556292187E+02  0.10570000000E+00 0.  1.
<mgrwt>
<rscale>  0 0.43085048E+02</rscale>
<asrwt>0</asrwt>
<pdfrwt beam="2">  1        2 0.49586444E-03 0.43085048E+02</pdfrwt>
<pdfrwt beam="1">  1       -2 0.22151518E-01 0.43085048E+02</pdfrwt>
<totfact> 0.45690136E+05</totfact>
</mgrwt>
</event>
<event>
 4    1  0.3704929E-001  0.2462234E+02  0.7818608E-02  0.1666486E+00
          2   -1    0    0  501    0  0.00000000000E+00  0.00000000000E+00  0.26044402688E+02  0.26044402818E+02  0.26000000000E-02 0. -1.
         -2   -1    0    0    0  501 -0.00000000000E+00 -0.00000000000E+00 -0.58194822416E+01  0.58194828224E+01  0.26000000000E-02 0.  1.
        -13    1    1    2    0    0  0.99741781064E+01 -0.68767334958E+01  0.12941813462E+02  0.17727814322E+02  0.10570000000E+00 0. -1.
         13    1    1    2    0    0 -0.99741781064E+01  0.68767334958E+01  0.72831069844E+01  0.14136071318E+02  0.10570000000E+00 0.  1.
<mgrwt>
<rscale>  0 0.24622344E+02</rscale>
<asrwt>0</asrwt>
<pdfrwt beam="1">  1        2 0.40068313E-02 0.24622344E+02</pdfrwt>
<pdfrwt beam="2">  1       -2 0.89530500E-03 0.24622344E+02</pdfrwt>
<totfact> 0.26546470E+06</totfact>
</mgrwt>
</event>
<event>
 4    1  0.3704929E-001  0.2680236E+02  0.7818608E-02  0.1636387E+00
         -2   -1    0    0    0  501 -0.00000000000E+00  0.00000000000E+00  0.72046192984E+02  0.72046193031E+02  0.26000000000E-02 0. -1.
          2   -1    0    0  501    0  0.00000000000E+00 -0.00000000000E+00 -0.24927275384E+01  0.24927288944E+01  0.26000000000E-02 0.  1.
        -13    1    1    2    0    0 -0.16257543253E+01  0.12747504803E+02  0.24209276449E+02  0.27408797757E+02  0.10570000000E+00 0.  1.
         13    1    1    2    0    0  0.16257543253E+01 -0.12747504803E+02  0.45344188997E+02  0.47130124168E+02  0.10570000000E+00 0. -1.
<mgrwt>
<rscale>  0 0.26802357E+02</rscale>
<asrwt>0</asrwt>
<pdfrwt beam="2">  1        2 0.38349666E-03 0.26802357E+02</pdfrwt>
<pdfrwt beam="1">  1       -2 0.11084030E-01 0.26802357E+02</pdfrwt>
<totfact> 0.16584848E+06</totfact>
</mgrwt>
</event>
<event>
 4    1  0.3704929E-001  0.6880130E+02  0.7818608E-02  0.1364217E+00
         -2   -1    0    0    0  501 -0.00000000000E+00  0.00000000000E+00  0.12988388504E+02  0.12988388764E+02  0.26000000000E-02 0. -1.
          2   -1    0    0  501    0  0.00000000000E+00 -0.00000000000E+00 -0.91112518746E+02  0.91112518784E+02  0.26000000000E-02 0.  1.
        -13    1    1    2    0    0 -0.33524976473E+02  0.54440237787E+01 -0.47326257830E+02  0.58252444542E+02  0.10570000000E+00 0. -1.
         13    1    1    2    0    0  0.33524976473E+02 -0.54440237787E+01 -0.30797872412E+02  0.45848463006E+02  0.10570000000E+00 0.  1.
<mgrwt>
<rscale>  0 0.68801303E+02</rscale>
<asrwt>0</asrwt>
<pdfrwt beam="2">  1        2 0.14017310E-01 0.68801303E+02</pdfrwt>
<pdfrwt beam="1">  1       -2 0.19982137E-02 0.68801303E+02</pdfrwt>
<totfact> 0.25552085E+05</totfact>
</mgrwt>
</event>
<event>
 4    1  0.3704929E-001  0.2236993E+02  0.7818608E-02  0.1701932E+00
          2   -1    0    0  501    0  0.00000000000E+00  0.00000000000E+00  0.78864876898E+01  0.78864881184E+01  0.26000000000E-02 0.  1.
         -2   -1    0    0    0  501 -0.00000000000E+00 -0.00000000000E+00 -0.15863011610E+02  0.15863011823E+02  0.26000000000E-02 0. -1.
        -13    1    1    2    0    0 -0.33269177626E+01  0.10645481445E+02 -0.31015133696E+01  0.11576925959E+02  0.10570000000E+00 0.  1.
         13    1    1    2    0    0  0.33269177626E+01 -0.10645481445E+02 -0.48750105504E+01  0.12172573982E+02  0.10570000000E+00 0. -1.
<mgrwt>
<rscale>  0 0.22369931E+02</rscale>
<asrwt>0</asrwt>
<pdfrwt beam="1">  1        2 0.12133058E-02 0.22369931E+02</pdfrwt>
<pdfrwt beam="2">  1       -2 0.24404634E-02 0.22369931E+02</pdfrwt>
<totfact> 0.29876468E+06</totfact>
</mgrwt>
</event>
<event>
 4    1  0.3704929E-001  0.2286662E+02  0.7818608E-02  0.1693681E+00
         -2   -1    0    0    0  501 -0.00000000000E+00  0.00000000000E+00  0.34264446307E+01  0.34264456172E+01  0.26000000000E-02 0. -1.
          2   -1    0    0  501    0  0.00000000000E+00 -0.00000000000E+00 -0.38150504580E+02  0.38150504668E+02  0.26000000000E-02 0.  1.
        -13    1    1    2    0    0  0.10542908676E+02 -0.42910405759E+01 -0.19306344690E+02  0.22412319611E+02  0.10570000000E+00 0.  1.
         13    1    1    2    0    0 -0.10542908676E+02  0.42910405759E+01 -0.15417715259E+02  0.19164630674E+02  0.10570000000E+00 0. -1.
<mgrwt>
<rscale>  0 0.22866623E+02</rscale>
<asrwt>0</asrwt>
<pdfrwt beam="2">  1        2 0.58693082E-02 0.22866623E+02</pdfrwt>
<pdfrwt beam="1">  1       -2 0.52714544E-03 0.22866623E+02</pdfrwt>
<totfact> 0.32952641E+06</totfact>
</mgrwt>
</event>
<event>
 4    1  0.3704929E-001  0.6368429E+02  0.7818608E-02  0.1382990E+00
         -2   -1    0    0    0  501 -0.00000000000E+00  0.00000000000E+00  0.67121852748E+02  0.67121852798E+02  0.26000000000E-02 0.  1.
          2   -1    0    0  501    0  0.00000000000E+00 -0.00000000000E+00 -0.15105694187E+02  0.15105694411E+02  0.26000000000E-02 0. -1.
        -13    1    1    2    0    0 -0.25003056944E+02 -0.20352324130E+01  0.68603903252E+00  0.25095355139E+02  0.10570000000E+00 0. -1.
         13    1    1    2    0    0  0.25003056944E+02  0.20352324130E+01  0.51330119528E+02  0.57132192070E+02  0.10570000000E+00 0.  1.
<mgrwt>
<rscale>  0 0.63684290E+02</rscale>
<asrwt>0</asrwt>
<pdfrwt beam="2">  1        2 0.23239530E-02 0.63684290E+02</pdfrwt>
<pdfrwt beam="1">  1       -2 0.10326439E-01 0.63684290E+02</pdfrwt>
<totfact> 0.21423126E+05</totfact>
</mgrwt>
</event>
<event>
 4    1  0.3704929E-001  0.4601319E+02  0.7818608E-02  0.1468114E+00
          2   -1    0    0  501    0  0.00000000000E+00  0.00000000000E+00  0.32054228241E+01  0.32054238786E+01  0.26000000000E-02 0.  1.
         -2   -1    0    0    0  501 -0.00000000000E+00 -0.00000000000E+00 -0.16512746197E+03  0.16512746200E+03  0.26000000000E-02 0. -1.
        -13    1    1    2    0    0  0.16053410619E+02 -0.14886346664E+02 -0.55098462096E+02  0.59288843869E+02  0.10570000000E+00 0. -1.
         13    1    1    2    0    0 -0.16053410619E+02  0.14886346664E+02 -0.10682357705E+03  0.10904404200E+03  0.10570000000E+00 0.  1.
<mgrwt>
<rscale>  0 0.46013191E+02</rscale>
<asrwt>0</asrwt>
<pdfrwt beam="1">  1        2 0.49314219E-03 0.46013191E+02</pdfrwt>
<pdfrwt beam="2">  1       -2 0.25404218E-01 0.46013191E+02</pdfrwt>
<totfact> 0.37182668E+05</totfact>
</mgrwt>
</event>
<event>
 4    1  0.3704929E-001  0.6259083E+02  0.7818608E-02  0.1387270E+00
         -2   -1    0    0    0  501 -0.00000000000E+00  0.00000000000E+00  0.43193467004E+01  0.43193474829E+01  0.26000000000E-02 0. -1.
          2   -1    0    0  501    0  0.00000000000E+00 -0.00000000000E+00 -0.22674794733E+03  0.22674794735E+03  0.26000000000E-02 0.  1.
        -13    1    1    2    0    0 -0.23085526858E+02  0.21116824557E+02 -0.10852647043E+03  0.11294630488E+03  0.10570000000E+00 0.  1.
         13    1    1    2    0    0  0.23085526858E+02 -0.21116824557E+02 -0.11390213020E+03  0.11812098995E+03  0.10570000000E+00 0. -1.
<mgrwt>
<rscale>  0 0.62590833E+02</rscale>
<asrwt>0</asrwt>
<pdfrwt beam="2">  1        2 0.34884291E-01 0.62590833E+02</pdfrwt>
<pdfrwt beam="1">  1       -2 0.66451511E-03 0.62590833E+02</pdfrwt>
<totfact> 0.43471883E+05</totfact>
</mgrwt>
</event>
<event>
 4    1  0.3704929E-001  0.2282728E+02  0.7818608E-02  0.1694325E+00
         -2   -1    0    0    0  501 -0.00000000000E+00  0.00000000000E+00  0.21228306010E+01  0.21228321933E+01  0.26000000000E-02 0.  1.
          2   -1    0    0  501    0  0.00000000000E+00 -0.00000000000E+00 -0.61366704091E+02  0.61366704146E+02  0.26000000000E-02 0. -1.
        -13    1    1    2    0    0  0.10243520748E+02 -0.24290058771E+01 -0.41881831831E+02  0.43184821372E+02  0.10570000000E+00 0. -1.
         13    1    1    2    0    0 -0.10243520748E+02  0.24290058771E+01 -0.17362041659E+02  0.20304714968E+02  0.10570000000E+00 0.  1.
<mgrwt>
<rscale>  0 0.22827279E+02</rscale>
<asrwt>0</asrwt>
<pdfrwt beam="2">  1        2 0.94410302E-02 0.22827279E+02</pdfrwt>
<pdfrwt beam="1">  1       -2 0.32658950E-03 0.22827279E+02</pdfrwt>
<totfact> 0.35566442E+06</totfact>
</mgrwt>
</event>
<event>
 4    1  0.3704929E-001  0.2538723E+02  0.7818608E-02  0.1655501E+00
          2   -1    0    0  501    0  0.00000000000E+00  0.00000000000E+00  0.81656073204E+02  0.81656073245E+02  0.26000000000E-02 0. -1.
         -2   -1    0    0    0  501 -0.00000000000E+00 -0.00000000000E+00 -0.19732495623E+01  0.19732512752E+01  0.26000000000E-02 0.  1.
        -13    1    1    2    0    0  0.75257251652E+00  0.12550758676E+02  0.45574369593E+02  0.47277079489E+02  0.10570000000E+00 0. -1.
         13    1    1    2    0    0 -0.75257251652E+00 -0.12550758676E+02  0.34108454049E+02  0.36352245031E+02  0.10570000000E+00 0.  1.
<mgrwt>
<rscale>  0 0.25387232E+02</rscale>
<asrwt>0</asrwt>
<pdfrwt beam="1">  1        2 0.12562475E-01 0.25387232E+02</pdfrwt>
<pdfrwt beam="2">  1       -2 0.30357694E-03 0.25387232E+02</pdfrwt>
<totfact> 0.29463538E+06</totfact>
</mgrwt>
</event>
<event>
 4    1  0.3704929E-001  0.3355646E+02  0.7818608E-02  0.1561806E+00
          2   -1    0    0  501    0  0.00000000000E+00  0.00000000000E+00  0.40163341190E+02  0.40163341274E+02  0.26000000000E-02 0. -1.
         -2   -1    0    0    0  501 -0.00000000000E+00 -0.00000000000E+00 -0.70091017780E+01  0.70091022602E+01  0.26000000000E-02 0.  1.
        -13    1    1    2    0    0  0.97667911270E+01  0.52125607247E+01 -0.11453598451E+01  0.11130319847E+02  0.10570000000E+00 0.  1.
         13    1    1    2    0    0 -0.97667911270E+01 -0.52125607247E+01  0.34299599257E+02  0.36042123688E+02  0.10570000000E+00 0. -1.
<mgrwt>
<rscale>  0 0.33556457E+02</rscale>
<asrwt>0</asrwt>
<pdfrwt beam="1">  1        2 0.61789759E-02 0.33556457E+02</pdfrwt>
<pdfrwt beam="2">  1       -2 0.10783233E-02 0.33556457E+02</pdfrwt>
<totfact> 0.13415691E+06</totfact>
</mgrwt>
</event>
<event>
 4    1  0.3704929E-001  0.2083962E+02  0.7818608E-02  0.1729129E+00
         -2   -1    0    0    0  501 -0.00000000000E+00  0.00000000000E+00  0.90864808031E+02  0.90864808068E+02  0.26000000000E-02 0.  1.
          2   -1    0    0  501    0  0.00000000000E+00 -0.00000000000E+00 -0.11948774131E+01  0.11948802418E+01  0.26000000000E-02 0. -1.
        -13    1    1    2    0    0 -0.93119578819E+01 -0.46500835755E+01  0.46932382965E+02  0.48072815397E+02  0.10570000000E+00 0.  1.
         13    1    1    2    0    0  0.93119578819E+01  0.46500835755E+01  0.42737547652E+02  0.43986872913E+02  0.10570000000E+00 0. -1.
<mgrwt>
<rscale>  0 0.20839620E+02</rscale>
<asrwt>0</asrwt>
<pdfrwt beam="2">  1        2 0.18382748E-03 0.20839620E+02</pdfrwt>
<pdfrwt beam="1">  1       -2 0.13979204E-01 0.20839620E+02</pdfrwt>
<totfact> 0.27790142E+06</totfact>
</mgrwt>
</event>
<event>
 4    1  0.3704929E-001  0.2758706E+02  0.7818608E-02  0.1626402E+00
          2   -1    0    0  501    0  0.00000000000E+00  0.00000000000E+00  0.95305395973E+01  0.95305399519E+01  0.26000000000E-02 0.  1.
         -2   -1    0    0    0  501 -0.00000000000E+00 -0.00000000000E+00 -0.19963343837E+02  0.19963344006E+02  0.26000000000E-02 0. -1.
        -13    1    1    2    0    0  0.64355370536E+01 -0.10504567035E+02  0.14162989124E+01  0.12400771785E+02  0.10570000000E+00 0.  1.
         13    1    1    2    0    0 -0.64355370536E+01  0.10504567035E+02 -0.11849103152E+02  0.17093112173E+02  0.10570000000E+00 0. -1.
<mgrwt>
<rscale>  0 0.27587058E+02</rscale>
<asrwt>0</asrwt>
<pdfrwt beam="1">  1        2 0.14662369E-02 0.27587058E+02</pdfrwt>
<pdfrwt beam="2">  1       -2 0.30712837E-02 0.27587058E+02</pdfrwt>
<totfact> 0.18370872E+06</totfact>
</mgrwt>
</event>
<event>
 4    1  0.3704929E-001  0.4013242E+02  0.7818608E-02  0.1507239E+00
          2   -1    0    0  501    0  0.00000000000E+00  0.00000000000E+00  0.42224310787E+02  0.42224310867E+02  0.26000000000E-02 0.  1.
         -2   -1    0    0    0  501 -0.00000000000E+00 -0.00000000000E+00 -0.95360419754E+01  0.95360423298E+01  0.26000000000E-02 0. -1.
        -13    1    1    2    0    0  0.61086376376E+01 -0.14887560691E+02  0.31804159188E+02  0.35643661866E+02  0.10570000000E+00 0.  1.
         13    1    1    2    0    0 -0.61086376376E+01  0.14887560691E+02  0.88410962337E+00  0.16116691330E+02  0.10570000000E+00 0. -1.
<mgrwt>
<rscale>  0 0.40132421E+02</rscale>
<asrwt>0</asrwt>
<pdfrwt beam="1">  1        2 0.64960481E-02 0.40132421E+02</pdfrwt>
<pdfrwt beam="2">  1       -2 0.14670834E-02 0.40132421E+02</pdfrwt>
<totfact> 0.86961161E+05</totfact>
</mgrwt>
</event>
<event>
 4    1  0.3704929E-001  0.2521866E+02  0.7818608E-02  0.1657881E+00
          2   -1    0    0  501    0  0.00000000000E+00  0.00000000000E+00  0.14105573042E+02  0.14105573281E+02  0.26000000000E-02 0. -1.
         -2   -1    0    0    0  501 -0.00000000000E+00 -0.00000000000E+00 -0.11271797933E+02  0.11271798233E+02  0.26000000000E-02 0.  1.
        -13    1    1    2    0    0 -0.38126527862E+01  0.11509477554E+02 -0.20660523588E+01  0.12299761773E+02  0.10570000000E+00 0.  1.
         13    1    1    2    0    0  0.38126527862E+01 -0.11509477554E+02  0.48998274679E+01  0.13077609741E+02  0.10570000000E+00 0. -1.
<mgrwt>
<rscale>  0 0.25218658E+02</rscale>
<asrwt>0</asrwt>
<pdfrwt beam="1">  1        2 0.21700882E-02 0.25218658E+02</pdfrwt>
<pdfrwt beam="2">  1       -2 0.17341228E-02 0.25218658E+02</pdfrwt>
<totfact> 0.23644377E+06</totfact>
</mgrwt>
</event>
<event>
 4    1  0.3704929E-001  0.4228619E+02  0.7818608E-02  0.1492031E+00
         -2   -1    0    0    0  501 -0.00000000000E+00  0.00000000000E+00  0.44747835745E+01  0.44747843298E+01  0.26000000000E-02 0.  1.
          2   -1    0    0  501    0  0.00000000000E+00 -0.00000000000E+00 -0.99899875424E+02  0.99899875458E+02  0.26000000000E-02 0. -1.
        -13    1    1    2    0    0  0.27670279799E+01 -0.19471683143E+02 -0.28558805076E+02  0.34675919715E+02  0.10570000000E+00 0. -1.
         13    1    1    2    0    0 -0.27670279799E+01  0.19471683143E+02 -0.66866286774E+02  0.69698740073E+02  0.10570000000E+00 0.  1.
<mgrwt>
<rscale>  0 0.42286185E+02</rscale>
<asrwt>0</asrwt>
<pdfrwt beam="2">  1        2 0.15369210E-01 0.42286185E+02</pdfrwt>
<pdfrwt beam="1">  1       -2 0.68842838E-03 0.42286185E+02</pdfrwt>
<totfact> 0.91077407E+05</totfact>
</mgrwt>
</event>
<event>
 4    1  0.3704929E-001  0.5019683E+02  0.7818608E-02  0.1444283E+00
          2   -1    0    0  501    0  0.00000000000E+00  0.00000000000E+00  0.13493957353E+02  0.13493957604E+02  0.26000000000E-02 0.  1.
         -2   -1    0    0    0  501 -0.00000000000E+00 -0.00000000000E+00 -0.46682410858E+02  0.46682410930E+02  0.26000000000E-02 0. -1.
        -13    1    1    2    0    0  0.10101924491E+02 -0.67356802419E+01 -0.42927133128E+02  0.44611301234E+02  0.10570000000E+00 0. -1.
         13    1    1    2    0    0 -0.10101924491E+02  0.67356802419E+01  0.97386796235E+01  0.15565067300E+02  0.10570000000E+00 0.  1.
<mgrwt>
<rscale>  0 0.50196831E+02</rscale>
<asrwt>0</asrwt>
<pdfrwt beam="1">  1        2 0.20759935E-02 0.50196831E+02</pdfrwt>
<pdfrwt beam="2">  1       -2 0.71819093E-02 0.50196831E+02</pdfrwt>
<totfact> 0.40870165E+05</totfact>
</mgrwt>
</event>
<event>
 4    1  0.3704929E-001  0.3872082E+02  0.7818608E-02  0.1517842E+00
         -2   -1    0    0    0  501 -0.00000000000E+00  0.00000000000E+00  0.83469965529E+01  0.83469969579E+01  0.26000000000E-02 0.  1.
          2   -1    0    0  501    0  0.00000000000E+00 -0.00000000000E+00 -0.44905423280E+02  0.44905423355E+02  0.26000000000E-02 0. -1.
        -13    1    1    2    0    0  0.13013034010E+02  0.13232710903E+02 -0.10700050396E+02  0.21423023665E+02  0.10570000000E+00 0. -1.
         13    1    1    2    0    0 -0.13013034010E+02 -0.13232710903E+02 -0.25858376331E+02  0.31829396648E+02  0.10570000000E+00 0.  1.
<mgrwt>
<rscale>  0 0.38720817E+02</rscale>
<asrwt>0</asrwt>
<pdfrwt beam="2">  1        2 0.69085266E-02 0.38720817E+02</pdfrwt>
<pdfrwt beam="1">  1       -2 0.12841534E-02 0.38720817E+02</pdfrwt>
<totfact> 0.96036658E+05</totfact>
</mgrwt>
</event>
<event>
 4    1  0.3704929E-001  0.3384836E+02  0.7818608E-02  0.1559072E+00
          2   -1    0    0  501    0  0.00000000000E+00  0.00000000000E+00  0.34767319179E+02  0.34767319276E+02  0.26000000000E-02 0.  1.
         -2   -1    0    0    0  501 -0.00000000000E+00 -0.00000000000E+00 -0.82384231149E+01  0.82384235252E+01  0.26000000000E-02 0. -1.
        -13    1    1    2    0    0 -0.76892254434E+01 -0.81208729728E+01  0.29403021910E+02  0.31458252267E+02  0.10570000000E+00 0.  1.
         13    1    1    2    0    0  0.76892254434E+01  0.81208729728E+01 -0.28741258464E+01  0.11547490534E+02  0.10570000000E+00 0. -1.
<mgrwt>
<rscale>  0 0.33848362E+02</rscale>
<asrwt>0</asrwt>
<pdfrwt beam="1">  1        2 0.53488183E-02 0.33848362E+02</pdfrwt>
<pdfrwt beam="2">  1       -2 0.12674498E-02 0.33848362E+02</pdfrwt>
<totfact> 0.12864400E+06</totfact>
</mgrwt>
</event>
<event>
 4    1  0.3704929E-001  0.4367584E+02  0.7818608E-02  0.1482781E+00
         -2   -1    0    0    0  501 -0.00000000000E+00  0.00000000000E+00  0.61632220018E+01  0.61632225502E+01  0.26000000000E-02 0. -1.
          2   -1    0    0  501    0  0.00000000000E+00 -0.00000000000E+00 -0.77377508010E+02  0.77377508054E+02  0.26000000000E-02 0.  1.
        -13    1    1    2    0    0  0.20418836387E+02 -0.29641699065E+01 -0.49289409035E+02  0.53433811376E+02  0.10570000000E+00 0.  1.
         13    1    1    2    0    0 -0.20418836387E+02  0.29641699065E+01 -0.21924876973E+02  0.30106919228E+02  0.10570000000E+00 0. -1.
<mgrwt>
<rscale>  0 0.43675842E+02</rscale>
<asrwt>0</asrwt>
<pdfrwt beam="2">  1        2 0.11904231E-01 0.43675842E+02</pdfrwt>
<pdfrwt beam="1">  1       -2 0.94818810E-03 0.43675842E+02</pdfrwt>
<totfact> 0.79071483E+05</totfact>
</mgrwt>
</event>
<event>
 4    1  0.3704929E-001  0.2571015E+02  0.7818608E-02  0.1651006E+00
          2   -1    0    0  501    0  0.00000000000E+00  0.00000000000E+00  0.61501674384E+01  0.61501679880E+01  0.26000000000E-02 0.  1.
         -2   -1    0    0    0  501 -0.00000000000E+00 -0.00000000000E+00 -0.26869674273E+02  0.26869674399E+02  0.26000000000E-02 0. -1.
        -13    1    1    2    0    0 -0.36927781676E+00 -0.12845930693E+02 -0.10739729416E+02  0.16748351020E+02  0.10570000000E+00 0.  1.
         13    1    1    2    0    0  0.36927781676E+00  0.12845930693E+02 -0.99797774189E+01  0.16271491367E+02  0.10570000000E+00 0. -1.
<mgrwt>
<rscale>  0 0.25710154E+02</rscale>
<asrwt>0</asrwt>
<pdfrwt beam="1">  1        2 0.94617967E-03 0.25710154E+02</pdfrwt>
<pdfrwt beam="2">  1       -2 0.41337961E-02 0.25710154E+02</pdfrwt>
<totfact> 0.20898164E+06</totfact>
</mgrwt>
</event>
<event>
 4    1  0.3704929E-001  0.2355096E+02  0.7818608E-02  0.1682732E+00
          2   -1    0    0  501    0  0.00000000000E+00  0.00000000000E+00  0.85927678489E+01  0.85927682423E+01  0.26000000000E-02 0.  1.
         -2   -1    0    0    0  501 -0.00000000000E+00 -0.00000000000E+00 -0.16137055025E+02  0.16137055234E+02  0.26000000000E-02 0. -1.
        -13    1    1    2    0    0  0.46472254831E+01  0.10819081126E+02 -0.37303855590E+01  0.12352172684E+02  0.10570000000E+00 0. -1.
         13    1    1    2    0    0 -0.46472254831E+01 -0.10819081126E+02 -0.38139016170E+01  0.12377650793E+02  0.10570000000E+00 0.  1.
<mgrwt>
<rscale>  0 0.23550964E+02</rscale>
<asrwt>0</asrwt>
<pdfrwt beam="1">  1        2 0.13219643E-02 0.23550964E+02</pdfrwt>
<pdfrwt beam="2">  1       -2 0.24826239E-02 0.23550964E+02</pdfrwt>
<totfact> 0.26644610E+06</totfact>
</mgrwt>
</event>
<event>
 4    1  0.3704929E-001  0.3246640E+02  0.7818608E-02  0.1572324E+00
          2   -1    0    0  501    0  0.00000000000E+00  0.00000000000E+00  0.32753579963E+02  0.32753580066E+02  0.26000000000E-02 0.  1.
         -2   -1    0    0    0  501 -0.00000000000E+00 -0.00000000000E+00 -0.80454330636E+01  0.80454334837E+01  0.26000000000E-02 0. -1.
        -13    1    1    2    0    0 -0.42915384298E+01 -0.10953236847E+02  0.26410341447E+02  0.28912073730E+02  0.10570000000E+00 0.  1.
         13    1    1    2    0    0  0.42915384298E+01  0.10953236847E+02 -0.17021945480E+01  0.11886939820E+02  0.10570000000E+00 0. -1.
<mgrwt>
<rscale>  0 0.32466398E+02</rscale>
<asrwt>0</asrwt>
<pdfrwt beam="1">  1        2 0.50390123E-02 0.32466398E+02</pdfrwt>
<pdfrwt beam="2">  1       -2 0.12377590E-02 0.32466398E+02</pdfrwt>
<totfact> 0.14123829E+06</totfact>
</mgrwt>
</event>
<event>
 4    1  0.3704929E-001  0.3454259E+02  0.7818608E-02  0.1552700E+00
         -2   -1    0    0    0  501 -0.00000000000E+00  0.00000000000E+00  0.10859534356E+02  0.10859534667E+02  0.26000000000E-02 0. -1.
          2   -1    0    0  501    0  0.00000000000E+00 -0.00000000000E+00 -0.27468736821E+02  0.27468736944E+02  0.26000000000E-02 0.  1.
        -13    1    1    2    0    0  0.12397198818E+02  0.80574072147E+00 -0.21617273801E+02  0.24933059494E+02  0.10570000000E+00 0.  1.
         13    1    1    2    0    0 -0.12397198818E+02 -0.80574072147E+00  0.50080713359E+01  0.13395212117E+02  0.10570000000E+00 0. -1.
<mgrwt>
<rscale>  0 0.34542594E+02</rscale>
<asrwt>0</asrwt>
<pdfrwt beam="2">  1        2 0.42259595E-02 0.34542594E+02</pdfrwt>
<pdfrwt beam="1">  1       -2 0.16706976E-02 0.34542594E+02</pdfrwt>
<totfact> 0.11860915E+06</totfact>
</mgrwt>
</event>
<event>
 4    1  0.3704929E-001  0.4054022E+02  0.7818608E-02  0.1504273E+00
         -2   -1    0    0    0  501 -0.00000000000E+00  0.00000000000E+00  0.10709112457E+03  0.10709112460E+03  0.26000000000E-02 0. -1.
          2   -1    0    0  501    0  0.00000000000E+00 -0.00000000000E+00 -0.38367077754E+01  0.38367086564E+01  0.26000000000E-02 0.  1.
        -13    1    1    2    0    0  0.13433904971E+02  0.78505499995E+01  0.16080779850E+02  0.22376407021E+02  0.10570000000E+00 0.  1.
         13    1    1    2    0    0 -0.13433904971E+02 -0.78505499995E+01  0.87173636941E+02  0.88551426234E+02  0.10570000000E+00 0. -1.
<mgrwt>
<rscale>  0 0.40540222E+02</rscale>
<asrwt>0</asrwt>
<pdfrwt beam="2">  1        2 0.59026285E-03 0.40540222E+02</pdfrwt>
<pdfrwt beam="1">  1       -2 0.16475556E-01 0.40540222E+02</pdfrwt>
<totfact> 0.57620880E+05</totfact>
</mgrwt>
</event>
<event>
 4    1  0.3704929E-001  0.9774669E+02  0.7818608E-02  0.1285107E+00
         -2   -1    0    0    0  501 -0.00000000000E+00  0.00000000000E+00  0.11750653705E+02  0.11750653993E+02  0.26000000000E-02 0.  1.
          2   -1    0    0  501    0  0.00000000000E+00 -0.00000000000E+00 -0.20327411262E+03  0.20327411264E+03  0.26000000000E-02 0. -1.
        -13    1    1    2    0    0  0.22398245218E+02  0.40290411313E+02 -0.60046442810E+02  0.75700628130E+02  0.10570000000E+00 0.  1.
         13    1    1    2    0    0 -0.22398245218E+02 -0.40290411313E+02 -0.13147701611E+03  0.13932413850E+03  0.10570000000E+00 0. -1.
<mgrwt>
<rscale>  0 0.97746688E+02</rscale>
<asrwt>0</asrwt>
<pdfrwt beam="2">  1        2 0.31272938E-01 0.97746688E+02</pdfrwt>
<pdfrwt beam="1">  1       -2 0.18077931E-02 0.97746688E+02</pdfrwt>
<totfact> 0.12890580E+05</totfact>
</mgrwt>
</event>
<event>
 4    1  0.3704929E-001  0.3327969E+02  0.7818608E-02  0.1564430E+00
          2   -1    0    0  501    0  0.00000000000E+00  0.00000000000E+00  0.60404129692E+02  0.60404129748E+02  0.26000000000E-02 0. -1.
         -2   -1    0    0    0  501 -0.00000000000E+00 -0.00000000000E+00 -0.45838658719E+01  0.45838666093E+01  0.26000000000E-02 0.  1.
        -13    1    1    2    0    0 -0.11791442861E+02 -0.56296901239E+01  0.48028695938E+02  0.49774474800E+02  0.10570000000E+00 0. -1.
         13    1    1    2    0    0  0.11791442861E+02  0.56296901239E+01  0.77915678827E+01  0.15213521558E+02  0.10570000000E+00 0.  1.
<mgrwt>
<rscale>  0 0.33279691E+02</rscale>
<asrwt>0</asrwt>
<pdfrwt beam="1">  1        2 0.92929431E-02 0.33279691E+02</pdfrwt>
<pdfrwt beam="2">  1       -2 0.70521020E-03 0.33279691E+02</pdfrwt>
<totfact> 0.14653153E+06</totfact>
</mgrwt>
</event>
<event>
 4    1  0.3704929E-001  0.3453807E+02  0.7818608E-02  0.1552741E+00
          2   -1    0    0  501    0  0.00000000000E+00  0.00000000000E+00  0.32999934388E+02  0.32999934490E+02  0.26000000000E-02 0. -1.
         -2   -1    0    0    0  501 -0.00000000000E+00 -0.00000000000E+00 -0.90369719850E+01  0.90369723590E+01  0.26000000000E-02 0.  1.
        -13    1    1    2    0    0 -0.14964117891E+01  0.17179799770E+02  0.10876949522E+02  0.20388819774E+02  0.10570000000E+00 0.  1.
         13    1    1    2    0    0  0.14964117891E+01 -0.17179799770E+02  0.13086012881E+02  0.21648087075E+02  0.10570000000E+00 0. -1.
<mgrwt>
<rscale>  0 0.34538066E+02</rscale>
<asrwt>0</asrwt>
<pdfrwt beam="1">  1        2 0.50769130E-02 0.34538066E+02</pdfrwt>
<pdfrwt beam="2">  1       -2 0.13903034E-02 0.34538066E+02</pdfrwt>
<totfact> 0.12156579E+06</totfact>
</mgrwt>
</event>
<event>
 4    1  0.3704929E-001  0.2224718E+02  0.7818608E-02  0.1704012E+00
         -2   -1    0    0    0  501 -0.00000000000E+00  0.00000000000E+00  0.12839689154E+01  0.12839715478E+01  0.26000000000E-02 0. -1.
          2   -1    0    0  501    0  0.00000000000E+00 -0.00000000000E+00 -0.96368473504E+02  0.96368473539E+02  0.26000000000E-02 0.  1.
        -13    1    1    2    0    0 -0.94445175563E+00  0.11015904593E+02 -0.42200586109E+02  0.43625024740E+02  0.10570000000E+00 0. -1.
         13    1    1    2    0    0  0.94445175563E+00 -0.11015904593E+02 -0.52883918480E+02  0.54027420347E+02  0.10570000000E+00 0.  1.
<mgrwt>
<rscale>  0 0.22247180E+02</rscale>
<asrwt>0</asrwt>
<pdfrwt beam="2">  1        2 0.14825913E-01 0.22247180E+02</pdfrwt>
<pdfrwt beam="1">  1       -2 0.19753396E-03 0.22247180E+02</pdfrwt>
<totfact> 0.41267236E+06</totfact>
</mgrwt>
</event>
<event>
 4    1  0.3704929E-001  0.2433533E+02  0.7818608E-02  0.1670736E+00
         -2   -1    0    0    0  501 -0.00000000000E+00  0.00000000000E+00  0.75218562825E+02  0.75218562869E+02  0.26000000000E-02 0.  1.
          2   -1    0    0  501    0  0.00000000000E+00 -0.00000000000E+00 -0.19682906502E+01  0.19682923674E+01  0.26000000000E-02 0. -1.
        -13    1    1    2    0    0  0.10816675995E+02 -0.44792648023E+01  0.26116654318E+02  0.28620885696E+02  0.10570000000E+00 0. -1.
         13    1    1    2    0    0 -0.10816675995E+02  0.44792648023E+01  0.47133617856E+02  0.48565969541E+02  0.10570000000E+00 0.  1.
<mgrwt>
<rscale>  0 0.24335329E+02</rscale>
<asrwt>0</asrwt>
<pdfrwt beam="2">  1        2 0.30281408E-03 0.24335329E+02</pdfrwt>
<pdfrwt beam="1">  1       -2 0.11572087E-01 0.24335329E+02</pdfrwt>
<totfact> 0.20476500E+06</totfact>
</mgrwt>
</event>
<event>
 4    1  0.3704929E-001  0.2648078E+02  0.7818608E-02  0.1640601E+00
         -2   -1    0    0    0  501 -0.00000000000E+00  0.00000000000E+00  0.21004174775E+01  0.21004190867E+01  0.26000000000E-02 0. -1.
          2   -1    0    0  501    0  0.00000000000E+00 -0.00000000000E+00 -0.83463336721E+02  0.83463336762E+02  0.26000000000E-02 0.  1.
        -13    1    1    2    0    0 -0.10780184296E+02 -0.20273279473E+01 -0.64638821638E+02  0.65563029729E+02  0.10570000000E+00 0.  1.
         13    1    1    2    0    0  0.10780184296E+02  0.20273279473E+01 -0.16724097606E+02  0.20000726119E+02  0.10570000000E+00 0. -1.
<mgrwt>
<rscale>  0 0.26480780E+02</rscale>
<asrwt>0</asrwt>
<pdfrwt beam="2">  1        2 0.12840511E-01 0.26480780E+02</pdfrwt>
<pdfrwt beam="1">  1       -2 0.32314134E-03 0.26480780E+02</pdfrwt>
<totfact> 0.26849637E+06</totfact>
</mgrwt>
</event>
<event>
 4    1  0.3704929E-001  0.2077593E+02  0.7818608E-02  0.1730324E+00
          2   -1    0    0  501    0  0.00000000000E+00  0.00000000000E+00  0.83446857427E+01  0.83446861477E+01  0.26000000000E-02 0.  1.
         -2   -1    0    0    0  501 -0.00000000000E+00 -0.00000000000E+00 -0.12931558073E+02  0.12931558334E+02  0.26000000000E-02 0. -1.
        -13    1    1    2    0    0  0.37588638650E+00 -0.10256852128E+02 -0.39301468440E+01  0.10990975064E+02  0.10570000000E+00 0. -1.
         13    1    1    2    0    0 -0.37588638650E+00  0.10256852128E+02 -0.65672548590E+00  0.10285269418E+02  0.10570000000E+00 0.  1.
<mgrwt>
<rscale>  0 0.20775928E+02</rscale>
<asrwt>0</asrwt>
<pdfrwt beam="1">  1        2 0.12837979E-02 0.20775928E+02</pdfrwt>
<pdfrwt beam="2">  1       -2 0.19894705E-02 0.20775928E+02</pdfrwt>
<totfact> 0.35669270E+06</totfact>
</mgrwt>
</event>
<event>
 4    1  0.3704929E-001  0.2086549E+02  0.7818608E-02  0.1728645E+00
          2   -1    0    0  501    0  0.00000000000E+00  0.00000000000E+00  0.27086691266E+02  0.27086691391E+02  0.26000000000E-02 0.  1.
         -2   -1    0    0    0  501 -0.00000000000E+00 -0.00000000000E+00 -0.40182901779E+01  0.40182910190E+01  0.26000000000E-02 0. -1.
        -13    1    1    2    0    0 -0.30899038557E+01  0.99500145455E+01  0.12324056345E+02  0.16138272292E+02  0.10570000000E+00 0.  1.
         13    1    1    2    0    0  0.30899038557E+01 -0.99500145455E+01  0.10744344744E+02  0.14966710118E+02  0.10570000000E+00 0. -1.
<mgrwt>
<rscale>  0 0.20865493E+02</rscale>
<asrwt>0</asrwt>
<pdfrwt beam="1">  1        2 0.41671833E-02 0.20865493E+02</pdfrwt>
<pdfrwt beam="2">  1       -2 0.61819857E-03 0.20865493E+02</pdfrwt>
<totfact> 0.38993319E+06</totfact>
</mgrwt>
</event>
<event>
 4    1  0.3704929E-001  0.3214931E+02  0.7818608E-02  0.1575478E+00
          2   -1    0    0  501    0  0.00000000000E+00  0.00000000000E+00  0.35501562190E+01  0.35501571710E+01  0.26000000000E-02 0. -1.
         -2   -1    0    0    0  501 -0.00000000000E+00 -0.00000000000E+00 -0.72783990098E+02  0.72783990144E+02  0.26000000000E-02 0.  1.
        -13    1    1    2    0    0  0.13276207428E+02 -0.51619740378E+01 -0.16931537515E+02  0.22126721283E+02  0.10570000000E+00 0. -1.
         13    1    1    2    0    0 -0.13276207428E+02  0.51619740378E+01 -0.52302296364E+02  0.54207426032E+02  0.10570000000E+00 0.  1.
<mgrwt>
<rscale>  0 0.32149312E+02</rscale>
<asrwt>0</asrwt>
<pdfrwt beam="1">  1        2 0.54617801E-03 0.32149312E+02</pdfrwt>
<pdfrwt beam="2">  1       -2 0.11197536E-01 0.32149312E+02</pdfrwt>
<totfact> 0.10876159E+06</totfact>
</mgrwt>
</event>
<event>
 4    1  0.3704929E-001  0.4775341E+02  0.7818608E-02  0.1457850E+00
          2   -1    0    0  501    0  0.00000000000E+00  0.00000000000E+00  0.26215888932E+02  0.26215889061E+02  0.26000000000E-02 0. -1.
         -2   -1    0    0    0  501 -0.00000000000E+00 -0.00000000000E+00 -0.21746238374E+02  0.21746238530E+02  0.26000000000E-02 0.  1.
        -13    1    1    2    0    0  0.71356376017E+01 -0.21548673278E+02  0.96714541542E+01  0.24674092526E+02  0.10570000000E+00 0. -1.
         13    1    1    2    0    0 -0.71356376017E+01  0.21548673278E+02 -0.52018035969E+01  0.23288035065E+02  0.10570000000E+00 0.  1.
<mgrwt>
<rscale>  0 0.47753407E+02</rscale>
<asrwt>0</asrwt>
<pdfrwt beam="1">  1        2 0.40332137E-02 0.47753407E+02</pdfrwt>
<pdfrwt beam="2">  1       -2 0.33455752E-02 0.47753407E+02</pdfrwt>
<totfact> 0.51826715E+05</totfact>
</mgrwt>
</event>
<event>
 4    1  0.3704929E-001  0.2686732E+02  0.7818608E-02  0.1635544E+00
         -2   -1    0    0    0  501 -0.00000000000E+00  0.00000000000E+00  0.15779229502E+02  0.15779229716E+02  0.26000000000E-02 0.  1.
          2   -1    0    0  501    0  0.00000000000E+00 -0.00000000000E+00 -0.11436759783E+02  0.11436760079E+02  0.26000000000E-02 0. -1.
        -13    1    1    2    0    0 -0.62780680904E+01  0.91139395832E+01 -0.55416453136E+01  0.12377359934E+02  0.10570000000E+00 0. -1.
         13    1    1    2    0    0  0.62780680904E+01 -0.91139395832E+01  0.98841150321E+01  0.14838629860E+02  0.10570000000E+00 0.  1.
<mgrwt>
<rscale>  0 0.26867323E+02</rscale>
<asrwt>0</asrwt>
<pdfrwt beam="2">  1        2 0.17595015E-02 0.26867323E+02</pdfrwt>
<pdfrwt beam="1">  1       -2 0.24275738E-02 0.26867323E+02</pdfrwt>
<totfact> 0.19933012E+06</totfact>
</mgrwt>
</event>
<event>
 4    1  0.3704929E-001  0.3516084E+02  0.7818608E-02  0.1547177E+00
         -2   -1    0    0    0  501 -0.00000000000E+00  0.00000000000E+00  0.75891261932E+02  0.75891261977E+02  0.26000000000E-02 0. -1.
          2   -1    0    0  501    0  0.00000000000E+00 -0.00000000000E+00 -0.40725519195E+01  0.40725527495E+01  0.26000000000E-02 0.  1.
        -13    1    1    2    0    0 -0.16002444633E+02  0.25964710708E+01  0.20444582826E+02  0.26092375048E+02  0.10570000000E+00 0.  1.
         13    1    1    2    0    0  0.16002444633E+02 -0.25964710708E+01  0.51374127187E+02  0.53871439678E+02  0.10570000000E+00 0. -1.
<mgrwt>
<rscale>  0 0.35160838E+02</rscale>
<asrwt>0</asrwt>
<pdfrwt beam="2">  1        2 0.62654657E-03 0.35160838E+02</pdfrwt>
<pdfrwt beam="1">  1       -2 0.11675578E-01 0.35160838E+02</pdfrwt>
<totfact> 0.87445912E+05</totfact>
</mgrwt>
</event>
<event>
 4    1  0.3704929E-001  0.4508167E+02  0.7818608E-02  0.1473832E+00
         -2   -1    0    0    0  501 -0.00000000000E+00  0.00000000000E+00  0.53932525918E+02  0.53932525981E+02  0.26000000000E-02 0. -1.
          2   -1    0    0  501    0  0.00000000000E+00 -0.00000000000E+00 -0.94208306305E+01  0.94208309893E+01  0.26000000000E-02 0.  1.
        -13    1    1    2    0    0  0.17495174610E+02 -0.31102665611E+01  0.27670330825E+01  0.17983952215E+02  0.10570000000E+00 0.  1.
         13    1    1    2    0    0 -0.17495174610E+02  0.31102665611E+01  0.41744662205E+02  0.45369404755E+02  0.10570000000E+00 0. -1.
<mgrwt>
<rscale>  0 0.45081668E+02</rscale>
<asrwt>0</asrwt>
<pdfrwt beam="2">  1        2 0.14493586E-02 0.45081668E+02</pdfrwt>
<pdfrwt beam="1">  1       -2 0.82973116E-02 0.45081668E+02</pdfrwt>
<totfact> 0.51570068E+05</totfact>
</mgrwt>
</event>
<event>
 4    1  0.3704929E-001  0.2201211E+02  0.7818608E-02  0.1708043E+00
          2   -1    0    0  501    0  0.00000000000E+00  0.00000000000E+00  0.13555731339E+02  0.13555731588E+02  0.26000000000E-02 0. -1.
         -2   -1    0    0    0  501 -0.00000000000E+00 -0.00000000000E+00 -0.89359390506E+01  0.89359394288E+01  0.26000000000E-02 0.  1.
        -13    1    1    2    0    0 -0.10178309989E+02  0.26480711964E+01  0.56227144349E+01  0.11926288836E+02  0.10570000000E+00 0. -1.
         13    1    1    2    0    0  0.10178309989E+02 -0.26480711964E+01 -0.10029221466E+01  0.10565382181E+02  0.10570000000E+00 0.  1.
<mgrwt>
<rscale>  0 0.22012105E+02</rscale>
<asrwt>0</asrwt>
<pdfrwt beam="1">  1        2 0.20854972E-02 0.22012105E+02</pdfrwt>
<pdfrwt beam="2">  1       -2 0.13747599E-02 0.22012105E+02</pdfrwt>
<totfact> 0.32402586E+06</totfact>
</mgrwt>
</event>
<event>
 4    1  0.3704929E-001  0.4196696E+02  0.7818608E-02  0.1494216E+00
         -2   -1    0    0    0  501 -0.00000000000E+00  0.00000000000E+00  0.28366026947E+02  0.28366027066E+02  0.26000000000E-02 0.  1.
          2   -1    0    0  501    0  0.00000000000E+00 -0.00000000000E+00 -0.15522318775E+02  0.15522318993E+02  0.26000000000E-02 0. -1.
        -13    1    1    2    0    0  0.72590029885E+01  0.17777070163E+02 -0.24258673200E+01  0.19354930966E+02  0.10570000000E+00 0. -1.
         13    1    1    2    0    0 -0.72590029885E+01 -0.17777070163E+02  0.15269575492E+02  0.24533415093E+02  0.10570000000E+00 0.  1.
<mgrwt>
<rscale>  0 0.41966964E+02</rscale>
<asrwt>0</asrwt>
<pdfrwt beam="2">  1        2 0.23880491E-02 0.41966964E+02</pdfrwt>
<pdfrwt beam="1">  1       -2 0.43640041E-02 0.41966964E+02</pdfrwt>
<totfact> 0.67344508E+05</totfact>
</mgrwt>
</event>
<event>
 4    1  0.3704929E-001  0.5080167E+02  0.7818608E-02  0.1441065E+00
          2   -1    0    0  501    0  0.00000000000E+00  0.00000000000E+00  0.98119333703E+02  0.98119333737E+02  0.26000000000E-02 0.  1.
         -2   -1    0    0    0  501 -0.00000000000E+00 -0.00000000000E+00 -0.65756918669E+01  0.65756923809E+01  0.26000000000E-02 0. -1.
        -13    1    1    2    0    0  0.13139718625E+01 -0.25314872989E+02  0.42434730007E+02  0.49429614602E+02  0.10570000000E+00 0. -1.
         13    1    1    2    0    0 -0.13139718625E+01  0.25314872989E+02  0.49108911829E+02  0.55265411516E+02  0.10570000000E+00 0.  1.
<mgrwt>
<rscale>  0 0.50801675E+02</rscale>
<asrwt>0</asrwt>
<pdfrwt beam="1">  1        2 0.15095283E-01 0.50801675E+02</pdfrwt>
<pdfrwt beam="2">  1       -2 0.10116449E-02 0.50801675E+02</pdfrwt>
<totfact> 0.57226259E+05</totfact>
</mgrwt>
</event>
<event>
 4    1  0.3704929E-001  0.3813255E+02  0.7818608E-02  0.1522421E+00
         -2   -1    0    0    0  501 -0.00000000000E+00  0.00000000000E+00  0.66840348465E+02  0.66840348515E+02  0.26000000000E-02 0. -1.
          2   -1    0    0  501    0  0.00000000000E+00 -0.00000000000E+00 -0.54386722191E+01  0.54386728406E+01  0.26000000000E-02 0.  1.
        -13    1    1    2    0    0 -0.16825892517E+02 -0.89263744169E+01  0.32310065765E+02  0.37506563978E+02  0.10570000000E+00 0.  1.
         13    1    1    2    0    0  0.16825892517E+02  0.89263744169E+01  0.29091610481E+02  0.34772457378E+02  0.10570000000E+00 0. -1.
<mgrwt>
<rscale>  0 0.38132546E+02</rscale>
<asrwt>0</asrwt>
<pdfrwt beam="2">  1        2 0.83671890E-03 0.38132546E+02</pdfrwt>
<pdfrwt beam="1">  1       -2 0.10283130E-01 0.38132546E+02</pdfrwt>
<totfact> 0.73964125E+05</totfact>
</mgrwt>
</event>
<event>
 4    1  0.3704929E-001  0.2254539E+02  0.7818608E-02  0.1698987E+00
         -2   -1    0    0    0  501 -0.00000000000E+00  0.00000000000E+00  0.15469047908E+01  0.15469069758E+01  0.26000000000E-02 0.  1.
          2   -1    0    0  501    0  0.00000000000E+00 -0.00000000000E+00 -0.82147008535E+02  0.82147008576E+02  0.26000000000E-02 0. -1.
        -13    1    1    2    0    0  0.11139008588E+02  0.17178497179E+01 -0.40984572738E+02  0.42506174787E+02  0.10570000000E+00 0.  1.
         13    1    1    2    0    0 -0.11139008588E+02 -0.17178497179E+01 -0.39615531005E+02  0.41187740765E+02  0.10570000000E+00 0. -1.
<mgrwt>
<rscale>  0 0.22545394E+02</rscale>
<asrwt>0</asrwt>
<pdfrwt beam="2">  1        2 0.12637998E-01 0.22545394E+02</pdfrwt>
<pdfrwt beam="1">  1       -2 0.23798559E-03 0.22545394E+02</pdfrwt>
<totfact> 0.38682903E+06</totfact>
</mgrwt>
</event>
<event>
 4    1  0.3704929E-001  0.2583081E+02  0.7818608E-02  0.1649348E+00
         -2   -1    0    0    0  501 -0.00000000000E+00  0.00000000000E+00  0.31695758999E+02  0.31695759106E+02  0.26000000000E-02 0.  1.
          2   -1    0    0  501    0  0.00000000000E+00 -0.00000000000E+00 -0.52627742672E+01  0.52627749094E+01  0.26000000000E-02 0. -1.
        -13    1    1    2    0    0 -0.10722714678E+02  0.44688321448E+01  0.51417742642E+01  0.12704175923E+02  0.10570000000E+00 0. -1.
         13    1    1    2    0    0  0.10722714678E+02 -0.44688321448E+01  0.21291210468E+02  0.24254358092E+02  0.10570000000E+00 0.  1.
<mgrwt>
<rscale>  0 0.25830806E+02</rscale>
<asrwt>0</asrwt>
<pdfrwt beam="2">  1        2 0.80965764E-03 0.25830806E+02</pdfrwt>
<pdfrwt beam="1">  1       -2 0.48762707E-02 0.25830806E+02</pdfrwt>
<totfact> 0.20314870E+06</totfact>
</mgrwt>
</event>
<event>
 4    1  0.3704929E-001  0.3409252E+02  0.7818608E-02  0.1556810E+00
          2   -1    0    0  501    0  0.00000000000E+00  0.00000000000E+00  0.51889805245E+02  0.51889805310E+02  0.26000000000E-02 0.  1.
         -2   -1    0    0    0  501 -0.00000000000E+00 -0.00000000000E+00 -0.55998470358E+01  0.55998476393E+01  0.26000000000E-02 0. -1.
        -13    1    1    2    0    0  0.83551499394E+00 -0.12153797783E+02  0.30399164103E+01  0.12556478413E+02  0.10570000000E+00 0. -1.
         13    1    1    2    0    0 -0.83551499394E+00  0.12153797783E+02  0.43250041799E+02  0.44933174537E+02  0.10570000000E+00 0.  1.
<mgrwt>
<rscale>  0 0.34092521E+02</rscale>
<asrwt>0</asrwt>
<pdfrwt beam="1">  1        2 0.79830470E-02 0.34092521E+02</pdfrwt>
<pdfrwt beam="2">  1       -2 0.86151499E-03 0.34092521E+02</pdfrwt>
<totfact> 0.13450926E+06</totfact>
</mgrwt>
</event>
<event>
 4    1  0.3704929E-001  0.3278657E+02  0.7818608E-02  0.1569183E+00
          2   -1    0    0  501    0  0.00000000000E+00  0.00000000000E+00  0.12151429479E+03  0.12151429482E+03  0.26000000000E-02 0. -1.
         -2   -1    0    0    0  501 -0.00000000000E+00 -0.00000000000E+00 -0.22115896575E+01  0.22115911858E+01  0.26000000000E-02 0.  1.
        -13    1    1    2    0    0  0.14591926324E+01  0.16324093635E+02  0.58325695021E+02  0.60584677504E+02  0.10570000000E+00 0. -1.
         13    1    1    2    0    0 -0.14591926324E+01 -0.16324093635E+02  0.60977010115E+02  0.63141208503E+02  0.10570000000E+00 0.  1.
<mgrwt>
<rscale>  0 0.32786574E+02</rscale>
<asrwt>0</asrwt>
<pdfrwt beam="1">  1        2 0.18694514E-01 0.32786574E+02</pdfrwt>
<pdfrwt beam="2">  1       -2 0.34024456E-03 0.32786574E+02</pdfrwt>
<totfact> 0.17781787E+06</totfact>
</mgrwt>
</event>
<event>
 4    1  0.3704929E-001  0.2211154E+02  0.7818608E-02  0.1706330E+00
          2   -1    0    0  501    0  0.00000000000E+00  0.00000000000E+00  0.88822392431E+02  0.88822392469E+02  0.26000000000E-02 0.  1.
         -2   -1    0    0    0  501 -0.00000000000E+00 -0.00000000000E+00 -0.13761168408E+01  0.13761192969E+01  0.26000000000E-02 0. -1.
        -13    1    1    2    0    0  0.10564578431E+02  0.26414060845E+01  0.35949425085E+02  0.37562743243E+02  0.10570000000E+00 0. -1.
         13    1    1    2    0    0 -0.10564578431E+02 -0.26414060845E+01  0.51496850506E+02  0.52635768523E+02  0.10570000000E+00 0.  1.
<mgrwt>
<rscale>  0 0.22111545E+02</rscale>
<asrwt>0</asrwt>
<pdfrwt beam="1">  1        2 0.13664989E-01 0.22111545E+02</pdfrwt>
<pdfrwt beam="2">  1       -2 0.21171039E-03 0.22111545E+02</pdfrwt>
<totfact> 0.41090983E+06</totfact>
</mgrwt>
</event>
<event>
 4    1  0.3704929E-001  0.4663016E+02  0.7818608E-02  0.1464414E+00
         -2   -1    0    0    0  501 -0.00000000000E+00  0.00000000000E+00  0.18305971089E+02  0.18305971274E+02  0.26000000000E-02 0.  1.
          2   -1    0    0  501    0  0.00000000000E+00 -0.00000000000E+00 -0.29694849445E+02  0.29694849559E+02  0.26000000000E-02 0. -1.
        -13    1    1    2    0    0 -0.11231848248E+02 -0.15713825687E+02 -0.19135945119E+02  0.27189599131E+02  0.10570000000E+00 0. -1.
         13    1    1    2    0    0  0.11231848248E+02  0.15713825687E+02  0.77470667630E+01  0.20811221702E+02  0.10570000000E+00 0.  1.
<mgrwt>
<rscale>  0 0.46630165E+02</rscale>
<asrwt>0</asrwt>
<pdfrwt beam="2">  1        2 0.45684384E-02 0.46630165E+02</pdfrwt>
<pdfrwt beam="1">  1       -2 0.28163033E-02 0.46630165E+02</pdfrwt>
<totfact> 0.56197928E+05</totfact>
</mgrwt>
</event>
<event>
 4    1  0.3704929E-001  0.2554125E+02  0.7818608E-02  0.1653347E+00
         -2   -1    0    0    0  501 -0.00000000000E+00  0.00000000000E+00  0.16270555864E+02  0.16270556071E+02  0.26000000000E-02 0.  1.
          2   -1    0    0  501    0  0.00000000000E+00 -0.00000000000E+00 -0.10023561117E+02  0.10023561455E+02  0.26000000000E-02 0. -1.
        -13    1    1    2    0    0  0.48826246046E+01  0.11744582506E+02  0.42984111511E+01  0.13426196490E+02  0.10570000000E+00 0.  1.
         13    1    1    2    0    0 -0.48826246046E+01 -0.11744582506E+02  0.19485835951E+01  0.12867921036E+02  0.10570000000E+00 0. -1.
<mgrwt>
<rscale>  0 0.25541254E+02</rscale>
<asrwt>0</asrwt>
<pdfrwt beam="2">  1        2 0.15420864E-02 0.25541254E+02</pdfrwt>
<pdfrwt beam="1">  1       -2 0.25031625E-02 0.25541254E+02</pdfrwt>
<totfact> 0.22248293E+06</totfact>
</mgrwt>
</event>
<event>
 4    1  0.3704929E-001  0.6907695E+02  0.7818608E-02  0.1363260E+00
         -2   -1    0    0    0  501 -0.00000000000E+00  0.00000000000E+00  0.33146251290E+01  0.33146261487E+01  0.26000000000E-02 0. -1.
          2   -1    0    0  501    0  0.00000000000E+00 -0.00000000000E+00 -0.35989172278E+03  0.35989172278E+03  0.26000000000E-02 0.  1.
        -13    1    1    2    0    0  0.96054391653E+01 -0.33099303106E+02 -0.19012410399E+03  0.19322270679E+03  0.10570000000E+00 0. -1.
         13    1    1    2    0    0 -0.96054391653E+01  0.33099303106E+02 -0.16645299365E+03  0.16998364214E+03  0.10570000000E+00 0.  1.
<mgrwt>
<rscale>  0 0.69076952E+02</rscale>
<asrwt>0</asrwt>
<pdfrwt beam="2">  1        2 0.55367927E-01 0.69076952E+02</pdfrwt>
<pdfrwt beam="1">  1       -2 0.50994269E-03 0.69076952E+02</pdfrwt>
<totfact> 0.39750535E+05</totfact>
</mgrwt>
</event>
<event>
 4    1  0.3704929E-001  0.2101871E+02  0.7818608E-02  0.1725797E+00
         -2   -1    0    0    0  501 -0.00000000000E+00  0.00000000000E+00  0.11865168348E+02  0.11865168633E+02  0.26000000000E-02 0. -1.
          2   -1    0    0  501    0  0.00000000000E+00 -0.00000000000E+00 -0.93084698316E+01  0.93084701947E+01  0.26000000000E-02 0.  1.
        -13    1    1    2    0    0  0.10025038467E+02 -0.86924587118E+00 -0.17735707739E+01  0.10218302718E+02  0.10570000000E+00 0.  1.
         13    1    1    2    0    0 -0.10025038467E+02  0.86924587118E+00  0.43302692902E+01  0.10955336109E+02  0.10570000000E+00 0. -1.
<mgrwt>
<rscale>  0 0.21018712E+02</rscale>
<asrwt>0</asrwt>
<pdfrwt beam="2">  1        2 0.14320723E-02 0.21018712E+02</pdfrwt>
<pdfrwt beam="1">  1       -2 0.18254106E-02 0.21018712E+02</pdfrwt>
<totfact> 0.35011796E+06</totfact>
</mgrwt>
</event>
<event>
 4    1  0.3704929E-001  0.2789710E+02  0.7818608E-02  0.1622569E+00
          2   -1    0    0  501    0  0.00000000000E+00  0.00000000000E+00  0.26499869348E+01  0.26499882102E+01  0.26000000000E-02 0. -1.
         -2   -1    0    0    0  501 -0.00000000000E+00 -0.00000000000E+00 -0.73419992169E+02  0.73419992215E+02  0.26000000000E-02 0.  1.
        -13    1    1    2    0    0  0.19638799248E+00 -0.10297039157E+02 -0.61034857348E+02  0.61897758987E+02  0.10570000000E+00 0.  1.
         13    1    1    2    0    0 -0.19638799248E+00  0.10297039157E+02 -0.97351478864E+01  0.14172221438E+02  0.10570000000E+00 0. -1.
<mgrwt>
<rscale>  0 0.27897102E+02</rscale>
<asrwt>0</asrwt>
<pdfrwt beam="1">  1        2 0.40769045E-03 0.27897102E+02</pdfrwt>
<pdfrwt beam="2">  1       -2 0.11295382E-01 0.27897102E+02</pdfrwt>
<totfact> 0.15078756E+06</totfact>
</mgrwt>
</event>
<event>
 4    1  0.3704929E-001  0.4093609E+02  0.7818608E-02  0.1501434E+00
         -2   -1    0    0    0  501 -0.00000000000E+00  0.00000000000E+00  0.18657922557E+03  0.18657922559E+03  0.26000000000E-02 0.  1.
          2   -1    0    0  501    0  0.00000000000E+00 -0.00000000000E+00 -0.22453770508E+01  0.22453785561E+01  0.26000000000E-02 0. -1.
        -13    1    1    2    0    0  0.67058312814E+01 -0.19334303640E+02  0.93930702642E+02  0.96134133073E+02  0.10570000000E+00 0.  1.
         13    1    1    2    0    0 -0.67058312814E+01  0.19334303640E+02  0.90403145875E+02  0.92690471069E+02  0.10570000000E+00 0. -1.
<mgrwt>
<rscale>  0 0.40936089E+02</rscale>
<asrwt>0</asrwt>
<pdfrwt beam="2">  1        2 0.34544279E-03 0.40936089E+02</pdfrwt>
<pdfrwt beam="1">  1       -2 0.28704492E-01 0.40936089E+02</pdfrwt>
<totfact> 0.47156393E+05</totfact>
</mgrwt>
</event>
<event>
 4    1  0.3704929E-001  0.3605576E+02  0.7818608E-02  0.1539420E+00
          2   -1    0    0  501    0  0.00000000000E+00  0.00000000000E+00  0.10060650668E+02  0.10060651004E+02  0.26000000000E-02 0. -1.
         -2   -1    0    0    0  501 -0.00000000000E+00 -0.00000000000E+00 -0.32304518854E+02  0.32304518959E+02  0.26000000000E-02 0.  1.
        -13    1    1    2    0    0  0.95101759352E+01 -0.11787196210E+02 -0.22611144845E+02  0.27215004767E+02  0.10570000000E+00 0.  1.
         13    1    1    2    0    0 -0.95101759352E+01  0.11787196210E+02  0.36727665808E+00  0.15150165195E+02  0.10570000000E+00 0. -1.
<mgrwt>
<rscale>  0 0.36055762E+02</rscale>
<asrwt>0</asrwt>
<pdfrwt beam="1">  1        2 0.15477925E-02 0.36055762E+02</pdfrwt>
<pdfrwt beam="2">  1       -2 0.49699260E-02 0.36055762E+02</pdfrwt>
<totfact> 0.94319456E+05</totfact>
</mgrwt>
</event>
<event>
 4    1  0.3704929E-001  0.6634791E+02  0.7818608E-02  0.1372972E+00
         -2   -1    0    0    0  501 -0.00000000000E+00  0.00000000000E+00  0.78558922393E+02  0.78558922436E+02  0.26000000000E-02 0.  1.
          2   -1    0    0  501    0  0.00000000000E+00 -0.00000000000E+00 -0.14008736980E+02  0.14008737221E+02  0.26000000000E-02 0. -1.
        -13    1    1    2    0    0 -0.29980720844E+02 -0.14200204908E+02  0.32419277786E+02  0.46384374377E+02  0.10570000000E+00 0. -1.
         13    1    1    2    0    0  0.29980720844E+02  0.14200204908E+02  0.32130907627E+02  0.46183285279E+02  0.10570000000E+00 0.  1.
<mgrwt>
<rscale>  0 0.66347910E+02</rscale>
<asrwt>0</asrwt>
<pdfrwt beam="2">  1        2 0.21551903E-02 0.66347910E+02</pdfrwt>
<pdfrwt beam="1">  1       -2 0.12085988E-01 0.66347910E+02</pdfrwt>
<totfact> 0.18694396E+05</totfact>
</mgrwt>
</event>
<event>
 4    1  0.3704929E-001  0.3063733E+02  0.7818608E-02  0.1591149E+00
         -2   -1    0    0    0  501 -0.00000000000E+00  0.00000000000E+00  0.20543751800E+01  0.20543768253E+01  0.26000000000E-02 0. -1.
          2   -1    0    0  501    0  0.00000000000E+00 -0.00000000000E+00 -0.11422520234E+03  0.11422520237E+03  0.26000000000E-02 0.  1.
        -13    1    1    2    0    0  0.13428685309E+02  0.50009096424E+01 -0.76633563162E+02  0.77961867999E+02  0.10570000000E+00 0.  1.
         13    1    1    2    0    0 -0.13428685309E+02 -0.50009096424E+01 -0.35537263997E+02  0.38317711196E+02  0.10570000000E+00 0. -1.
<mgrwt>
<rscale>  0 0.30637331E+02</rscale>
<asrwt>0</asrwt>
<pdfrwt beam="2">  1        2 0.17573103E-01 0.30637331E+02</pdfrwt>
<pdfrwt beam="1">  1       -2 0.31605794E-03 0.30637331E+02</pdfrwt>
<totfact> 0.20551039E+06</totfact>
</mgrwt>
</event>
<event>
 4    1  0.3704929E-001  0.4216604E+02  0.7818608E-02  0.1492851E+00
          2   -1    0    0  501    0  0.00000000000E+00  0.00000000000E+00  0.47512992845E+02  0.47512992916E+02  0.26000000000E-02 0. -1.
         -2   -1    0    0    0  501 -0.00000000000E+00 -0.00000000000E+00 -0.93552031234E+01  0.93552034847E+01  0.26000000000E-02 0.  1.
        -13    1    1    2    0    0 -0.11020927420E+02  0.33014650876E+01 -0.47480772823E+01  0.12446522538E+02  0.10570000000E+00 0.  1.
         13    1    1    2    0    0  0.11020927420E+02 -0.33014650876E+01  0.42905867004E+02  0.44421673863E+02  0.10570000000E+00 0. -1.
<mgrwt>
<rscale>  0 0.42166039E+02</rscale>
<asrwt>0</asrwt>
<pdfrwt beam="1">  1        2 0.73096914E-02 0.42166039E+02</pdfrwt>
<pdfrwt beam="2">  1       -2 0.14392620E-02 0.42166039E+02</pdfrwt>
<totfact> 0.78384554E+05</totfact>
</mgrwt>
</event>
<event>
 4    1  0.3704929E-001  0.2586678E+02  0.7818608E-02  0.1648855E+00
         -2   -1    0    0    0  501 -0.00000000000E+00  0.00000000000E+00  0.35317946160E+02  0.35317946255E+02  0.26000000000E-02 0. -1.
          2   -1    0    0  501    0  0.00000000000E+00 -0.00000000000E+00 -0.47361925662E+01  0.47361932799E+01  0.26000000000E-02 0.  1.
        -13    1    1    2    0    0  0.50538697149E+00  0.11403878134E+02  0.24704499496E+02  0.27214468952E+02  0.10570000000E+00 0. -1.
         13    1    1    2    0    0 -0.50538697149E+00 -0.11403878134E+02  0.58772540970E+01  0.12839670583E+02  0.10570000000E+00 0.  1.
<mgrwt>
<rscale>  0 0.25866783E+02</rscale>
<asrwt>0</asrwt>
<pdfrwt beam="2">  1        2 0.72864508E-03 0.25866783E+02</pdfrwt>
<pdfrwt beam="1">  1       -2 0.54335302E-02 0.25866783E+02</pdfrwt>
<totfact> 0.20000802E+06</totfact>
</mgrwt>
</event>
<event>
 4    1  0.3704929E-001  0.2751442E+02  0.7818608E-02  0.1627309E+00
          2   -1    0    0  501    0  0.00000000000E+00  0.00000000000E+00  0.71847674676E+02  0.71847674723E+02  0.26000000000E-02 0.  1.
         -2   -1    0    0    0  501 -0.00000000000E+00 -0.00000000000E+00 -0.26341946901E+01  0.26341959732E+01  0.26000000000E-02 0. -1.
        -13    1    1    2    0    0 -0.36575238552E+01 -0.13236204713E+02  0.36830850378E+02  0.39307725806E+02  0.10570000000E+00 0.  1.
         13    1    1    2    0    0  0.36575238552E+01  0.13236204713E+02  0.32382629608E+02  0.35174144891E+02  0.10570000000E+00 0. -1.
<mgrwt>
<rscale>  0 0.27514419E+02</rscale>
<asrwt>0</asrwt>
<pdfrwt beam="1">  1        2 0.11053489E-01 0.27514419E+02</pdfrwt>
<pdfrwt beam="2">  1       -2 0.40526081E-03 0.27514419E+02</pdfrwt>
<totfact> 0.23809443E+06</totfact>
</mgrwt>
</event>
<event>
 4    1  0.3704929E-001  0.3844197E+02  0.7818608E-02  0.1520000E+00
         -2   -1    0    0    0  501 -0.00000000000E+00  0.00000000000E+00  0.11382790255E+02  0.11382790552E+02  0.26000000000E-02 0. -1.
          2   -1    0    0  501    0  0.00000000000E+00 -0.00000000000E+00 -0.32456560831E+02  0.32456560936E+02  0.26000000000E-02 0.  1.
        -13    1    1    2    0    0 -0.93267363840E+01 -0.16010167429E+02 -0.47083652853E+01  0.19117880344E+02  0.10570000000E+00 0. -1.
         13    1    1    2    0    0  0.93267363840E+01  0.16010167429E+02 -0.16365405291E+02  0.24721471144E+02  0.10570000000E+00 0.  1.
<mgrwt>
<rscale>  0 0.38441968E+02</rscale>
<asrwt>0</asrwt>
<pdfrwt beam="2">  1        2 0.49933170E-02 0.38441968E+02</pdfrwt>
<pdfrwt beam="1">  1       -2 0.17511986E-02 0.38441968E+02</pdfrwt>
<totfact> 0.93025416E+05</totfact>
</mgrwt>
</event>
<event>
 4    1  0.3704929E-001  0.2138127E+02  0.7818608E-02  0.1719178E+00
          2   -1    0    0  501    0  0.00000000000E+00  0.00000000000E+00  0.10996627425E+01  0.10996658162E+01  0.26000000000E-02 0. -1.
         -2   -1    0    0    0  501 -0.00000000000E+00 -0.00000000000E+00 -0.10393146436E+03  0.10393146440E+03  0.26000000000E-02 0.  1.
        -13    1    1    2    0    0 -0.30297910710E+00 -0.10619776775E+02 -0.57242915530E+02  0.58220563429E+02  0.10570000000E+00 0.  1.
         13    1    1    2    0    0  0.30297910710E+00  0.10619776775E+02 -0.45588886091E+02  0.46810566784E+02  0.10570000000E+00 0. -1.
<mgrwt>
<rscale>  0 0.21381274E+02</rscale>
<asrwt>0</asrwt>
<pdfrwt beam="1">  1        2 0.16917920E-03 0.21381274E+02</pdfrwt>
<pdfrwt beam="2">  1       -2 0.15989449E-01 0.21381274E+02</pdfrwt>
<totfact> 0.25434828E+06</totfact>
</mgrwt>
</event>
<event>
 4    1  0.3704929E-001  0.4960541E+02  0.7818608E-02  0.1447482E+00
          2   -1    0    0  501    0  0.00000000000E+00  0.00000000000E+00  0.38472813587E+02  0.38472813675E+02  0.26000000000E-02 0. -1.
         -2   -1    0    0    0  501 -0.00000000000E+00 -0.00000000000E+00 -0.15989839690E+02  0.15989839902E+02  0.26000000000E-02 0.  1.
        -13    1    1    2    0    0  0.37609054191E+01 -0.11175823979E+02  0.35198229034E+02  0.37121017643E+02  0.10570000000E+00 0. -1.
         13    1    1    2    0    0 -0.37609054191E+01  0.11175823979E+02 -0.12715255137E+02  0.17341635934E+02  0.10570000000E+00 0.  1.
<mgrwt>
<rscale>  0 0.49605408E+02</rscale>
<asrwt>0</asrwt>
<pdfrwt beam="1">  1        2 0.59188944E-02 0.49605408E+02</pdfrwt>
<pdfrwt beam="2">  1       -2 0.24599754E-02 0.49605408E+02</pdfrwt>
<totfact> 0.49941444E+05</totfact>
</mgrwt>
</event>
<event>
 4    1  0.3704929E-001  0.2346050E+02  0.7818608E-02  0.1684153E+00
         -2   -1    0    0    0  501 -0.00000000000E+00  0.00000000000E+00  0.24339166605E+01  0.24339180492E+01  0.26000000000E-02 0. -1.
          2   -1    0    0  501    0  0.00000000000E+00 -0.00000000000E+00 -0.56533860031E+02  0.56533860091E+02  0.26000000000E-02 0.  1.
        -13    1    1    2    0    0  0.13403071771E+01  0.11146361716E+02 -0.35592063205E+02  0.37320824462E+02  0.10570000000E+00 0.  1.
         13    1    1    2    0    0 -0.13403071771E+01 -0.11146361716E+02 -0.18507880166E+02  0.21646953678E+02  0.10570000000E+00 0. -1.
<mgrwt>
<rscale>  0 0.23460498E+02</rscale>
<asrwt>0</asrwt>
<pdfrwt beam="2">  1        2 0.86975161E-02 0.23460498E+02</pdfrwt>
<pdfrwt beam="1">  1       -2 0.37444887E-03 0.23460498E+02</pdfrwt>
<totfact> 0.32948023E+06</totfact>
</mgrwt>
</event>
<event>
 4    1  0.3704929E-001  0.5315063E+02  0.7818608E-02  0.1429053E+00
          2   -1    0    0  501    0  0.00000000000E+00  0.00000000000E+00  0.58025411120E+02  0.58025411179E+02  0.26000000000E-02 0. -1.
         -2   -1    0    0    0  501 -0.00000000000E+00 -0.00000000000E+00 -0.12171344565E+02  0.12171344842E+02  0.26000000000E-02 0.  1.
        -13    1    1    2    0    0  0.30493491905E+01  0.24231821932E+02  0.36763447424E+02  0.44136628367E+02  0.10570000000E+00 0. -1.
         13    1    1    2    0    0 -0.30493491905E+01 -0.24231821932E+02  0.90906191320E+01  0.26060127654E+02  0.10570000000E+00 0.  1.
<mgrwt>
<rscale>  0 0.53150627E+02</rscale>
<asrwt>0</asrwt>
<pdfrwt beam="1">  1        2 0.89269866E-02 0.53150627E+02</pdfrwt>
<pdfrwt beam="2">  1       -2 0.18725145E-02 0.53150627E+02</pdfrwt>
<totfact> 0.45130082E+05</totfact>
</mgrwt>
</event>
<event>
 4    1  0.3704929E-001  0.3398803E+02  0.7818608E-02  0.1557775E+00
          2   -1    0    0  501    0  0.00000000000E+00  0.00000000000E+00  0.84407457801E+02  0.84407457841E+02  0.26000000000E-02 0.  1.
         -2   -1    0    0    0  501 -0.00000000000E+00 -0.00000000000E+00 -0.34214577125E+01  0.34214587004E+01  0.26000000000E-02 0. -1.
        -13    1    1    2    0    0 -0.14196806835E+02 -0.10314582836E+01  0.16504943632E+02  0.21795356553E+02  0.10570000000E+00 0. -1.
         13    1    1    2    0    0  0.14196806835E+02  0.10314582836E+01  0.64481056456E+02  0.66033559988E+02  0.10570000000E+00 0.  1.
<mgrwt>
<rscale>  0 0.33988033E+02</rscale>
<asrwt>0</asrwt>
<pdfrwt beam="1">  1        2 0.12985762E-01 0.33988033E+02</pdfrwt>
<pdfrwt beam="2">  1       -2 0.52637821E-03 0.33988033E+02</pdfrwt>
<totfact> 0.14917193E+06</totfact>
</mgrwt>
</event>
<event>
 4    1  0.3704929E-001  0.2626164E+02  0.7818608E-02  0.1643515E+00
          2   -1    0    0  501    0  0.00000000000E+00  0.00000000000E+00  0.26813162083E+01  0.26813174689E+01  0.26000000000E-02 0. -1.
         -2   -1    0    0    0  501 -0.00000000000E+00 -0.00000000000E+00 -0.64303616397E+02  0.64303616450E+02  0.26000000000E-02 0.  1.
        -13    1    1    2    0    0 -0.21604898108E+01 -0.12357362979E+02 -0.40701417012E+02  0.42590945696E+02  0.10570000000E+00 0.  1.
         13    1    1    2    0    0  0.21604898108E+01  0.12357362979E+02 -0.20920883177E+02  0.24393988223E+02  0.10570000000E+00 0. -1.
<mgrwt>
<rscale>  0 0.26261635E+02</rscale>
<asrwt>0</asrwt>
<pdfrwt beam="1">  1        2 0.41251033E-03 0.26261635E+02</pdfrwt>
<pdfrwt beam="2">  1       -2 0.98928630E-02 0.26261635E+02</pdfrwt>
<totfact> 0.17735755E+06</totfact>
</mgrwt>
</event>
<event>
 4    1  0.3704929E-001  0.3258331E+02  0.7818608E-02  0.1571172E+00
         -2   -1    0    0    0  501 -0.00000000000E+00  0.00000000000E+00  0.29871888307E+02  0.29871888420E+02  0.26000000000E-02 0.  1.
          2   -1    0    0  501    0  0.00000000000E+00 -0.00000000000E+00 -0.88852114041E+01  0.88852117845E+01  0.26000000000E-02 0. -1.
        -13    1    1    2    0    0  0.48642763276E+01 -0.11030797185E+02  0.23527054611E+02  0.26436208917E+02  0.10570000000E+00 0.  1.
         13    1    1    2    0    0 -0.48642763276E+01  0.11030797185E+02 -0.25403777083E+01  0.12320891288E+02  0.10570000000E+00 0. -1.
<mgrwt>
<rscale>  0 0.32583312E+02</rscale>
<asrwt>0</asrwt>
<pdfrwt beam="2">  1        2 0.13669556E-02 0.32583312E+02</pdfrwt>
<pdfrwt beam="1">  1       -2 0.45956752E-02 0.32583312E+02</pdfrwt>
<totfact> 0.12039537E+06</totfact>
</mgrwt>
</event>
<event>
 4    1  0.3704929E-001  0.2718782E+02  0.7818608E-02  0.1631430E+00
          2   -1    0    0  501    0  0.00000000000E+00  0.00000000000E+00  0.12902717510E+02  0.12902717772E+02  0.26000000000E-02 0.  1.
         -2   -1    0    0    0  501 -0.00000000000E+00 -0.00000000000E+00 -0.14322133859E+02  0.14322134095E+02  0.26000000000E-02 0. -1.
        -13    1    1    2    0    0  0.87899860657E+01  0.49574910277E+01 -0.98294001860E+01  0.14087897389E+02  0.10570000000E+00 0. -1.
         13    1    1    2    0    0 -0.87899860657E+01 -0.49574910277E+01  0.84099838368E+01  0.13136954478E+02  0.10570000000E+00 0.  1.
<mgrwt>
<rscale>  0 0.27187825E+02</rscale>
<asrwt>0</asrwt>
<pdfrwt beam="1">  1        2 0.19850335E-02 0.27187825E+02</pdfrwt>
<pdfrwt beam="2">  1       -2 0.22034053E-02 0.27187825E+02</pdfrwt>
<totfact> 0.19590883E+06</totfact>
</mgrwt>
</event>
<event>
 4    1  0.3704929E-001  0.3608649E+02  0.7818608E-02  0.1539159E+00
         -2   -1    0    0    0  501 -0.00000000000E+00  0.00000000000E+00  0.46995237421E+02  0.46995237493E+02  0.26000000000E-02 0.  1.
          2   -1    0    0  501    0  0.00000000000E+00 -0.00000000000E+00 -0.69274803871E+01  0.69274808750E+01  0.26000000000E-02 0. -1.
        -13    1    1    2    0    0  0.33297169206E+01 -0.17712028472E+02  0.18744595979E+02  0.26003346290E+02  0.10570000000E+00 0.  1.
         13    1    1    2    0    0 -0.33297169206E+01  0.17712028472E+02  0.21323161055E+02  0.27919372078E+02  0.10570000000E+00 0. -1.
<mgrwt>
<rscale>  0 0.36086485E+02</rscale>
<asrwt>0</asrwt>
<pdfrwt beam="2">  1        2 0.10657663E-02 0.36086485E+02</pdfrwt>
<pdfrwt beam="1">  1       -2 0.72300363E-02 0.36086485E+02</pdfrwt>
<totfact> 0.89372534E+05</totfact>
</mgrwt>
</event>
<event>
 4    1  0.3704929E-001  0.2880069E+02  0.7818608E-02  0.1611737E+00
          2   -1    0    0  501    0  0.00000000000E+00  0.00000000000E+00  0.20575079173E+01  0.20575095601E+01  0.26000000000E-02 0. -1.
         -2   -1    0    0    0  501 -0.00000000000E+00 -0.00000000000E+00 -0.10078691563E+03  0.10078691566E+03  0.26000000000E-02 0.  1.
        -13    1    1    2    0    0 -0.10715681945E+02 -0.78495972610E+01 -0.69219933721E+02  0.70482993789E+02  0.10570000000E+00 0.  1.
         13    1    1    2    0    0  0.10715681945E+02  0.78495972610E+01 -0.29509473993E+02  0.32361431436E+02  0.10570000000E+00 0. -1.
<mgrwt>
<rscale>  0 0.28800692E+02</rscale>
<asrwt>0</asrwt>
<pdfrwt beam="1">  1        2 0.31653989E-03 0.28800692E+02</pdfrwt>
<pdfrwt beam="2">  1       -2 0.15505676E-01 0.28800692E+02</pdfrwt>
<totfact> 0.13083436E+06</totfact>
</mgrwt>
</event>
<event>
 4    1  0.3704929E-001  0.2650775E+02  0.7818608E-02  0.1640245E+00
         -2   -1    0    0    0  501 -0.00000000000E+00  0.00000000000E+00  0.31781004108E+01  0.31781014743E+01  0.26000000000E-02 0.  1.
          2   -1    0    0  501    0  0.00000000000E+00 -0.00000000000E+00 -0.55273623196E+02  0.55273623257E+02  0.26000000000E-02 0. -1.
        -13    1    1    2    0    0  0.10058134604E+02  0.70824534586E+01 -0.36923699093E+02  0.38919120570E+02  0.10570000000E+00 0. -1.
         13    1    1    2    0    0 -0.10058134604E+02 -0.70824534586E+01 -0.15171823692E+02  0.19532604162E+02  0.10570000000E+00 0.  1.
<mgrwt>
<rscale>  0 0.26507747E+02</rscale>
<asrwt>0</asrwt>
<pdfrwt beam="2">  1        2 0.85036337E-02 0.26507747E+02</pdfrwt>
<pdfrwt beam="1">  1       -2 0.48893865E-03 0.26507747E+02</pdfrwt>
<totfact> 0.24752809E+06</totfact>
</mgrwt>
</event>
<event>
 4    1  0.3704929E-001  0.4739425E+02  0.7818608E-02  0.1459925E+00
         -2   -1    0    0    0  501 -0.00000000000E+00  0.00000000000E+00  0.21566754280E+02  0.21566754436E+02  0.26000000000E-02 0. -1.
          2   -1    0    0  501    0  0.00000000000E+00 -0.00000000000E+00 -0.26037936811E+02  0.26037936940E+02  0.26000000000E-02 0.  1.
        -13    1    1    2    0    0  0.84244429648E+01 -0.17973991649E+02 -0.15235507747E+02  0.25023338784E+02  0.10570000000E+00 0.  1.
         13    1    1    2    0    0 -0.84244429648E+01  0.17973991649E+02  0.10764325216E+02  0.22581352593E+02  0.10570000000E+00 0. -1.
<mgrwt>
<rscale>  0 0.47394252E+02</rscale>
<asrwt>0</asrwt>
<pdfrwt beam="2">  1        2 0.40058364E-02 0.47394252E+02</pdfrwt>
<pdfrwt beam="1">  1       -2 0.33179622E-02 0.47394252E+02</pdfrwt>
<totfact> 0.52802745E+05</totfact>
</mgrwt>
</event>
<event>
 4    1  0.3704929E-001  0.3374660E+02  0.7818608E-02  0.1560021E+00
         -2   -1    0    0    0  501 -0.00000000000E+00  0.00000000000E+00  0.11507468062E+02  0.11507468356E+02  0.26000000000E-02 0.  1.
          2   -1    0    0  501    0  0.00000000000E+00 -0.00000000000E+00 -0.24741168131E+02  0.24741168267E+02  0.26000000000E-02 0. -1.
        -13    1    1    2    0    0  0.30318162515E+01  0.98196996792E+01  0.77573459576E+01  0.12876567880E+02  0.10570000000E+00 0.  1.
         13    1    1    2    0    0 -0.30318162515E+01 -0.98196996792E+01 -0.20991046026E+02  0.23372068743E+02  0.10570000000E+00 0. -1.
<mgrwt>
<rscale>  0 0.33746597E+02</rscale>
<asrwt>0</asrwt>
<pdfrwt beam="2">  1        2 0.38063336E-02 0.33746597E+02</pdfrwt>
<pdfrwt beam="1">  1       -2 0.17703797E-02 0.33746597E+02</pdfrwt>
<totfact> 0.12398555E+06</totfact>
</mgrwt>
</event>
<event>
 4    1  0.3704929E-001  0.3751967E+02  0.7818608E-02  0.1527300E+00
          2   -1    0    0  501    0  0.00000000000E+00  0.00000000000E+00  0.12941099901E+03  0.12941099904E+03  0.26000000000E-02 0. -1.
         -2   -1    0    0    0  501 -0.00000000000E+00 -0.00000000000E+00 -0.27194861388E+01  0.27194873817E+01  0.26000000000E-02 0.  1.
        -13    1    1    2    0    0  0.14060820795E+02  0.10106743137E+02  0.88757055963E+02  0.90430520810E+02  0.10570000000E+00 0. -1.
         13    1    1    2    0    0 -0.14060820795E+02 -0.10106743137E+02  0.37934456909E+02  0.41699965608E+02  0.10570000000E+00 0.  1.
<mgrwt>
<rscale>  0 0.37519675E+02</rscale>
<asrwt>0</asrwt>
<pdfrwt beam="1">  1        2 0.19909379E-01 0.37519675E+02</pdfrwt>
<pdfrwt beam="2">  1       -2 0.41838270E-03 0.37519675E+02</pdfrwt>
<totfact> 0.13078821E+06</totfact>
</mgrwt>
</event>
<event>
 4    1  0.3704929E-001  0.3121370E+02  0.7818608E-02  0.1585048E+00
         -2   -1    0    0    0  501 -0.00000000000E+00  0.00000000000E+00  0.99773902145E+02  0.99773902179E+02  0.26000000000E-02 0. -1.
          2   -1    0    0  501    0  0.00000000000E+00 -0.00000000000E+00 -0.24412563408E+01  0.24412577253E+01  0.26000000000E-02 0.  1.
        -13    1    1    2    0    0 -0.15584331645E+01 -0.15171075349E+02  0.37819076307E+02  0.40778474056E+02  0.10570000000E+00 0.  1.
         13    1    1    2    0    0  0.15584331645E+01  0.15171075349E+02  0.59513569497E+02  0.61436685848E+02  0.10570000000E+00 0. -1.
<mgrwt>
<rscale>  0 0.31213699E+02</rscale>
<asrwt>0</asrwt>
<pdfrwt beam="2">  1        2 0.37557794E-03 0.31213699E+02</pdfrwt>
<pdfrwt beam="1">  1       -2 0.15349834E-01 0.31213699E+02</pdfrwt>
<totfact> 0.10883807E+06</totfact>
</mgrwt>
</event>
<event>
 4    1  0.3704929E-001  0.4747028E+02  0.7818608E-02  0.1459484E+00
          2   -1    0    0  501    0  0.00000000000E+00  0.00000000000E+00  0.91226483027E+02  0.91226483064E+02  0.26000000000E-02 0.  1.
         -2   -1    0    0    0  501 -0.00000000000E+00 -0.00000000000E+00 -0.61753658896E+01  0.61753664370E+01  0.26000000000E-02 0. -1.
        -13    1    1    2    0    0 -0.21195215193E+02 -0.10680339918E+02  0.42930556542E+02  0.49054568242E+02  0.10570000000E+00 0. -1.
         13    1    1    2    0    0  0.21195215193E+02  0.10680339918E+02  0.42120560595E+02  0.48347281259E+02  0.10570000000E+00 0.  1.
<mgrwt>
<rscale>  0 0.47470283E+02</rscale>
<asrwt>0</asrwt>
<pdfrwt beam="1">  1        2 0.14034844E-01 0.47470283E+02</pdfrwt>
<pdfrwt beam="2">  1       -2 0.95005632E-03 0.47470283E+02</pdfrwt>
<totfact> 0.66690379E+05</totfact>
</mgrwt>
</event>
<event>
 4    1  0.3704929E-001  0.2824107E+02  0.7818608E-02  0.1618387E+00
         -2   -1    0    0    0  501 -0.00000000000E+00  0.00000000000E+00  0.47573907547E+02  0.47573907618E+02  0.26000000000E-02 0. -1.
          2   -1    0    0  501    0  0.00000000000E+00 -0.00000000000E+00 -0.41911516085E+01  0.41911524150E+01  0.26000000000E-02 0.  1.
        -13    1    1    2    0    0  0.15429034247E+01  0.12361396056E+02  0.95060977787E+01  0.15670409404E+02  0.10570000000E+00 0.  1.
         13    1    1    2    0    0 -0.15429034247E+01 -0.12361396056E+02  0.33876658160E+02  0.36094650629E+02  0.10570000000E+00 0. -1.
<mgrwt>
<rscale>  0 0.28241068E+02</rscale>
<asrwt>0</asrwt>
<pdfrwt beam="2">  1        2 0.64479266E-03 0.28241068E+02</pdfrwt>
<pdfrwt beam="1">  1       -2 0.73190624E-02 0.28241068E+02</pdfrwt>
<totfact> 0.15755213E+06</totfact>
</mgrwt>
</event>
<event>
 4    1  0.3704929E-001  0.6593849E+02  0.7818608E-02  0.1374476E+00
         -2   -1    0    0    0  501 -0.00000000000E+00  0.00000000000E+00  0.82348758131E+01  0.82348762235E+01  0.26000000000E-02 0. -1.
          2   -1    0    0  501    0  0.00000000000E+00 -0.00000000000E+00 -0.13199604827E+03  0.13199604830E+03  0.26000000000E-02 0.  1.
        -13    1    1    2    0    0 -0.17960319394E+02  0.81208141139E+01 -0.11808483091E+03  0.11971866671E+03  0.10570000000E+00 0.  1.
         13    1    1    2    0    0  0.17960319394E+02 -0.81208141139E+01 -0.56763415433E+01  0.20512257808E+02  0.10570000000E+00 0. -1.
<mgrwt>
<rscale>  0 0.65938489E+02</rscale>
<asrwt>0</asrwt>
<pdfrwt beam="2">  1        2 0.20307083E-01 0.65938489E+02</pdfrwt>
<pdfrwt beam="1">  1       -2 0.12669041E-02 0.65938489E+02</pdfrwt>
<totfact> 0.31786397E+05</totfact>
</mgrwt>
</event>
<event>
 4    1  0.3704929E-001  0.2425794E+02  0.7818608E-02  0.1671895E+00
         -2   -1    0    0    0  501 -0.00000000000E+00  0.00000000000E+00  0.13992114531E+02  0.13992114773E+02  0.26000000000E-02 0. -1.
          2   -1    0    0  501    0  0.00000000000E+00 -0.00000000000E+00 -0.10513917854E+02  0.10513918175E+02  0.26000000000E-02 0.  1.
        -13    1    1    2    0    0  0.10662931475E+02 -0.24515965157E+01 -0.35481978633E+01  0.11502578567E+02  0.10570000000E+00 0.  1.
         13    1    1    2    0    0 -0.10662931475E+02  0.24515965157E+01  0.70263945408E+01  0.13003454381E+02  0.10570000000E+00 0. -1.
<mgrwt>
<rscale>  0 0.24257943E+02</rscale>
<asrwt>0</asrwt>
<pdfrwt beam="2">  1        2 0.16175259E-02 0.24257943E+02</pdfrwt>
<pdfrwt beam="1">  1       -2 0.21526330E-02 0.24257943E+02</pdfrwt>
<totfact> 0.25270860E+06</totfact>
</mgrwt>
</event>
<event>
 4    1  0.3704929E-001  0.2380039E+02  0.7818608E-02  0.1678855E+00
         -2   -1    0    0    0  501 -0.00000000000E+00  0.00000000000E+00  0.12023011620E+03  0.12023011623E+03  0.26000000000E-02 0. -1.
          2   -1    0    0  501    0  0.00000000000E+00 -0.00000000000E+00 -0.11778613721E+01  0.11778642417E+01  0.26000000000E-02 0.  1.
        -13    1    1    2    0    0  0.80327725315E+01 -0.87361004215E+01  0.63968848336E+02  0.65060507338E+02  0.10570000000E+00 0. -1.
         13    1    1    2    0    0 -0.80327725315E+01  0.87361004215E+01  0.55083406489E+02  0.56347473129E+02  0.10570000000E+00 0.  1.
<mgrwt>
<rscale>  0 0.23800385E+02</rscale>
<asrwt>0</asrwt>
<pdfrwt beam="2">  1        2 0.18120968E-03 0.23800385E+02</pdfrwt>
<pdfrwt beam="1">  1       -2 0.18496940E-01 0.23800385E+02</pdfrwt>
<totfact> 0.19281003E+06</totfact>
</mgrwt>
</event>
<event>
 4    1  0.3704929E-001  0.2611996E+02  0.7818608E-02  0.1645418E+00
         -2   -1    0    0    0  501 -0.00000000000E+00  0.00000000000E+00  0.11674281053E+02  0.11674281343E+02  0.26000000000E-02 0. -1.
          2   -1    0    0  501    0  0.00000000000E+00 -0.00000000000E+00 -0.14610160184E+02  0.14610160415E+02  0.26000000000E-02 0.  1.
        -13    1    1    2    0    0 -0.12724903486E+02 -0.27792261766E+01 -0.51080153148E+00  0.13035311948E+02  0.10570000000E+00 0. -1.
         13    1    1    2    0    0  0.12724903486E+02  0.27792261766E+01 -0.24250775993E+01  0.13249129810E+02  0.10570000000E+00 0.  1.
<mgrwt>
<rscale>  0 0.26119963E+02</rscale>
<asrwt>0</asrwt>
<pdfrwt beam="2">  1        2 0.22477170E-02 0.26119963E+02</pdfrwt>
<pdfrwt beam="1">  1       -2 0.17960433E-02 0.26119963E+02</pdfrwt>
<totfact> 0.21818331E+06</totfact>
</mgrwt>
</event>
<event>
 4    1  0.3704929E-001  0.2910734E+02  0.7818608E-02  0.1608171E+00
          2   -1    0    0  501    0  0.00000000000E+00  0.00000000000E+00  0.15250508833E+03  0.15250508835E+03  0.26000000000E-02 0. -1.
         -2   -1    0    0    0  501 -0.00000000000E+00 -0.00000000000E+00 -0.13888661767E+01  0.13888686104E+01  0.26000000000E-02 0.  1.
        -13    1    1    2    0    0 -0.47138763346E+01 -0.13757216564E+02  0.72583489257E+02  0.74026047597E+02  0.10570000000E+00 0. -1.
         13    1    1    2    0    0  0.47138763346E+01  0.13757216564E+02  0.78532732892E+02  0.79867909361E+02  0.10570000000E+00 0.  1.
<mgrwt>
<rscale>  0 0.29107343E+02</rscale>
<asrwt>0</asrwt>
<pdfrwt beam="1">  1        2 0.23462310E-01 0.29107343E+02</pdfrwt>
<pdfrwt beam="2">  1       -2 0.21367202E-03 0.29107343E+02</pdfrwt>
<totfact> 0.25079219E+06</totfact>
</mgrwt>
</event>
<event>
 4    1  0.3704929E-001  0.2821407E+02  0.7818608E-02  0.1618712E+00
         -2   -1    0    0    0  501 -0.00000000000E+00  0.00000000000E+00  0.28259788793E+01  0.28259800754E+01  0.26000000000E-02 0.  1.
          2   -1    0    0  501    0  0.00000000000E+00 -0.00000000000E+00 -0.70421054203E+02  0.70421054251E+02  0.26000000000E-02 0. -1.
        -13    1    1    2    0    0  0.62773222529E+01 -0.12398555298E+02 -0.40086540603E+02  0.42427241934E+02  0.10570000000E+00 0. -1.
         13    1    1    2    0    0 -0.62773222529E+01  0.12398555298E+02 -0.27508534721E+02  0.30819792393E+02  0.10570000000E+00 0.  1.
<mgrwt>
<rscale>  0 0.28214071E+02</rscale>
<asrwt>0</asrwt>
<pdfrwt beam="2">  1        2 0.10834007E-01 0.28214071E+02</pdfrwt>
<pdfrwt beam="1">  1       -2 0.43476613E-03 0.28214071E+02</pdfrwt>
<totfact> 0.22360009E+06</totfact>
</mgrwt>
</event>
<event>
 4    1  0.3704929E-001  0.2251267E+02  0.7818608E-02  0.1699534E+00
          2   -1    0    0  501    0  0.00000000000E+00  0.00000000000E+00  0.11243618082E+03  0.11243618085E+03  0.26000000000E-02 0. -1.
         -2   -1    0    0    0  501 -0.00000000000E+00 -0.00000000000E+00 -0.11269048503E+01  0.11269078497E+01  0.26000000000E-02 0.  1.
        -13    1    1    2    0    0 -0.89663195453E+01 -0.68029031924E+01  0.56359033470E+02  0.57471960157E+02  0.10570000000E+00 0. -1.
         13    1    1    2    0    0  0.89663195453E+01  0.68029031924E+01  0.54950242502E+02  0.56091128546E+02  0.10570000000E+00 0.  1.
<mgrwt>
<rscale>  0 0.22512668E+02</rscale>
<asrwt>0</asrwt>
<pdfrwt beam="1">  1        2 0.17297866E-01 0.22512668E+02</pdfrwt>
<pdfrwt beam="2">  1       -2 0.17337029E-03 0.22512668E+02</pdfrwt>
<totfact> 0.41665141E+06</totfact>
</mgrwt>
</event>
<event>
 4    1  0.3704929E-001  0.2415966E+02  0.7818608E-02  0.1673374E+00
          2   -1    0    0  501    0  0.00000000000E+00  0.00000000000E+00  0.20414384370E+02  0.20414384535E+02  0.26000000000E-02 0. -1.
         -2   -1    0    0    0  501 -0.00000000000E+00 -0.00000000000E+00 -0.71480139696E+01  0.71480144424E+01  0.26000000000E-02 0.  1.
        -13    1    1    2    0    0 -0.92777136411E+01 -0.57453799264E+01  0.12542026774E+02  0.16625250945E+02  0.10570000000E+00 0. -1.
         13    1    1    2    0    0  0.92777136411E+01  0.57453799264E+01  0.72434362611E+00  0.10937148032E+02  0.10570000000E+00 0.  1.
<mgrwt>
<rscale>  0 0.24159662E+02</rscale>
<asrwt>0</asrwt>
<pdfrwt beam="1">  1        2 0.31406745E-02 0.24159662E+02</pdfrwt>
<pdfrwt beam="2">  1       -2 0.10996945E-02 0.24159662E+02</pdfrwt>
<totfact> 0.27064807E+06</totfact>
</mgrwt>
</event>
<event>
 4    1  0.3704929E-001  0.2728235E+02  0.7818608E-02  0.1630230E+00
          2   -1    0    0  501    0  0.00000000000E+00  0.00000000000E+00  0.79100141457E+01  0.79100145731E+01  0.26000000000E-02 0. -1.
         -2   -1    0    0    0  501 -0.00000000000E+00 -0.00000000000E+00 -0.23524815243E+02  0.23524815387E+02  0.26000000000E-02 0.  1.
        -13    1    1    2    0    0  0.41104675141E+01  0.10351474403E+02  0.12666349621E+01  0.11210017936E+02  0.10570000000E+00 0. -1.
         13    1    1    2    0    0 -0.41104675141E+01 -0.10351474403E+02 -0.16881436060E+02  0.20224812024E+02  0.10570000000E+00 0.  1.
<mgrwt>
<rscale>  0 0.27282348E+02</rscale>
<asrwt>0</asrwt>
<pdfrwt beam="1">  1        2 0.12169253E-02 0.27282348E+02</pdfrwt>
<pdfrwt beam="2">  1       -2 0.36192024E-02 0.27282348E+02</pdfrwt>
<totfact> 0.18531508E+06</totfact>
</mgrwt>
</event>
<event>
 4    1  0.3704929E-001  0.2031423E+02  0.7818608E-02  0.1739150E+00
         -2   -1    0    0    0  501 -0.00000000000E+00  0.00000000000E+00  0.85088888817E+02  0.85088888857E+02  0.26000000000E-02 0.  1.
          2   -1    0    0  501    0  0.00000000000E+00 -0.00000000000E+00 -0.12124598045E+01  0.12124625922E+01  0.26000000000E-02 0. -1.
        -13    1    1    2    0    0 -0.86015097478E+01  0.53194483586E+01  0.45908306080E+02  0.47009214420E+02  0.10570000000E+00 0.  1.
         13    1    1    2    0    0  0.86015097478E+01 -0.53194483586E+01  0.37968122933E+02  0.39292137029E+02  0.10570000000E+00 0. -1.
<mgrwt>
<rscale>  0 0.20314229E+02</rscale>
<asrwt>0</asrwt>
<pdfrwt beam="2">  1        2 0.18653246E-03 0.20314229E+02</pdfrwt>
<pdfrwt beam="1">  1       -2 0.13090601E-01 0.20314229E+02</pdfrwt>
<totfact> 0.29821250E+06</totfact>
</mgrwt>
</event>
<event>
 4    1  0.3704929E-001  0.3842947E+02  0.7818608E-02  0.1520098E+00
          2   -1    0    0  501    0  0.00000000000E+00  0.00000000000E+00  0.71273752339E+01  0.71273757082E+01  0.26000000000E-02 0. -1.
         -2   -1    0    0    0  501 -0.00000000000E+00 -0.00000000000E+00 -0.51801112134E+02  0.51801112199E+02  0.26000000000E-02 0.  1.
        -13    1    1    2    0    0  0.15160408438E+02  0.11599183133E+02 -0.18971799424E+02  0.26913182257E+02  0.10570000000E+00 0. -1.
         13    1    1    2    0    0 -0.15160408438E+02 -0.11599183133E+02 -0.25701937477E+02  0.32015305650E+02  0.10570000000E+00 0.  1.
<mgrwt>
<rscale>  0 0.38429467E+02</rscale>
<asrwt>0</asrwt>
<pdfrwt beam="1">  1        2 0.10965193E-02 0.38429467E+02</pdfrwt>
<pdfrwt beam="2">  1       -2 0.79694017E-02 0.38429467E+02</pdfrwt>
<totfact> 0.75896681E+05</totfact>
</mgrwt>
</event>
<event>
 4    1  0.3704929E-001  0.4629959E+02  0.7818608E-02  0.1466388E+00
          2   -1    0    0  501    0  0.00000000000E+00  0.00000000000E+00  0.18481222277E+03  0.18481222279E+03  0.26000000000E-02 0.  1.
         -2   -1    0    0    0  501 -0.00000000000E+00 -0.00000000000E+00 -0.28997694768E+01  0.28997706424E+01  0.26000000000E-02 0. -1.
        -13    1    1    2    0    0 -0.22870360421E+02  0.34965343635E+01  0.87757078195E+02  0.90755688990E+02  0.10570000000E+00 0.  1.
         13    1    1    2    0    0  0.22870360421E+02 -0.34965343635E+01  0.94155375101E+02  0.96956304443E+02  0.10570000000E+00 0. -1.
<mgrwt>
<rscale>  0 0.46299588E+02</rscale>
<asrwt>0</asrwt>
<pdfrwt beam="1">  1        2 0.28432654E-01 0.46299588E+02</pdfrwt>
<pdfrwt beam="2">  1       -2 0.44611841E-03 0.46299588E+02</pdfrwt>
<totfact> 0.86892937E+05</totfact>
</mgrwt>
</event>
<event>
 4    1  0.3704929E-001  0.4108276E+02  0.7818608E-02  0.1500391E+00
         -2   -1    0    0    0  501 -0.00000000000E+00  0.00000000000E+00  0.39889647712E+02  0.39889647797E+02  0.26000000000E-02 0. -1.
          2   -1    0    0  501    0  0.00000000000E+00 -0.00000000000E+00 -0.10577888876E+02  0.10577889196E+02  0.26000000000E-02 0.  1.
        -13    1    1    2    0    0 -0.81483440269E+01 -0.11287429271E+02 -0.38986084283E+01  0.14457243517E+02  0.10570000000E+00 0.  1.
         13    1    1    2    0    0  0.81483440269E+01  0.11287429271E+02  0.33210367264E+02  0.36010293476E+02  0.10570000000E+00 0. -1.
<mgrwt>
<rscale>  0 0.41082759E+02</rscale>
<asrwt>0</asrwt>
<pdfrwt beam="2">  1        2 0.16273675E-02 0.41082759E+02</pdfrwt>
<pdfrwt beam="1">  1       -2 0.61368690E-02 0.41082759E+02</pdfrwt>
<totfact> 0.67474940E+05</totfact>
</mgrwt>
</event>
<event>
 4    1  0.3704929E-001  0.3676871E+02  0.7818608E-02  0.1533432E+00
         -2   -1    0    0    0  501 -0.00000000000E+00  0.00000000000E+00  0.36752737147E+01  0.36752746344E+01  0.26000000000E-02 0. -1.
          2   -1    0    0  501    0  0.00000000000E+00 -0.00000000000E+00 -0.91961711415E+02  0.91961711451E+02  0.26000000000E-02 0.  1.
        -13    1    1    2    0    0  0.14672203083E+02 -0.10911496847E+02 -0.49105028971E+02  0.52398944164E+02  0.10570000000E+00 0. -1.
         13    1    1    2    0    0 -0.14672203083E+02  0.10911496847E+02 -0.39181408729E+02  0.43238041922E+02  0.10570000000E+00 0.  1.
<mgrwt>
<rscale>  0 0.36768710E+02</rscale>
<asrwt>0</asrwt>
<pdfrwt beam="2">  1        2 0.14147954E-01 0.36768710E+02</pdfrwt>
<pdfrwt beam="1">  1       -2 0.56542687E-03 0.36768710E+02</pdfrwt>
<totfact> 0.12578544E+06</totfact>
</mgrwt>
</event>
<event>
 4    1  0.3704929E-001  0.3481976E+02  0.7818608E-02  0.1550207E+00
         -2   -1    0    0    0  501 -0.00000000000E+00  0.00000000000E+00  0.34332496407E+02  0.34332496506E+02  0.26000000000E-02 0. -1.
          2   -1    0    0  501    0  0.00000000000E+00 -0.00000000000E+00 -0.88284826262E+01  0.88284830090E+01  0.26000000000E-02 0.  1.
        -13    1    1    2    0    0 -0.17016167003E+02  0.36128389581E+01  0.13619819865E+02  0.22093284284E+02  0.10570000000E+00 0. -1.
         13    1    1    2    0    0  0.17016167003E+02 -0.36128389581E+01  0.11884193916E+02  0.21067695231E+02  0.10570000000E+00 0.  1.
<mgrwt>
<rscale>  0 0.34819756E+02</rscale>
<asrwt>0</asrwt>
<pdfrwt beam="2">  1        2 0.13582281E-02 0.34819756E+02</pdfrwt>
<pdfrwt beam="1">  1       -2 0.52819226E-02 0.34819756E+02</pdfrwt>
<totfact> 0.10148914E+06</totfact>
</mgrwt>
</event>
<event>
 4    1  0.3704929E-001  0.4356249E+02  0.7818608E-02  0.1483521E+00
         -2   -1    0    0    0  501 -0.00000000000E+00  0.00000000000E+00  0.40121284161E+01  0.40121292585E+01  0.26000000000E-02 0. -1.
          2   -1    0    0  501    0  0.00000000000E+00 -0.00000000000E+00 -0.11824708528E+03  0.11824708531E+03  0.26000000000E-02 0.  1.
        -13    1    1    2    0    0 -0.19675499250E+02 -0.61377707112E+01 -0.37349124585E+02  0.42658712824E+02  0.10570000000E+00 0. -1.
         13    1    1    2    0    0  0.19675499250E+02  0.61377707112E+01 -0.76885832284E+02  0.79600501748E+02  0.10570000000E+00 0.  1.
<mgrwt>
<rscale>  0 0.43562486E+02</rscale>
<asrwt>0</asrwt>
<pdfrwt beam="2">  1        2 0.18191857E-01 0.43562486E+02</pdfrwt>
<pdfrwt beam="1">  1       -2 0.61725068E-03 0.43562486E+02</pdfrwt>
<totfact> 0.88442110E+05</totfact>
</mgrwt>
</event>
<event>
 4    1  0.3704929E-001  0.2680978E+02  0.7818608E-02  0.1636290E+00
          2   -1    0    0  501    0  0.00000000000E+00  0.00000000000E+00  0.11443591847E+03  0.11443591850E+03  0.26000000000E-02 0. -1.
         -2   -1    0    0    0  501 -0.00000000000E+00 -0.00000000000E+00 -0.15702316109E+01  0.15702337635E+01  0.26000000000E-02 0.  1.
        -13    1    1    2    0    0 -0.31706696595E+01  0.12791545948E+02  0.67034508106E+02  0.68317737399E+02  0.10570000000E+00 0. -1.
         13    1    1    2    0    0  0.31706696595E+01 -0.12791545948E+02  0.45831178752E+02  0.47688414863E+02  0.10570000000E+00 0.  1.
<mgrwt>
<rscale>  0 0.26809776E+02</rscale>
<asrwt>0</asrwt>
<pdfrwt beam="1">  1        2 0.17605536E-01 0.26809776E+02</pdfrwt>
<pdfrwt beam="2">  1       -2 0.24157413E-03 0.26809776E+02</pdfrwt>
<totfact> 0.28090075E+06</totfact>
</mgrwt>
</event>
<event>
 4    1  0.3704929E-001  0.2793203E+02  0.7818608E-02  0.1622141E+00
          2   -1    0    0  501    0  0.00000000000E+00  0.00000000000E+00  0.16332328631E+01  0.16332349326E+01  0.26000000000E-02 0. -1.
         -2   -1    0    0    0  501 -0.00000000000E+00 -0.00000000000E+00 -0.11942535003E+03  0.11942535006E+03  0.26000000000E-02 0.  1.
        -13    1    1    2    0    0 -0.12829068001E+02  0.38146248559E+01 -0.41613056503E+02  0.43712629669E+02  0.10570000000E+00 0. -1.
         13    1    1    2    0    0  0.12829068001E+02 -0.38146248559E+01 -0.76179060661E+02  0.77345955319E+02  0.10570000000E+00 0.  1.
<mgrwt>
<rscale>  0 0.27932027E+02</rscale>
<asrwt>0</asrwt>
<pdfrwt beam="1">  1        2 0.25126685E-03 0.27932027E+02</pdfrwt>
<pdfrwt beam="2">  1       -2 0.18373124E-01 0.27932027E+02</pdfrwt>
<totfact> 0.13432638E+06</totfact>
</mgrwt>
</event>
<event>
 4    1  0.3704929E-001  0.1249941E+03  0.7818608E-02  0.1235078E+00
          2   -1    0    0  501    0  0.00000000000E+00  0.00000000000E+00  0.46213349279E+03  0.46213349280E+03  0.26000000000E-02 0. -1.
         -2   -1    0    0    0  501 -0.00000000000E+00 -0.00000000000E+00 -0.84518473395E+01  0.84518477394E+01  0.26000000000E-02 0.  1.
        -13    1    1    2    0    0 -0.55841536512E+02  0.16119611244E+02  0.31333036987E+03  0.31867546332E+03  0.10570000000E+00 0.  1.
         13    1    1    2    0    0  0.55841536512E+02 -0.16119611244E+02  0.14035127559E+03  0.15190987723E+03  0.10570000000E+00 0. -1.
<mgrwt>
<rscale>  0 0.12499411E+03</rscale>
<asrwt>0</asrwt>
<pdfrwt beam="1">  1        2 0.71097473E-01 0.12499411E+03</pdfrwt>
<pdfrwt beam="2">  1       -2 0.13002840E-02 0.12499411E+03</pdfrwt>
<totfact> 0.89729875E+04</totfact>
</mgrwt>
</event>
<event>
 4    1  0.3704929E-001  0.3415142E+02  0.7818608E-02  0.1556268E+00
         -2   -1    0    0    0  501 -0.00000000000E+00  0.00000000000E+00  0.53033259571E+02  0.53033259634E+02  0.26000000000E-02 0. -1.
          2   -1    0    0  501    0  0.00000000000E+00 -0.00000000000E+00 -0.54980568415E+01  0.54980574563E+01  0.26000000000E-02 0.  1.
        -13    1    1    2    0    0  0.34299309005E+01 -0.12535329386E+02  0.42749881002E+02  0.44681790553E+02  0.10570000000E+00 0. -1.
         13    1    1    2    0    0 -0.34299309005E+01  0.12535329386E+02  0.47853217268E+01  0.13849526538E+02  0.10570000000E+00 0.  1.
<mgrwt>
<rscale>  0 0.34151421E+02</rscale>
<asrwt>0</asrwt>
<pdfrwt beam="2">  1        2 0.84585498E-03 0.34151421E+02</pdfrwt>
<pdfrwt beam="1">  1       -2 0.81589628E-02 0.34151421E+02</pdfrwt>
<totfact> 0.99810381E+05</totfact>
</mgrwt>
</event>
<event>
 4    1  0.3704929E-001  0.2265898E+02  0.7818608E-02  0.1697098E+00
          2   -1    0    0  501    0  0.00000000000E+00  0.00000000000E+00  0.81075387993E+01  0.81075392161E+01  0.26000000000E-02 0. -1.
         -2   -1    0    0    0  501 -0.00000000000E+00 -0.00000000000E+00 -0.15831850203E+02  0.15831850416E+02  0.26000000000E-02 0.  1.
        -13    1    1    2    0    0  0.29904710369E+00 -0.11320712908E+02 -0.35310708251E+01  0.11862866583E+02  0.10570000000E+00 0.  1.
         13    1    1    2    0    0 -0.29904710369E+00  0.11320712908E+02 -0.41932405784E+01  0.12076523049E+02  0.10570000000E+00 0. -1.
<mgrwt>
<rscale>  0 0.22658980E+02</rscale>
<asrwt>0</asrwt>
<pdfrwt beam="1">  1        2 0.12473137E-02 0.22658980E+02</pdfrwt>
<pdfrwt beam="2">  1       -2 0.24356693E-02 0.22658980E+02</pdfrwt>
<totfact> 0.29051714E+06</totfact>
</mgrwt>
</event>
<event>
 4    1  0.3704929E-001  0.5105452E+02  0.7818608E-02  0.1439735E+00
         -2   -1    0    0    0  501 -0.00000000000E+00  0.00000000000E+00  0.57935975033E+02  0.57935975092E+02  0.26000000000E-02 0.  1.
          2   -1    0    0  501    0  0.00000000000E+00 -0.00000000000E+00 -0.11247607617E+02  0.11247607918E+02  0.26000000000E-02 0. -1.
        -13    1    1    2    0    0 -0.40316372642E+01 -0.12648546457E+02 -0.62014895685E+01  0.14652968023E+02  0.10570000000E+00 0. -1.
         13    1    1    2    0    0  0.40316372642E+01  0.12648546457E+02  0.52889856984E+02  0.54530614987E+02  0.10570000000E+00 0.  1.
<mgrwt>
<rscale>  0 0.51054525E+02</rscale>
<asrwt>0</asrwt>
<pdfrwt beam="2">  1        2 0.17304012E-02 0.51054525E+02</pdfrwt>
<pdfrwt beam="1">  1       -2 0.89132270E-02 0.51054525E+02</pdfrwt>
<totfact> 0.37756324E+05</totfact>
</mgrwt>
</event>
<event>
 4    1  0.3704929E-001  0.2248457E+02  0.7818608E-02  0.1700004E+00
         -2   -1    0    0    0  501 -0.00000000000E+00  0.00000000000E+00  0.63655782965E+01  0.63655788275E+01  0.26000000000E-02 0. -1.
          2   -1    0    0  501    0  0.00000000000E+00 -0.00000000000E+00 -0.19855055814E+02  0.19855055984E+02  0.26000000000E-02 0.  1.
        -13    1    1    2    0    0  0.11052782583E+02 -0.91244358299E-01 -0.43532770767E+01  0.11880005141E+02  0.10570000000E+00 0.  1.
         13    1    1    2    0    0 -0.11052782583E+02  0.91244358299E-01 -0.91362004408E+01  0.14340629670E+02  0.10570000000E+00 0. -1.
<mgrwt>
<rscale>  0 0.22484566E+02</rscale>
<asrwt>0</asrwt>
<pdfrwt beam="2">  1        2 0.30546240E-02 0.22484566E+02</pdfrwt>
<pdfrwt beam="1">  1       -2 0.97931979E-03 0.22484566E+02</pdfrwt>
<totfact> 0.31885976E+06</totfact>
</mgrwt>
</event>
<event>
 4    1  0.3704929E-001  0.1305102E+03  0.7818608E-02  0.1226701E+00
          2   -1    0    0  501    0  0.00000000000E+00  0.00000000000E+00  0.38564086425E+03  0.38564086426E+03  0.26000000000E-02 0.  1.
         -2   -1    0    0    0  501 -0.00000000000E+00 -0.00000000000E+00 -0.11041954943E+02  0.11041955249E+02  0.26000000000E-02 0. -1.
        -13    1    1    2    0    0 -0.40977528237E+01 -0.64980608288E+02  0.17406920536E+03  0.18584770771E+03  0.10570000000E+00 0. -1.
         13    1    1    2    0    0  0.40977528237E+01  0.64980608288E+02  0.20052970395E+03  0.21083511180E+03  0.10570000000E+00 0.  1.
<mgrwt>
<rscale>  0 0.13051022E+03</rscale>
<asrwt>0</asrwt>
<pdfrwt beam="1">  1        2 0.59329377E-01 0.13051022E+03</pdfrwt>
<pdfrwt beam="2">  1       -2 0.16987619E-02 0.13051022E+03</pdfrwt>
<totfact> 0.74556028E+04</totfact>
</mgrwt>
</event>
<event>
 4    1  0.3704929E-001  0.2582445E+02  0.7818608E-02  0.1649435E+00
          2   -1    0    0  501    0  0.00000000000E+00  0.00000000000E+00  0.88052537075E+02  0.88052537114E+02  0.26000000000E-02 0. -1.
         -2   -1    0    0    0  501 -0.00000000000E+00 -0.00000000000E+00 -0.18934774110E+01  0.18934791961E+01  0.26000000000E-02 0.  1.
        -13    1    1    2    0    0 -0.11661109656E+02  0.19273746985E+01  0.24975359946E+02  0.27631069986E+02  0.10570000000E+00 0.  1.
         13    1    1    2    0    0  0.11661109656E+02 -0.19273746985E+01  0.61183699718E+02  0.62314946324E+02  0.10570000000E+00 0. -1.
<mgrwt>
<rscale>  0 0.25824451E+02</rscale>
<asrwt>0</asrwt>
<pdfrwt beam="1">  1        2 0.13546547E-01 0.25824451E+02</pdfrwt>
<pdfrwt beam="2">  1       -2 0.29130431E-03 0.25824451E+02</pdfrwt>
<totfact> 0.28789518E+06</totfact>
</mgrwt>
</event>
<event>
 4    1  0.3704929E-001  0.4058452E+02  0.7818608E-02  0.1503954E+00
          2   -1    0    0  501    0  0.00000000000E+00  0.00000000000E+00  0.30717080288E+02  0.30717080398E+02  0.26000000000E-02 0. -1.
         -2   -1    0    0    0  501 -0.00000000000E+00 -0.00000000000E+00 -0.13405435527E+02  0.13405435779E+02  0.26000000000E-02 0.  1.
        -13    1    1    2    0    0 -0.19505194748E+01  0.19448342960E+02  0.27287583228E+01  0.19735750925E+02  0.10570000000E+00 0.  1.
         13    1    1    2    0    0  0.19505194748E+01 -0.19448342960E+02  0.14582886439E+02  0.24386765252E+02  0.10570000000E+00 0. -1.
<mgrwt>
<rscale>  0 0.40584522E+02</rscale>
<asrwt>0</asrwt>
<pdfrwt beam="1">  1        2 0.47257046E-02 0.40584522E+02</pdfrwt>
<pdfrwt beam="2">  1       -2 0.20623747E-02 0.40584522E+02</pdfrwt>
<totfact> 0.80543221E+05</totfact>
</mgrwt>
</event>
<event>
 4    1  0.3704929E-001  0.3099611E+02  0.7818608E-02  0.1587332E+00
         -2   -1    0    0    0  501 -0.00000000000E+00  0.00000000000E+00  0.36018892503E+02  0.36018892597E+02  0.26000000000E-02 0.  1.
          2   -1    0    0  501    0  0.00000000000E+00 -0.00000000000E+00 -0.66684355228E+01  0.66684360296E+01  0.26000000000E-02 0. -1.
        -13    1    1    2    0    0  0.12519280314E+02 -0.41769050326E+00  0.21079737161E+01  0.12702817428E+02  0.10570000000E+00 0. -1.
         13    1    1    2    0    0 -0.12519280314E+02  0.41769050326E+00  0.27242483265E+02  0.29984511199E+02  0.10570000000E+00 0.  1.
<mgrwt>
<rscale>  0 0.30996108E+02</rscale>
<asrwt>0</asrwt>
<pdfrwt beam="2">  1        2 0.10259132E-02 0.30996108E+02</pdfrwt>
<pdfrwt beam="1">  1       -2 0.55413682E-02 0.30996108E+02</pdfrwt>
<totfact> 0.13203082E+06</totfact>
</mgrwt>
</event>
<event>
 4    1  0.3704929E-001  0.1262935E+03  0.7818608E-02  0.1233062E+00
         -2   -1    0    0    0  501 -0.00000000000E+00  0.00000000000E+00  0.21817844991E+02  0.21817845146E+02  0.26000000000E-02 0.  1.
          2   -1    0    0  501    0  0.00000000000E+00 -0.00000000000E+00 -0.18276377782E+03  0.18276377784E+03  0.26000000000E-02 0. -1.
        -13    1    1    2    0    0 -0.11549591493E+02  0.46404953589E+02 -0.13669663306E+02  0.49736140267E+02  0.10570000000E+00 0.  1.
         13    1    1    2    0    0  0.11549591493E+02 -0.46404953589E+02 -0.14727626952E+03  0.15484548272E+03  0.10570000000E+00 0. -1.
<mgrwt>
<rscale>  0 0.12629350E+03</rscale>
<asrwt>0</asrwt>
<pdfrwt beam="2">  1        2 0.28117503E-01 0.12629350E+03</pdfrwt>
<pdfrwt beam="1">  1       -2 0.33565917E-02 0.12629350E+03</pdfrwt>
<totfact> 0.60982065E+04</totfact>
</mgrwt>
</event>
<event>
 4    1  0.3704929E-001  0.2763149E+02  0.7818608E-02  0.1625849E+00
         -2   -1    0    0    0  501 -0.00000000000E+00  0.00000000000E+00  0.45167403422E+02  0.45167403497E+02  0.26000000000E-02 0. -1.
          2   -1    0    0  501    0  0.00000000000E+00 -0.00000000000E+00 -0.42259423554E+01  0.42259431552E+01  0.26000000000E-02 0.  1.
        -13    1    1    2    0    0 -0.11856914395E+02 -0.69788060457E+01  0.22713078013E+02  0.26555324101E+02  0.10570000000E+00 0.  1.
         13    1    1    2    0    0  0.11856914395E+02  0.69788060457E+01  0.18228383054E+02  0.22838022551E+02  0.10570000000E+00 0. -1.
<mgrwt>
<rscale>  0 0.27631494E+02</rscale>
<asrwt>0</asrwt>
<pdfrwt beam="2">  1        2 0.65014504E-03 0.27631494E+02</pdfrwt>
<pdfrwt beam="1">  1       -2 0.69488315E-02 0.27631494E+02</pdfrwt>
<totfact> 0.16682581E+06</totfact>
</mgrwt>
</event>
<event>
 4    1  0.3704929E-001  0.2786584E+02  0.7818608E-02  0.1622952E+00
         -2   -1    0    0    0  501 -0.00000000000E+00  0.00000000000E+00  0.37503299201E+02  0.37503299291E+02  0.26000000000E-02 0. -1.
          2   -1    0    0  501    0  0.00000000000E+00 -0.00000000000E+00 -0.51762430422E+01  0.51762436952E+01  0.26000000000E-02 0.  1.
        -13    1    1    2    0    0  0.13125312125E+02  0.11515954607E+01  0.92263329460E+01  0.16085284660E+02  0.10570000000E+00 0. -1.
         13    1    1    2    0    0 -0.13125312125E+02 -0.11515954607E+01  0.23100723213E+02  0.26594258326E+02  0.10570000000E+00 0.  1.
<mgrwt>
<rscale>  0 0.27865836E+02</rscale>
<asrwt>0</asrwt>
<pdfrwt beam="2">  1        2 0.79634515E-03 0.27865836E+02</pdfrwt>
<pdfrwt beam="1">  1       -2 0.57697383E-02 0.27865836E+02</pdfrwt>
<totfact> 0.16768087E+06</totfact>
</mgrwt>
</event>
<event>
 4    1  0.3704929E-001  0.4044346E+02  0.7818608E-02  0.1504973E+00
         -2   -1    0    0    0  501 -0.00000000000E+00  0.00000000000E+00  0.72491244999E+01  0.72491249662E+01  0.26000000000E-02 0.  1.
          2   -1    0    0  501    0  0.00000000000E+00 -0.00000000000E+00 -0.56409353499E+02  0.56409353559E+02  0.26000000000E-02 0. -1.
        -13    1    1    2    0    0  0.88933478359E+01  0.14261880406E+02 -0.42277380851E+02  0.45495944573E+02  0.10570000000E+00 0. -1.
         13    1    1    2    0    0 -0.88933478359E+01 -0.14261880406E+02 -0.68828481483E+01  0.18162533953E+02  0.10570000000E+00 0.  1.
<mgrwt>
<rscale>  0 0.40443464E+02</rscale>
<asrwt>0</asrwt>
<pdfrwt beam="2">  1        2 0.86783619E-02 0.40443464E+02</pdfrwt>
<pdfrwt beam="1">  1       -2 0.11152500E-02 0.40443464E+02</pdfrwt>
<totfact> 0.89734357E+05</totfact>
</mgrwt>
</event>
<event>
 4    1  0.3704929E-001  0.1105933E+03  0.7818608E-02  0.1259475E+00
         -2   -1    0    0    0  501 -0.00000000000E+00  0.00000000000E+00  0.38792855300E+03  0.38792855301E+03  0.26000000000E-02 0.  1.
          2   -1    0    0  501    0  0.00000000000E+00 -0.00000000000E+00 -0.78821727640E+01  0.78821731928E+01  0.26000000000E-02 0. -1.
        -13    1    1    2    0    0  0.23613144657E+01 -0.51471062983E+02  0.26185837541E+03  0.26687949729E+03  0.10570000000E+00 0.  1.
         13    1    1    2    0    0 -0.23613144657E+01  0.51471062983E+02  0.11818800483E+03  0.12893122891E+03  0.10570000000E+00 0. -1.
<mgrwt>
<rscale>  0 0.11059331E+03</rscale>
<asrwt>0</asrwt>
<pdfrwt beam="2">  1        2 0.12126423E-02 0.11059331E+03</pdfrwt>
<pdfrwt beam="1">  1       -2 0.59681300E-01 0.11059331E+03</pdfrwt>
<totfact> 0.26393943E+04</totfact>
</mgrwt>
</event>
<event>
 4    1  0.3704929E-001  0.2639340E+02  0.7818608E-02  0.1641759E+00
          2   -1    0    0  501    0  0.00000000000E+00  0.00000000000E+00  0.48265852127E+02  0.48265852197E+02  0.26000000000E-02 0.  1.
         -2   -1    0    0    0  501 -0.00000000000E+00 -0.00000000000E+00 -0.36081990916E+01  0.36082000284E+01  0.26000000000E-02 0. -1.
        -13    1    1    2    0    0  0.26066863842E+00 -0.11609520204E+02  0.34648838304E+02  0.36543153611E+02  0.10570000000E+00 0.  1.
         13    1    1    2    0    0 -0.26066863842E+00  0.11609520204E+02  0.10008814731E+02  0.15330898614E+02  0.10570000000E+00 0. -1.
<mgrwt>
<rscale>  0 0.26393395E+02</rscale>
<asrwt>0</asrwt>
<pdfrwt beam="1">  1        2 0.74255153E-02 0.26393395E+02</pdfrwt>
<pdfrwt beam="2">  1       -2 0.55510767E-03 0.26393395E+02</pdfrwt>
<totfact> 0.24458852E+06</totfact>
</mgrwt>
</event>
<event>
 4    1  0.3704929E-001  0.2489163E+02  0.7818608E-02  0.1662563E+00
         -2   -1    0    0    0  501 -0.00000000000E+00  0.00000000000E+00  0.24558235917E+01  0.24558249681E+01  0.26000000000E-02 0.  1.
          2   -1    0    0  501    0  0.00000000000E+00 -0.00000000000E+00 -0.63073850447E+02  0.63073850500E+02  0.26000000000E-02 0. -1.
        -13    1    1    2    0    0 -0.74105406565E+01  0.88976563213E+01 -0.18301728998E+02  0.21657535817E+02  0.10570000000E+00 0.  1.
         13    1    1    2    0    0  0.74105406565E+01 -0.88976563213E+01 -0.42316297857E+02  0.43872139652E+02  0.10570000000E+00 0. -1.
<mgrwt>
<rscale>  0 0.24891629E+02</rscale>
<asrwt>0</asrwt>
<pdfrwt beam="2">  1        2 0.97036682E-02 0.24891629E+02</pdfrwt>
<pdfrwt beam="1">  1       -2 0.37781917E-03 0.24891629E+02</pdfrwt>
<totfact> 0.29314181E+06</totfact>
</mgrwt>
</event>
<event>
 4    1  0.3704929E-001  0.2104214E+02  0.7818608E-02  0.1725364E+00
         -2   -1    0    0    0  501 -0.00000000000E+00  0.00000000000E+00  0.36028615453E+02  0.36028615547E+02  0.26000000000E-02 0. -1.
          2   -1    0    0  501    0  0.00000000000E+00 -0.00000000000E+00 -0.30723606941E+01  0.30723617942E+01  0.26000000000E-02 0.  1.
        -13    1    1    2    0    0 -0.35569176317E+01  0.94797796161E+01  0.21787530219E+02  0.24025518311E+02  0.10570000000E+00 0. -1.
         13    1    1    2    0    0  0.35569176317E+01 -0.94797796161E+01  0.11168724540E+02  0.15075459030E+02  0.10570000000E+00 0.  1.
<mgrwt>
<rscale>  0 0.21042141E+02</rscale>
<asrwt>0</asrwt>
<pdfrwt beam="2">  1        2 0.47267097E-03 0.21042141E+02</pdfrwt>
<pdfrwt beam="1">  1       -2 0.55428640E-02 0.21042141E+02</pdfrwt>
<totfact> 0.31628867E+06</totfact>
</mgrwt>
</event>
<event>
 4    1  0.3704929E-001  0.3359510E+02  0.7818608E-02  0.1561442E+00
         -2   -1    0    0    0  501 -0.00000000000E+00  0.00000000000E+00  0.43492517915E+01  0.43492525686E+01  0.26000000000E-02 0. -1.
          2   -1    0    0  501    0  0.00000000000E+00 -0.00000000000E+00 -0.64874998179E+02  0.64874998231E+02  0.26000000000E-02 0.  1.
        -13    1    1    2    0    0  0.11700415217E+02 -0.85813411657E+01 -0.47699453826E+02  0.49857679451E+02  0.10570000000E+00 0.  1.
         13    1    1    2    0    0 -0.11700415217E+02  0.85813411657E+01 -0.12826292561E+02  0.19366571349E+02  0.10570000000E+00 0. -1.
<mgrwt>
<rscale>  0 0.33595103E+02</rscale>
<asrwt>0</asrwt>
<pdfrwt beam="2">  1        2 0.99807684E-02 0.33595103E+02</pdfrwt>
<pdfrwt beam="1">  1       -2 0.66911577E-03 0.33595103E+02</pdfrwt>
<totfact> 0.14519520E+06</totfact>
</mgrwt>
</event>
<event>
 4    1  0.3704929E-001  0.3790474E+02  0.7818608E-02  0.1524222E+00
          2   -1    0    0  501    0  0.00000000000E+00  0.00000000000E+00  0.46228743850E+02  0.46228743923E+02  0.26000000000E-02 0.  1.
         -2   -1    0    0    0  501 -0.00000000000E+00 -0.00000000000E+00 -0.77698894430E+01  0.77698898781E+01  0.26000000000E-02 0. -1.
        -13    1    1    2    0    0 -0.98812238021E+00 -0.15919401111E+02  0.46472284862E+01  0.16613597524E+02  0.10570000000E+00 0. -1.
         13    1    1    2    0    0  0.98812238021E+00  0.15919401111E+02  0.33811625920E+02  0.37385036277E+02  0.10570000000E+00 0.  1.
<mgrwt>
<rscale>  0 0.37904735E+02</rscale>
<asrwt>0</asrwt>
<pdfrwt beam="1">  1        2 0.71121145E-02 0.37904735E+02</pdfrwt>
<pdfrwt beam="2">  1       -2 0.11953676E-02 0.37904735E+02</pdfrwt>
<totfact> 0.10173149E+06</totfact>
</mgrwt>
</event>
<event>
 4    1  0.3704929E-001  0.4286234E+02  0.7818608E-02  0.1488146E+00
          2   -1    0    0  501    0  0.00000000000E+00  0.00000000000E+00  0.60251396355E+01  0.60251401965E+01  0.26000000000E-02 0.  1.
         -2   -1    0    0    0  501 -0.00000000000E+00 -0.00000000000E+00 -0.76229771992E+02  0.76229772036E+02  0.26000000000E-02 0. -1.
        -13    1    1    2    0    0  0.97062940088E+01 -0.18403509812E+02 -0.25245324189E+02  0.32714505693E+02  0.10570000000E+00 0. -1.
         13    1    1    2    0    0 -0.97062940088E+01  0.18403509812E+02 -0.44959308167E+02  0.49540406540E+02  0.10570000000E+00 0.  1.
<mgrwt>
<rscale>  0 0.42862340E+02</rscale>
<asrwt>0</asrwt>
<pdfrwt beam="1">  1        2 0.92694466E-03 0.42862340E+02</pdfrwt>
<pdfrwt beam="2">  1       -2 0.11727657E-01 0.42862340E+02</pdfrwt>
<totfact> 0.54534984E+05</totfact>
</mgrwt>
</event>
<event>
 4    1  0.3704929E-001  0.2802050E+02  0.7818608E-02  0.1621060E+00
         -2   -1    0    0    0  501 -0.00000000000E+00  0.00000000000E+00  0.41123183764E+02  0.41123183846E+02  0.26000000000E-02 0.  1.
          2   -1    0    0  501    0  0.00000000000E+00 -0.00000000000E+00 -0.47731478637E+01  0.47731485719E+01  0.26000000000E-02 0. -1.
        -13    1    1    2    0    0  0.39313736877E+01 -0.92504484104E+01  0.21892592494E+01  0.10287396338E+02  0.10570000000E+00 0. -1.
         13    1    1    2    0    0 -0.39313736877E+01  0.92504484104E+01  0.34160776651E+02  0.35608936080E+02  0.10570000000E+00 0.  1.
<mgrwt>
<rscale>  0 0.28020496E+02</rscale>
<asrwt>0</asrwt>
<pdfrwt beam="2">  1        2 0.73433049E-03 0.28020496E+02</pdfrwt>
<pdfrwt beam="1">  1       -2 0.63266438E-02 0.28020496E+02</pdfrwt>
<totfact> 0.16363926E+06</totfact>
</mgrwt>
</event>
<event>
 4    1  0.3704929E-001  0.2224253E+02  0.7818608E-02  0.1704091E+00
         -2   -1    0    0    0  501 -0.00000000000E+00  0.00000000000E+00  0.99342877764E+02  0.99342877798E+02  0.26000000000E-02 0. -1.
          2   -1    0    0  501    0  0.00000000000E+00 -0.00000000000E+00 -0.12450054980E+01  0.12450082129E+01  0.26000000000E-02 0.  1.
        -13    1    1    2    0    0 -0.73990374339E+01  0.82900539725E+01  0.47023234115E+02  0.48318386448E+02  0.10570000000E+00 0. -1.
         13    1    1    2    0    0  0.73990374339E+01 -0.82900539725E+01  0.51074638152E+02  0.52269499564E+02  0.10570000000E+00 0.  1.
<mgrwt>
<rscale>  0 0.22242533E+02</rscale>
<asrwt>0</asrwt>
<pdfrwt beam="2">  1        2 0.19153953E-03 0.22242533E+02</pdfrwt>
<pdfrwt beam="1">  1       -2 0.15283519E-01 0.22242533E+02</pdfrwt>
<totfact> 0.23567114E+06</totfact>
</mgrwt>
</event>
<event>
 4    1  0.3704929E-001  0.2169299E+02  0.7818608E-02  0.1713616E+00
         -2   -1    0    0    0  501 -0.00000000000E+00  0.00000000000E+00  0.40779917678E+01  0.40779925967E+01  0.26000000000E-02 0.  1.
          2   -1    0    0  501    0  0.00000000000E+00 -0.00000000000E+00 -0.28849117453E+02  0.28849117570E+02  0.26000000000E-02 0. -1.
        -13    1    1    2    0    0  0.23190985485E+00  0.10723792609E+02 -0.14824469368E+02  0.18298348959E+02  0.10570000000E+00 0.  1.
         13    1    1    2    0    0 -0.23190985485E+00 -0.10723792609E+02 -0.99466563174E+01  0.14628761208E+02  0.10570000000E+00 0. -1.
<mgrwt>
<rscale>  0 0.21692992E+02</rscale>
<asrwt>0</asrwt>
<pdfrwt beam="2">  1        2 0.44383257E-02 0.21692992E+02</pdfrwt>
<pdfrwt beam="1">  1       -2 0.62738344E-03 0.21692992E+02</pdfrwt>
<totfact> 0.35938480E+06</totfact>
</mgrwt>
</event>
<event>
 4    1  0.3704929E-001  0.2891080E+02  0.7818608E-02  0.1610450E+00
          2   -1    0    0  501    0  0.00000000000E+00  0.00000000000E+00  0.18564099219E+02  0.18564099401E+02  0.26000000000E-02 0. -1.
         -2   -1    0    0    0  501 -0.00000000000E+00 -0.00000000000E+00 -0.11256058086E+02  0.11256058386E+02  0.26000000000E-02 0.  1.
        -13    1    1    2    0    0  0.96252797150E+01 -0.29937278982E+01  0.14340350981E+02  0.17528983287E+02  0.10570000000E+00 0. -1.
         13    1    1    2    0    0 -0.96252797150E+01  0.29937278982E+01 -0.70323098474E+01  0.12291174500E+02  0.10570000000E+00 0.  1.
<mgrwt>
<rscale>  0 0.28910800E+02</rscale>
<asrwt>0</asrwt>
<pdfrwt beam="1">  1        2 0.28560153E-02 0.28910800E+02</pdfrwt>
<pdfrwt beam="2">  1       -2 0.17317013E-02 0.28910800E+02</pdfrwt>
<totfact> 0.17506768E+06</totfact>
</mgrwt>
</event>
<event>
 4    1  0.3704929E-001  0.3092886E+02  0.7818608E-02  0.1588043E+00
          2   -1    0    0  501    0  0.00000000000E+00  0.00000000000E+00  0.12218025560E+03  0.12218025563E+03  0.26000000000E-02 0.  1.
         -2   -1    0    0    0  501 -0.00000000000E+00 -0.00000000000E+00 -0.19573415639E+01  0.19573432907E+01  0.26000000000E-02 0. -1.
        -13    1    1    2    0    0 -0.98577694364E+01 -0.10344543131E+02  0.36382594625E+02  0.39088227832E+02  0.10570000000E+00 0. -1.
         13    1    1    2    0    0  0.98577694364E+01  0.10344543131E+02  0.83840319416E+02  0.85049371092E+02  0.10570000000E+00 0.  1.
<mgrwt>
<rscale>  0 0.30928860E+02</rscale>
<asrwt>0</asrwt>
<pdfrwt beam="1">  1        2 0.18796963E-01 0.30928860E+02</pdfrwt>
<pdfrwt beam="2">  1       -2 0.30112961E-03 0.30928860E+02</pdfrwt>
<totfact> 0.20452044E+06</totfact>
</mgrwt>
</event>
<event>
 4    1  0.3704929E-001  0.2395803E+02  0.7818608E-02  0.1676435E+00
         -2   -1    0    0    0  501 -0.00000000000E+00  0.00000000000E+00  0.82720777619E+01  0.82720781705E+01  0.26000000000E-02 0.  1.
          2   -1    0    0  501    0  0.00000000000E+00 -0.00000000000E+00 -0.17347135011E+02  0.17347135206E+02  0.26000000000E-02 0. -1.
        -13    1    1    2    0    0 -0.49338100295E+01 -0.10104064827E+02 -0.12192058809E+00  0.11245472180E+02  0.10570000000E+00 0.  1.
         13    1    1    2    0    0  0.49338100295E+01  0.10104064827E+02 -0.89531366608E+01  0.14373741196E+02  0.10570000000E+00 0. -1.
<mgrwt>
<rscale>  0 0.23958035E+02</rscale>
<asrwt>0</asrwt>
<pdfrwt beam="2">  1        2 0.26687901E-02 0.23958035E+02</pdfrwt>
<pdfrwt beam="1">  1       -2 0.12726274E-02 0.23958035E+02</pdfrwt>
<totfact> 0.27181244E+06</totfact>
</mgrwt>
</event>
<event>
 4    1  0.3704929E-001  0.2250044E+02  0.7818608E-02  0.1699738E+00
         -2   -1    0    0    0  501 -0.00000000000E+00  0.00000000000E+00  0.92298162435E+02  0.92298162471E+02  0.26000000000E-02 0.  1.
          2   -1    0    0  501    0  0.00000000000E+00 -0.00000000000E+00 -0.13712879929E+01  0.13712904577E+01  0.26000000000E-02 0. -1.
        -13    1    1    2    0    0 -0.10306080225E+02  0.40429037121E+01  0.53785227330E+02  0.54912860164E+02  0.10570000000E+00 0. -1.
         13    1    1    2    0    0  0.10306080225E+02 -0.40429037121E+01  0.37141647112E+02  0.38756592764E+02  0.10570000000E+00 0.  1.
<mgrwt>
<rscale>  0 0.22500443E+02</rscale>
<asrwt>0</asrwt>
<pdfrwt beam="2">  1        2 0.21096764E-03 0.22500443E+02</pdfrwt>
<pdfrwt beam="1">  1       -2 0.14199713E-01 0.22500443E+02</pdfrwt>
<totfact> 0.23372019E+06</totfact>
</mgrwt>
</event>
<event>
 4    1  0.3704929E-001  0.6083449E+02  0.7818608E-02  0.1394363E+00
         -2   -1    0    0    0  501 -0.00000000000E+00  0.00000000000E+00  0.79886258941E+02  0.79886258983E+02  0.26000000000E-02 0.  1.
          2   -1    0    0  501    0  0.00000000000E+00 -0.00000000000E+00 -0.11581576956E+02  0.11581577248E+02  0.26000000000E-02 0. -1.
        -13    1    1    2    0    0 -0.32303428459E+01 -0.29808819121E+02  0.26456725640E+02  0.39987126883E+02  0.10570000000E+00 0. -1.
         13    1    1    2    0    0  0.32303428459E+01  0.29808819121E+02  0.41847956344E+02  0.51480709348E+02  0.10570000000E+00 0.  1.
<mgrwt>
<rscale>  0 0.60834493E+02</rscale>
<asrwt>0</asrwt>
<pdfrwt beam="2">  1        2 0.17817811E-02 0.60834493E+02</pdfrwt>
<pdfrwt beam="1">  1       -2 0.12290194E-01 0.60834493E+02</pdfrwt>
<totfact> 0.23047097E+05</totfact>
</mgrwt>
</event>
<event>
 4    1  0.3704929E-001  0.3446694E+02  0.7818608E-02  0.1553386E+00
          2   -1    0    0  501    0  0.00000000000E+00  0.00000000000E+00  0.19311852893E+02  0.19311853069E+02  0.26000000000E-02 0.  1.
         -2   -1    0    0    0  501 -0.00000000000E+00 -0.00000000000E+00 -0.15378764304E+02  0.15378764524E+02  0.26000000000E-02 0. -1.
        -13    1    1    2    0    0 -0.12726456003E+02  0.47161729061E+01  0.12655081106E+02  0.18557133926E+02  0.10570000000E+00 0.  1.
         13    1    1    2    0    0  0.12726456003E+02 -0.47161729061E+01 -0.87219925165E+01  0.16133483666E+02  0.10570000000E+00 0. -1.
<mgrwt>
<rscale>  0 0.34466937E+02</rscale>
<asrwt>0</asrwt>
<pdfrwt beam="1">  1        2 0.29710543E-02 0.34466937E+02</pdfrwt>
<pdfrwt beam="2">  1       -2 0.23659638E-02 0.34466937E+02</pdfrwt>
<totfact> 0.11426153E+06</totfact>
</mgrwt>
</event>
<event>
 4    1  0.3704929E-001  0.1319655E+03  0.7818608E-02  0.1224568E+00
          2   -1    0    0  501    0  0.00000000000E+00  0.00000000000E+00  0.31710112672E+02  0.31710112778E+02  0.26000000000E-02 0.  1.
         -2   -1    0    0    0  501 -0.00000000000E+00 -0.00000000000E+00 -0.13729761924E+03  0.13729761927E+03  0.26000000000E-02 0. -1.
        -13    1    1    2    0    0  0.63397201257E+02 -0.10440303499E+02 -0.72025819910E+02  0.96519091223E+02  0.10570000000E+00 0. -1.
         13    1    1    2    0    0 -0.63397201257E+02  0.10440303499E+02 -0.33561686662E+02  0.72488640824E+02  0.10570000000E+00 0.  1.
<mgrwt>
<rscale>  0 0.13196550E+03</rscale>
<asrwt>0</asrwt>
<pdfrwt beam="1">  1        2 0.48784790E-02 0.13196550E+03</pdfrwt>
<pdfrwt beam="2">  1       -2 0.21122710E-01 0.13196550E+03</pdfrwt>
<totfact> 0.28431316E+04</totfact>
</mgrwt>
</event>
<event>
 4    1  0.3704929E-001  0.2183214E+02  0.7818608E-02  0.1711171E+00
         -2   -1    0    0    0  501 -0.00000000000E+00  0.00000000000E+00  0.10066034476E+02  0.10066034812E+02  0.26000000000E-02 0. -1.
          2   -1    0    0  501    0  0.00000000000E+00 -0.00000000000E+00 -0.11837885930E+02  0.11837886215E+02  0.26000000000E-02 0.  1.
        -13    1    1    2    0    0 -0.31038380688E-01 -0.10589619248E+02 -0.35419687680E+01  0.11166813083E+02  0.10570000000E+00 0. -1.
         13    1    1    2    0    0  0.31038380688E-01  0.10589619248E+02  0.17701173148E+01  0.10737107944E+02  0.10570000000E+00 0.  1.
<mgrwt>
<rscale>  0 0.21832139E+02</rscale>
<asrwt>0</asrwt>
<pdfrwt beam="2">  1        2 0.18212133E-02 0.21832139E+02</pdfrwt>
<pdfrwt beam="1">  1       -2 0.15486207E-02 0.21832139E+02</pdfrwt>
<totfact> 0.32666917E+06</totfact>
</mgrwt>
</event>
<event>
 4    1  0.3704929E-001  0.2580276E+02  0.7818608E-02  0.1649732E+00
          2   -1    0    0  501    0  0.00000000000E+00  0.00000000000E+00  0.45576645339E+02  0.45576645413E+02  0.26000000000E-02 0. -1.
         -2   -1    0    0    0  501 -0.00000000000E+00 -0.00000000000E+00 -0.36519938617E+01  0.36519947872E+01  0.26000000000E-02 0.  1.
        -13    1    1    2    0    0 -0.31660098060E+01  0.12293729468E+02  0.25344262349E+02  0.28346114528E+02  0.10570000000E+00 0.  1.
         13    1    1    2    0    0  0.31660098060E+01 -0.12293729468E+02  0.16580389128E+02  0.20882525672E+02  0.10570000000E+00 0. -1.
<mgrwt>
<rscale>  0 0.25802764E+02</rscale>
<asrwt>0</asrwt>
<pdfrwt beam="1">  1        2 0.70117912E-02 0.25802764E+02</pdfrwt>
<pdfrwt beam="2">  1       -2 0.56184532E-03 0.25802764E+02</pdfrwt>
<totfact> 0.25560294E+06</totfact>
</mgrwt>
</event>
<event>
 4    1  0.3704929E-001  0.2079497E+02  0.7818608E-02  0.1729966E+00
          2   -1    0    0  501    0  0.00000000000E+00  0.00000000000E+00  0.92891936050E+02  0.92891936087E+02  0.26000000000E-02 0. -1.
         -2   -1    0    0    0  501 -0.00000000000E+00 -0.00000000000E+00 -0.11637992032E+01  0.11638021075E+01  0.26000000000E-02 0.  1.
        -13    1    1    2    0    0  0.10197511240E+02 -0.13531952260E+01  0.52687892530E+02  0.53682823739E+02  0.10570000000E+00 0.  1.
         13    1    1    2    0    0 -0.10197511240E+02  0.13531952260E+01  0.39040244317E+02  0.40372914455E+02  0.10570000000E+00 0. -1.
<mgrwt>
<rscale>  0 0.20794970E+02</rscale>
<asrwt>0</asrwt>
<pdfrwt beam="1">  1        2 0.14291064E-01 0.20794970E+02</pdfrwt>
<pdfrwt beam="2">  1       -2 0.17904630E-03 0.20794970E+02</pdfrwt>
<totfact> 0.47602904E+06</totfact>
</mgrwt>
</event>
<event>
 4    1  0.3704929E-001  0.2450940E+02  0.7818608E-02  0.1668150E+00
         -2   -1    0    0    0  501 -0.00000000000E+00  0.00000000000E+00  0.26833590198E+01  0.26833602794E+01  0.26000000000E-02 0.  1.
          2   -1    0    0  501    0  0.00000000000E+00 -0.00000000000E+00 -0.55966302721E+02  0.55966302781E+02  0.26000000000E-02 0. -1.
        -13    1    1    2    0    0  0.44373780234E+01 -0.10766043335E+02 -0.35775045490E+02  0.37622640326E+02  0.10570000000E+00 0. -1.
         13    1    1    2    0    0 -0.44373780234E+01  0.10766043335E+02 -0.17507898211E+02  0.21027022735E+02  0.10570000000E+00 0.  1.
<mgrwt>
<rscale>  0 0.24509404E+02</rscale>
<asrwt>0</asrwt>
<pdfrwt beam="2">  1        2 0.86101996E-02 0.24509404E+02</pdfrwt>
<pdfrwt beam="1">  1       -2 0.41282461E-03 0.24509404E+02</pdfrwt>
<totfact> 0.29751675E+06</totfact>
</mgrwt>
</event>
<event>
 4    1  0.3704929E-001  0.2620353E+02  0.7818608E-02  0.1644294E+00
          2   -1    0    0  501    0  0.00000000000E+00  0.00000000000E+00  0.20991812621E+01  0.20991828723E+01  0.26000000000E-02 0. -1.
         -2   -1    0    0    0  501 -0.00000000000E+00 -0.00000000000E+00 -0.81772920872E+02  0.81772920914E+02  0.26000000000E-02 0.  1.
        -13    1    1    2    0    0 -0.45059856340E+01  0.12230531999E+02 -0.44077481605E+02  0.45964392486E+02  0.10570000000E+00 0. -1.
         13    1    1    2    0    0  0.45059856340E+01 -0.12230531999E+02 -0.35596258005E+02  0.37907711300E+02  0.10570000000E+00 0.  1.
<mgrwt>
<rscale>  0 0.26203530E+02</rscale>
<asrwt>0</asrwt>
<pdfrwt beam="1">  1        2 0.32295115E-03 0.26203530E+02</pdfrwt>
<pdfrwt beam="2">  1       -2 0.12580447E-01 0.26203530E+02</pdfrwt>
<totfact> 0.17028944E+06</totfact>
</mgrwt>
</event>
<event>
 4    1  0.3704929E-001  0.2588083E+02  0.7818608E-02  0.1648663E+00
          2   -1    0    0  501    0  0.00000000000E+00  0.00000000000E+00  0.44935020367E+01  0.44935027889E+01  0.26000000000E-02 0. -1.
         -2   -1    0    0    0  501 -0.00000000000E+00 -0.00000000000E+00 -0.37265869092E+02  0.37265869183E+02  0.26000000000E-02 0.  1.
        -13    1    1    2    0    0 -0.13129921087E+01 -0.12856041967E+02 -0.17458104351E+02  0.21720919487E+02  0.10570000000E+00 0.  1.
         13    1    1    2    0    0  0.13129921087E+01  0.12856041967E+02 -0.15314262704E+02  0.20038452485E+02  0.10570000000E+00 0. -1.
<mgrwt>
<rscale>  0 0.25880825E+02</rscale>
<asrwt>0</asrwt>
<pdfrwt beam="1">  1        2 0.69130810E-03 0.25880825E+02</pdfrwt>
<pdfrwt beam="2">  1       -2 0.57332105E-02 0.25880825E+02</pdfrwt>
<totfact> 0.19847993E+06</totfact>
</mgrwt>
</event>
<event>
 4    1  0.3704929E-001  0.5142006E+02  0.7818608E-02  0.1437829E+00
          2   -1    0    0  501    0  0.00000000000E+00  0.00000000000E+00  0.66299255381E+02  0.66299255432E+02  0.26000000000E-02 0. -1.
         -2   -1    0    0    0  501 -0.00000000000E+00 -0.00000000000E+00 -0.99700327123E+01  0.99700330513E+01  0.26000000000E-02 0.  1.
        -13    1    1    2    0    0 -0.14795845130E+02  0.47568246143E+01  0.58542477654E+02  0.60570432357E+02  0.10570000000E+00 0. -1.
         13    1    1    2    0    0  0.14795845130E+02 -0.47568246143E+01 -0.22132549860E+01  0.15698856126E+02  0.10570000000E+00 0.  1.
<mgrwt>
<rscale>  0 0.51420065E+02</rscale>
<asrwt>0</asrwt>
<pdfrwt beam="1">  1        2 0.10199885E-01 0.51420065E+02</pdfrwt>
<pdfrwt beam="2">  1       -2 0.15338512E-02 0.51420065E+02</pdfrwt>
<totfact> 0.50557240E+05</totfact>
</mgrwt>
</event>
<event>
 4    1  0.3704929E-001  0.6158650E+02  0.7818608E-02  0.1391292E+00
         -2   -1    0    0    0  501 -0.00000000000E+00  0.00000000000E+00  0.11428055729E+03  0.11428055732E+03  0.26000000000E-02 0. -1.
          2   -1    0    0  501    0  0.00000000000E+00 -0.00000000000E+00 -0.82973369952E+01  0.82973374026E+01  0.26000000000E-02 0.  1.
        -13    1    1    2    0    0  0.15885924776E+02 -0.16275140872E+02  0.94310657972E+02  0.97014195848E+02  0.10570000000E+00 0. -1.
         13    1    1    2    0    0 -0.15885924776E+02  0.16275140872E+02  0.11672562320E+02  0.25563698871E+02  0.10570000000E+00 0.  1.
<mgrwt>
<rscale>  0 0.61586503E+02</rscale>
<asrwt>0</asrwt>
<pdfrwt beam="2">  1        2 0.12765134E-02 0.61586503E+02</pdfrwt>
<pdfrwt beam="1">  1       -2 0.17581624E-01 0.61586503E+02</pdfrwt>
<totfact> 0.20397679E+05</totfact>
</mgrwt>
</event>
<event>
 4    1  0.3704929E-001  0.2777493E+02  0.7818608E-02  0.1624072E+00
         -2   -1    0    0    0  501 -0.00000000000E+00  0.00000000000E+00  0.51693695702E+01  0.51693702240E+01  0.26000000000E-02 0.  1.
          2   -1    0    0  501    0  0.00000000000E+00 -0.00000000000E+00 -0.37308540956E+02  0.37308541047E+02  0.26000000000E-02 0. -1.
        -13    1    1    2    0    0 -0.88235150465E+01 -0.82439144386E+01 -0.26558146034E+02  0.29174695137E+02  0.10570000000E+00 0. -1.
         13    1    1    2    0    0  0.88235150465E+01  0.82439144386E+01 -0.55810253517E+01  0.13303216134E+02  0.10570000000E+00 0.  1.
<mgrwt>
<rscale>  0 0.27774928E+02</rscale>
<asrwt>0</asrwt>
<pdfrwt beam="2">  1        2 0.57397754E-02 0.27774928E+02</pdfrwt>
<pdfrwt beam="1">  1       -2 0.79528771E-03 0.27774928E+02</pdfrwt>
<totfact> 0.20896434E+06</totfact>
</mgrwt>
</event>
<event>
 4    1  0.3704929E-001  0.6879950E+02  0.7818608E-02  0.1364224E+00
         -2   -1    0    0    0  501 -0.00000000000E+00  0.00000000000E+00  0.56059916673E+01  0.56059922703E+01  0.26000000000E-02 0.  1.
          2   -1    0    0  501    0  0.00000000000E+00 -0.00000000000E+00 -0.21108535948E+03  0.21108535949E+03  0.26000000000E-02 0. -1.
        -13    1    1    2    0    0  0.13112093599E+02  0.27735630816E+02 -0.15175017593E+03  0.15482028059E+03  0.10570000000E+00 0. -1.
         13    1    1    2    0    0 -0.13112093599E+02 -0.27735630816E+02 -0.53729191877E+02  0.61871071168E+02  0.10570000000E+00 0.  1.
<mgrwt>
<rscale>  0 0.68799501E+02</rscale>
<asrwt>0</asrwt>
<pdfrwt beam="2">  1        2 0.32474665E-01 0.68799501E+02</pdfrwt>
<pdfrwt beam="1">  1       -2 0.86246047E-03 0.68799501E+02</pdfrwt>
<totfact> 0.33206164E+05</totfact>
</mgrwt>
</event>
<event>
 4    1  0.3704929E-001  0.2360697E+02  0.7818608E-02  0.1681856E+00
         -2   -1    0    0    0  501 -0.00000000000E+00  0.00000000000E+00  0.88805638038E+01  0.88805641844E+01  0.26000000000E-02 0.  1.
          2   -1    0    0  501    0  0.00000000000E+00 -0.00000000000E+00 -0.15688449905E+02  0.15688450121E+02  0.26000000000E-02 0. -1.
        -13    1    1    2    0    0 -0.30152419067E+01  0.11273902966E+02 -0.15660368960E+01  0.11775237403E+02  0.10570000000E+00 0. -1.
         13    1    1    2    0    0  0.30152419067E+01 -0.11273902966E+02 -0.52418492054E+01  0.12793776902E+02  0.10570000000E+00 0.  1.
<mgrwt>
<rscale>  0 0.23606973E+02</rscale>
<asrwt>0</asrwt>
<pdfrwt beam="2">  1        2 0.24136077E-02 0.23606973E+02</pdfrwt>
<pdfrwt beam="1">  1       -2 0.13662406E-02 0.23606973E+02</pdfrwt>
<totfact> 0.27882801E+06</totfact>
</mgrwt>
</event>
<event>
 4    1  0.3704929E-001  0.3927789E+02  0.7818608E-02  0.1513594E+00
         -2   -1    0    0    0  501 -0.00000000000E+00  0.00000000000E+00  0.63696386362E+01  0.63696391668E+01  0.26000000000E-02 0. -1.
          2   -1    0    0  501    0  0.00000000000E+00 -0.00000000000E+00 -0.60551033303E+02  0.60551033359E+02  0.26000000000E-02 0.  1.
        -13    1    1    2    0    0  0.16830315035E+02 -0.73816411235E+00 -0.98941629658E+01  0.19537400639E+02  0.10570000000E+00 0. -1.
         13    1    1    2    0    0 -0.16830315035E+02  0.73816411235E+00 -0.44287231701E+02  0.47383271886E+02  0.10570000000E+00 0.  1.
<mgrwt>
<rscale>  0 0.39277893E+02</rscale>
<asrwt>0</asrwt>
<pdfrwt beam="2">  1        2 0.93155433E-02 0.39277893E+02</pdfrwt>
<pdfrwt beam="1">  1       -2 0.97994449E-03 0.39277893E+02</pdfrwt>
<totfact> 0.97793840E+05</totfact>
</mgrwt>
</event>
<event>
 4    1  0.3704929E-001  0.3029125E+02  0.7818608E-02  0.1594891E+00
         -2   -1    0    0    0  501 -0.00000000000E+00  0.00000000000E+00  0.70900934923E+01  0.70900939690E+01  0.26000000000E-02 0.  1.
          2   -1    0    0  501    0  0.00000000000E+00 -0.00000000000E+00 -0.32353582395E+02  0.32353582500E+02  0.26000000000E-02 0. -1.
        -13    1    1    2    0    0  0.10330772581E+01  0.10450861985E+02  0.15784388553E+01  0.10620282791E+02  0.10570000000E+00 0.  1.
         13    1    1    2    0    0 -0.10330772581E+01 -0.10450861985E+02 -0.26841927758E+02  0.28823393678E+02  0.10570000000E+00 0. -1.
<mgrwt>
<rscale>  0 0.30291249E+02</rscale>
<asrwt>0</asrwt>
<pdfrwt beam="2">  1        2 0.49774742E-02 0.30291249E+02</pdfrwt>
<pdfrwt beam="1">  1       -2 0.10907837E-02 0.30291249E+02</pdfrwt>
<totfact> 0.16675679E+06</totfact>
</mgrwt>
</event>
<event>
 4    1  0.3704929E-001  0.3017573E+02  0.7818608E-02  0.1596154E+00
         -2   -1    0    0    0  501 -0.00000000000E+00  0.00000000000E+00  0.95409067832E+01  0.95409071374E+01  0.26000000000E-02 0. -1.
          2   -1    0    0  501    0  0.00000000000E+00 -0.00000000000E+00 -0.23859746347E+02  0.23859746488E+02  0.26000000000E-02 0.  1.
        -13    1    1    2    0    0 -0.14536609020E+02  0.41026540137E+00 -0.27110722592E+01  0.14793322980E+02  0.10570000000E+00 0. -1.
         13    1    1    2    0    0  0.14536609020E+02 -0.41026540137E+00 -0.11607767304E+02  0.18607330646E+02  0.10570000000E+00 0.  1.
<mgrwt>
<rscale>  0 0.30175727E+02</rscale>
<asrwt>0</asrwt>
<pdfrwt beam="2">  1        2 0.36707302E-02 0.30175727E+02</pdfrwt>
<pdfrwt beam="1">  1       -2 0.14678319E-02 0.30175727E+02</pdfrwt>
<totfact> 0.16220261E+06</totfact>
</mgrwt>
</event>
<event>
 4    1  0.3704929E-001  0.2863860E+02  0.7818608E-02  0.1613644E+00
         -2   -1    0    0    0  501 -0.00000000000E+00  0.00000000000E+00  0.15375525138E+02  0.15375525357E+02  0.26000000000E-02 0. -1.
          2   -1    0    0  501    0  0.00000000000E+00 -0.00000000000E+00 -0.13335632530E+02  0.13335632783E+02  0.26000000000E-02 0.  1.
        -13    1    1    2    0    0  0.13083380313E+02  0.42057657546E+01  0.50510639993E+01  0.14641985044E+02  0.10570000000E+00 0. -1.
         13    1    1    2    0    0 -0.13083380313E+02 -0.42057657546E+01 -0.30111713914E+01  0.14069173097E+02  0.10570000000E+00 0.  1.
<mgrwt>
<rscale>  0 0.28638601E+02</rscale>
<asrwt>0</asrwt>
<pdfrwt beam="2">  1        2 0.20516358E-02 0.28638601E+02</pdfrwt>
<pdfrwt beam="1">  1       -2 0.23654654E-02 0.28638601E+02</pdfrwt>
<totfact> 0.17328517E+06</totfact>
</mgrwt>
</event>
<event>
 4    1  0.3704929E-001  0.2574129E+02  0.7818608E-02  0.1650577E+00
         -2   -1    0    0    0  501 -0.00000000000E+00  0.00000000000E+00  0.41512936553E+01  0.41512944695E+01  0.26000000000E-02 0.  1.
          2   -1    0    0  501    0  0.00000000000E+00 -0.00000000000E+00 -0.39904059302E+02  0.39904059387E+02  0.26000000000E-02 0. -1.
        -13    1    1    2    0    0 -0.63868282449E+01  0.11113739835E+02 -0.15898526231E+02  0.20422563428E+02  0.10570000000E+00 0.  1.
         13    1    1    2    0    0  0.63868282449E+01 -0.11113739835E+02 -0.19854239416E+02  0.23632790428E+02  0.10570000000E+00 0. -1.
<mgrwt>
<rscale>  0 0.25741289E+02</rscale>
<asrwt>0</asrwt>
<pdfrwt beam="2">  1        2 0.61390859E-02 0.25741289E+02</pdfrwt>
<pdfrwt beam="1">  1       -2 0.63866066E-03 0.25741289E+02</pdfrwt>
<totfact> 0.25214790E+06</totfact>
</mgrwt>
</event>
<event>
 4    1  0.3704929E-001  0.4922428E+02  0.7818608E-02  0.1449571E+00
          2   -1    0    0  501    0  0.00000000000E+00  0.00000000000E+00  0.13497902066E+02  0.13497902317E+02  0.26000000000E-02 0.  1.
         -2   -1    0    0    0  501 -0.00000000000E+00 -0.00000000000E+00 -0.44877896120E+02  0.44877896195E+02  0.26000000000E-02 0. -1.
        -13    1    1    2    0    0 -0.18220665718E+02 -0.13579295907E+02 -0.26900269224E+02  0.35213997123E+02  0.10570000000E+00 0. -1.
         13    1    1    2    0    0  0.18220665718E+02  0.13579295907E+02 -0.44797248291E+01  0.23161801389E+02  0.10570000000E+00 0.  1.
<mgrwt>
<rscale>  0 0.49224281E+02</rscale>
<asrwt>0</asrwt>
<pdfrwt beam="1">  1        2 0.20766004E-02 0.49224281E+02</pdfrwt>
<pdfrwt beam="2">  1       -2 0.69042917E-02 0.49224281E+02</pdfrwt>
<totfact> 0.43113005E+05</totfact>
</mgrwt>
</event>
<event>
 4    1  0.3704929E-001  0.3449658E+02  0.7818608E-02  0.1553117E+00
          2   -1    0    0  501    0  0.00000000000E+00  0.00000000000E+00  0.60353312246E+02  0.60353312302E+02  0.26000000000E-02 0. -1.
         -2   -1    0    0    0  501 -0.00000000000E+00 -0.00000000000E+00 -0.49293657662E+01  0.49293664519E+01  0.26000000000E-02 0.  1.
        -13    1    1    2    0    0 -0.16970059730E+01 -0.13365836957E+02  0.73326835577E+01  0.15339649523E+02  0.10570000000E+00 0.  1.
         13    1    1    2    0    0  0.16970059730E+01  0.13365836957E+02  0.48091262922E+02  0.49943029231E+02  0.10570000000E+00 0. -1.
<mgrwt>
<rscale>  0 0.34496584E+02</rscale>
<asrwt>0</asrwt>
<pdfrwt beam="1">  1        2 0.92851250E-02 0.34496584E+02</pdfrwt>
<pdfrwt beam="2">  1       -2 0.75836402E-03 0.34496584E+02</pdfrwt>
<totfact> 0.13432046E+06</totfact>
</mgrwt>
</event>
<event>
 4    1  0.3704929E-001  0.2574016E+02  0.7818608E-02  0.1650593E+00
          2   -1    0    0  501    0  0.00000000000E+00  0.00000000000E+00  0.37261902193E+02  0.37261902284E+02  0.26000000000E-02 0. -1.
         -2   -1    0    0    0  501 -0.00000000000E+00 -0.00000000000E+00 -0.44452631976E+01  0.44452639580E+01  0.26000000000E-02 0.  1.
        -13    1    1    2    0    0  0.56226930555E+01 -0.11576389457E+02  0.16438094681E+02  0.20877011264E+02  0.10570000000E+00 0.  1.
         13    1    1    2    0    0 -0.56226930555E+01  0.11576389457E+02  0.16378544314E+02  0.20830154978E+02  0.10570000000E+00 0. -1.
<mgrwt>
<rscale>  0 0.25740162E+02</rscale>
<asrwt>0</asrwt>
<pdfrwt beam="1">  1        2 0.57326004E-02 0.25740162E+02</pdfrwt>
<pdfrwt beam="2">  1       -2 0.68388671E-03 0.25740162E+02</pdfrwt>
<totfact> 0.24983718E+06</totfact>
</mgrwt>
</event>
<event>
 4    1  0.3704929E-001  0.2359457E+02  0.7818608E-02  0.1682050E+00
         -2   -1    0    0    0  501 -0.00000000000E+00  0.00000000000E+00  0.38145452519E+01  0.38145461380E+01  0.26000000000E-02 0. -1.
          2   -1    0    0  501    0  0.00000000000E+00 -0.00000000000E+00 -0.36485572897E+02  0.36485572990E+02  0.26000000000E-02 0.  1.
        -13    1    1    2    0    0 -0.11766510583E+01  0.11732372065E+02 -0.16955256684E+02  0.20652480812E+02  0.10570000000E+00 0.  1.
         13    1    1    2    0    0  0.11766510583E+01 -0.11732372065E+02 -0.15715770961E+02  0.19647638315E+02  0.10570000000E+00 0. -1.
<mgrwt>
<rscale>  0 0.23594566E+02</rscale>
<asrwt>0</asrwt>
<pdfrwt beam="2">  1        2 0.56131649E-02 0.23594566E+02</pdfrwt>
<pdfrwt beam="1">  1       -2 0.58685322E-03 0.23594566E+02</pdfrwt>
<totfact> 0.30488700E+06</totfact>
</mgrwt>
</event>
<event>
 4    1  0.3704929E-001  0.2261976E+02  0.7818608E-02  0.1697749E+00
         -2   -1    0    0    0  501 -0.00000000000E+00  0.00000000000E+00  0.44376082486E+02  0.44376082562E+02  0.26000000000E-02 0. -1.
          2   -1    0    0  501    0  0.00000000000E+00 -0.00000000000E+00 -0.28824832502E+01  0.28824844228E+01  0.26000000000E-02 0.  1.
        -13    1    1    2    0    0  0.57717345636E+01 -0.82862527759E+01  0.31385069231E+02  0.32969814195E+02  0.10570000000E+00 0. -1.
         13    1    1    2    0    0 -0.57717345636E+01  0.82862527759E+01  0.10108530004E+02  0.14288752789E+02  0.10570000000E+00 0.  1.
<mgrwt>
<rscale>  0 0.22619756E+02</rscale>
<asrwt>0</asrwt>
<pdfrwt beam="2">  1        2 0.44345911E-03 0.22619756E+02</pdfrwt>
<pdfrwt beam="1">  1       -2 0.68270889E-02 0.22619756E+02</pdfrwt>
<totfact> 0.26263949E+06</totfact>
</mgrwt>
</event>
<event>
 4    1  0.3704929E-001  0.2498482E+02  0.7818608E-02  0.1661220E+00
         -2   -1    0    0    0  501 -0.00000000000E+00  0.00000000000E+00  0.22773323154E+01  0.22773337996E+01  0.26000000000E-02 0. -1.
          2   -1    0    0  501    0  0.00000000000E+00 -0.00000000000E+00 -0.68527638747E+02  0.68527638796E+02  0.26000000000E-02 0.  1.
        -13    1    1    2    0    0  0.66152273205E+01 -0.76987520333E+01 -0.12490580905E+02  0.16095272573E+02  0.10570000000E+00 0. -1.
         13    1    1    2    0    0 -0.66152273205E+01  0.76987520333E+01 -0.53759725526E+02  0.54709700022E+02  0.10570000000E+00 0.  1.
<mgrwt>
<rscale>  0 0.24984816E+02</rscale>
<asrwt>0</asrwt>
<pdfrwt beam="2">  1        2 0.10542712E-01 0.24984816E+02</pdfrwt>
<pdfrwt beam="1">  1       -2 0.35035899E-03 0.24984816E+02</pdfrwt>
<totfact> 0.29513878E+06</totfact>
</mgrwt>
</event>
<event>
 4    1  0.3704929E-001  0.7337015E+02  0.7818608E-02  0.1348994E+00
          2   -1    0    0  501    0  0.00000000000E+00  0.00000000000E+00  0.15841220698E+03  0.15841220700E+03  0.26000000000E-02 0.  1.
         -2   -1    0    0    0  501 -0.00000000000E+00 -0.00000000000E+00 -0.84955234735E+01  0.84955238713E+01  0.26000000000E-02 0. -1.
        -13    1    1    2    0    0 -0.35521914199E+02  0.87782630710E+01  0.68974434883E+02  0.78079114562E+02  0.10570000000E+00 0.  1.
         13    1    1    2    0    0  0.35521914199E+02 -0.87782630710E+01  0.80942248624E+02  0.88828616311E+02  0.10570000000E+00 0. -1.
<mgrwt>
<rscale>  0 0.73370148E+02</rscale>
<asrwt>0</asrwt>
<pdfrwt beam="1">  1        2 0.24371108E-01 0.73370148E+02</pdfrwt>
<pdfrwt beam="2">  1       -2 0.13070037E-02 0.73370148E+02</pdfrwt>
<totfact> 0.25454797E+05</totfact>
</mgrwt>
</event>
<event>
 4    1  0.3704929E-001  0.9727003E+02  0.7818608E-02  0.1286144E+00
          2   -1    0    0  501    0  0.00000000000E+00  0.00000000000E+00  0.13897933315E+03  0.13897933318E+03  0.26000000000E-02 0.  1.
         -2   -1    0    0    0  501 -0.00000000000E+00 -0.00000000000E+00 -0.17019542662E+02  0.17019542860E+02  0.26000000000E-02 0. -1.
        -13    1    1    2    0    0 -0.30269369968E+02 -0.33092691283E+02  0.91154353703E+02  0.10158980434E+03  0.10570000000E+00 0.  1.
         13    1    1    2    0    0  0.30269369968E+02  0.33092691283E+02  0.30805436786E+02  0.54409071694E+02  0.10570000000E+00 0. -1.
<mgrwt>
<rscale>  0 0.97270030E+02</rscale>
<asrwt>0</asrwt>
<pdfrwt beam="1">  1        2 0.21381437E-01 0.97270030E+02</pdfrwt>
<pdfrwt beam="2">  1       -2 0.26183911E-02 0.97270030E+02</pdfrwt>
<totfact> 0.11416937E+05</totfact>
</mgrwt>
</event>
<event>
 4    1  0.3704929E-001  0.3515279E+02  0.7818608E-02  0.1547248E+00
          2   -1    0    0  501    0  0.00000000000E+00  0.00000000000E+00  0.20510812934E+02  0.20510813099E+02  0.26000000000E-02 0. -1.
         -2   -1    0    0    0  501 -0.00000000000E+00 -0.00000000000E+00 -0.15061794413E+02  0.15061794637E+02  0.26000000000E-02 0.  1.
        -13    1    1    2    0    0  0.33541941912E+01 -0.16449037114E+02  0.79921584671E+01  0.18593203331E+02  0.10570000000E+00 0. -1.
         13    1    1    2    0    0 -0.33541941912E+01  0.16449037114E+02 -0.25431399455E+01  0.16979404405E+02  0.10570000000E+00 0.  1.
<mgrwt>
<rscale>  0 0.35152790E+02</rscale>
<asrwt>0</asrwt>
<pdfrwt beam="1">  1        2 0.31555097E-02 0.35152790E+02</pdfrwt>
<pdfrwt beam="2">  1       -2 0.23171992E-02 0.35152790E+02</pdfrwt>
<totfact> 0.10956925E+06</totfact>
</mgrwt>
</event>
<event>
 4    1  0.3704929E-001  0.4644272E+02  0.7818608E-02  0.1465531E+00
         -2   -1    0    0    0  501 -0.00000000000E+00  0.00000000000E+00  0.72426247886E+01  0.72426252552E+01  0.26000000000E-02 0.  1.
          2   -1    0    0  501    0  0.00000000000E+00 -0.00000000000E+00 -0.74452488505E+02  0.74452488551E+02  0.26000000000E-02 0. -1.
        -13    1    1    2    0    0 -0.15867547239E+02  0.16514914622E+02 -0.40348966825E+02  0.46395816155E+02  0.10570000000E+00 0. -1.
         13    1    1    2    0    0  0.15867547239E+02 -0.16514914622E+02 -0.26860896892E+02  0.35299297651E+02  0.10570000000E+00 0.  1.
<mgrwt>
<rscale>  0 0.46442716E+02</rscale>
<asrwt>0</asrwt>
<pdfrwt beam="2">  1        2 0.11454229E-01 0.46442716E+02</pdfrwt>
<pdfrwt beam="1">  1       -2 0.11142501E-02 0.46442716E+02</pdfrwt>
<totfact> 0.67184665E+05</totfact>
</mgrwt>
</event>
<event>
 4    1  0.3704929E-001  0.2691326E+02  0.7818608E-02  0.1634950E+00
          2   -1    0    0  501    0  0.00000000000E+00  0.00000000000E+00  0.21519383245E+01  0.21519398952E+01  0.26000000000E-02 0. -1.
         -2   -1    0    0    0  501 -0.00000000000E+00 -0.00000000000E+00 -0.84147790872E+02  0.84147790913E+02  0.26000000000E-02 0.  1.
        -13    1    1    2    0    0 -0.10416121466E+02 -0.40636385425E+01 -0.65006897195E+02  0.65961478152E+02  0.10570000000E+00 0. -1.
         13    1    1    2    0    0  0.10416121466E+02  0.40636385425E+01 -0.16988955353E+02  0.20338252655E+02  0.10570000000E+00 0.  1.
<mgrwt>
<rscale>  0 0.26913263E+02</rscale>
<asrwt>0</asrwt>
<pdfrwt beam="1">  1        2 0.33106762E-03 0.26913263E+02</pdfrwt>
<pdfrwt beam="2">  1       -2 0.12945812E-01 0.26913263E+02</pdfrwt>
<totfact> 0.15926073E+06</totfact>
</mgrwt>
</event>
<event>
 4    1  0.3704929E-001  0.2295990E+02  0.7818608E-02  0.1692161E+00
         -2   -1    0    0    0  501 -0.00000000000E+00  0.00000000000E+00  0.12691776378E+01  0.12691803010E+01  0.26000000000E-02 0. -1.
          2   -1    0    0  501    0  0.00000000000E+00 -0.00000000000E+00 -0.10383821462E+03  0.10383821465E+03  0.26000000000E-02 0.  1.
        -13    1    1    2    0    0 -0.12962380991E+01  0.11404794843E+02 -0.52057765117E+02  0.53308270090E+02  0.10570000000E+00 0.  1.
         13    1    1    2    0    0  0.12962380991E+01 -0.11404794843E+02 -0.50511271867E+02  0.51799124865E+02  0.10570000000E+00 0. -1.
<mgrwt>
<rscale>  0 0.22959903E+02</rscale>
<asrwt>0</asrwt>
<pdfrwt beam="2">  1        2 0.15975103E-01 0.22959903E+02</pdfrwt>
<pdfrwt beam="1">  1       -2 0.19525839E-03 0.22959903E+02</pdfrwt>
<totfact> 0.39103937E+06</totfact>
</mgrwt>
</event>
<event>
 4    1  0.3704929E-001  0.3073554E+02  0.7818608E-02  0.1590098E+00
         -2   -1    0    0    0  501 -0.00000000000E+00  0.00000000000E+00  0.21236457458E+02  0.21236457617E+02  0.26000000000E-02 0. -1.
          2   -1    0    0  501    0  0.00000000000E+00 -0.00000000000E+00 -0.11120889638E+02  0.11120889942E+02  0.26000000000E-02 0.  1.
        -13    1    1    2    0    0  0.53134655853E+01  0.13486181953E+02 -0.31515520792E+00  0.14498983257E+02  0.10570000000E+00 0. -1.
         13    1    1    2    0    0 -0.53134655853E+01 -0.13486181953E+02  0.10430723028E+02  0.17858364303E+02  0.10570000000E+00 0.  1.
<mgrwt>
<rscale>  0 0.30735537E+02</rscale>
<asrwt>0</asrwt>
<pdfrwt beam="2">  1        2 0.17109062E-02 0.30735537E+02</pdfrwt>
<pdfrwt beam="1">  1       -2 0.32671473E-02 0.30735537E+02</pdfrwt>
<totfact> 0.14297642E+06</totfact>
</mgrwt>
</event>
<event>
 4    1  0.3704929E-001  0.2498115E+02  0.7818608E-02  0.1661273E+00
          2   -1    0    0  501    0  0.00000000000E+00  0.00000000000E+00  0.30970240879E+02  0.30970240989E+02  0.26000000000E-02 0. -1.
         -2   -1    0    0    0  501 -0.00000000000E+00 -0.00000000000E+00 -0.50375619111E+01  0.50375625821E+01  0.26000000000E-02 0.  1.
        -13    1    1    2    0    0  0.87504054265E+01  0.88248432379E+01  0.11168403847E+02  0.16709035588E+02  0.10570000000E+00 0.  1.
         13    1    1    2    0    0 -0.87504054265E+01 -0.88248432379E+01  0.14764275121E+02  0.19298767982E+02  0.10570000000E+00 0. -1.
<mgrwt>
<rscale>  0 0.24981154E+02</rscale>
<asrwt>0</asrwt>
<pdfrwt beam="1">  1        2 0.47646524E-02 0.24981154E+02</pdfrwt>
<pdfrwt beam="2">  1       -2 0.77500959E-03 0.24981154E+02</pdfrwt>
<totfact> 0.26175209E+06</totfact>
</mgrwt>
</event>
<event>
 4    1  0.3704929E-001  0.3593319E+02  0.7818608E-02  0.1540466E+00
          2   -1    0    0  501    0  0.00000000000E+00  0.00000000000E+00  0.80046234761E+01  0.80046238984E+01  0.26000000000E-02 0.  1.
         -2   -1    0    0    0  501 -0.00000000000E+00 -0.00000000000E+00 -0.40326500924E+02  0.40326501008E+02  0.26000000000E-02 0. -1.
        -13    1    1    2    0    0 -0.77830070939E+01  0.80237478979E+01  0.27572245603E+01  0.11513869442E+02  0.10570000000E+00 0.  1.
         13    1    1    2    0    0  0.77830070939E+01 -0.80237478979E+01 -0.35079102009E+02  0.36817255465E+02  0.10570000000E+00 0. -1.
<mgrwt>
<rscale>  0 0.35933186E+02</rscale>
<asrwt>0</asrwt>
<pdfrwt beam="1">  1        2 0.12314806E-02 0.35933186E+02</pdfrwt>
<pdfrwt beam="2">  1       -2 0.62040770E-02 0.35933186E+02</pdfrwt>
<totfact> 0.92295201E+05</totfact>
</mgrwt>
</event>
<event>
 4    1  0.3704929E-001  0.3002108E+02  0.7818608E-02  0.1597856E+00
          2   -1    0    0  501    0  0.00000000000E+00  0.00000000000E+00  0.56945319296E+02  0.56945319355E+02  0.26000000000E-02 0.  1.
         -2   -1    0    0    0  501 -0.00000000000E+00 -0.00000000000E+00 -0.39567131218E+01  0.39567139760E+01  0.26000000000E-02 0. -1.
        -13    1    1    2    0    0 -0.21670787080E+00  0.14351674642E+02  0.35403627921E+02  0.38202690610E+02  0.10570000000E+00 0.  1.
         13    1    1    2    0    0  0.21670787080E+00 -0.14351674642E+02  0.17584978253E+02  0.22699342722E+02  0.10570000000E+00 0. -1.
<mgrwt>
<rscale>  0 0.30021081E+02</rscale>
<asrwt>0</asrwt>
<pdfrwt beam="1">  1        2 0.87608171E-02 0.30021081E+02</pdfrwt>
<pdfrwt beam="2">  1       -2 0.60872526E-03 0.30021081E+02</pdfrwt>
<totfact> 0.18558234E+06</totfact>
</mgrwt>
</event>
<event>
 4    1  0.3704929E-001  0.2990724E+02  0.7818608E-02  0.1599116E+00
          2   -1    0    0  501    0  0.00000000000E+00  0.00000000000E+00  0.19068118427E+02  0.19068118605E+02  0.26000000000E-02 0.  1.
         -2   -1    0    0    0  501 -0.00000000000E+00 -0.00000000000E+00 -0.11726943647E+02  0.11726943935E+02  0.26000000000E-02 0. -1.
        -13    1    1    2    0    0 -0.82589370215E+01  0.12008520043E+02  0.22690920206E+00  0.14576599556E+02  0.10570000000E+00 0. -1.
         13    1    1    2    0    0  0.82589370215E+01 -0.12008520043E+02  0.71142655782E+01  0.16218462984E+02  0.10570000000E+00 0.  1.
<mgrwt>
<rscale>  0 0.29907240E+02</rscale>
<asrwt>0</asrwt>
<pdfrwt beam="1">  1        2 0.29335567E-02 0.29907240E+02</pdfrwt>
<pdfrwt beam="2">  1       -2 0.18041452E-02 0.29907240E+02</pdfrwt>
<totfact> 0.16173343E+06</totfact>
</mgrwt>
</event>
<event>
 4    1  0.3704929E-001  0.9634202E+02  0.7818608E-02  0.1288182E+00
         -2   -1    0    0    0  501 -0.00000000000E+00  0.00000000000E+00  0.15191792672E+02  0.15191792895E+02  0.26000000000E-02 0.  1.
          2   -1    0    0  501    0  0.00000000000E+00 -0.00000000000E+00 -0.15274341948E+03  0.15274341951E+03  0.26000000000E-02 0. -1.
        -13    1    1    2    0    0 -0.13526196295E+02  0.45868911057E+02 -0.58683762302E+02  0.75701453871E+02  0.10570000000E+00 0. -1.
         13    1    1    2    0    0  0.13526196295E+02 -0.45868911057E+02 -0.78867864511E+02  0.92233758531E+02  0.10570000000E+00 0.  1.
<mgrwt>
<rscale>  0 0.96342024E+02</rscale>
<asrwt>0</asrwt>
<pdfrwt beam="2">  1        2 0.23498987E-01 0.96342024E+02</pdfrwt>
<pdfrwt beam="1">  1       -2 0.23371990E-02 0.96342024E+02</pdfrwt>
<totfact> 0.12106639E+05</totfact>
</mgrwt>
</event>
<event>
 4    1  0.3704929E-001  0.3308651E+02  0.7818608E-02  0.1566280E+00
         -2   -1    0    0    0  501 -0.00000000000E+00  0.00000000000E+00  0.90752196582E+02  0.90752196619E+02  0.26000000000E-02 0.  1.
          2   -1    0    0  501    0  0.00000000000E+00 -0.00000000000E+00 -0.30156754065E+01  0.30156765273E+01  0.26000000000E-02 0. -1.
        -13    1    1    2    0    0  0.79801935327E+01  0.96311129619E+01  0.13184008383E+02  0.18173361693E+02  0.10570000000E+00 0. -1.
         13    1    1    2    0    0 -0.79801935327E+01 -0.96311129619E+01  0.74552512792E+02  0.75594511453E+02  0.10570000000E+00 0.  1.
<mgrwt>
<rscale>  0 0.33086506E+02</rscale>
<asrwt>0</asrwt>
<pdfrwt beam="2">  1        2 0.46395008E-03 0.33086506E+02</pdfrwt>
<pdfrwt beam="1">  1       -2 0.13961879E-01 0.33086506E+02</pdfrwt>
<totfact> 0.97109884E+05</totfact>
</mgrwt>
</event>
<event>
 4    1  0.3704929E-001  0.4328612E+02  0.7818608E-02  0.1485334E+00
         -2   -1    0    0    0  501 -0.00000000000E+00  0.00000000000E+00  0.27475423579E+01  0.27475435881E+01  0.26000000000E-02 0. -1.
          2   -1    0    0  501    0  0.00000000000E+00 -0.00000000000E+00 -0.17048758063E+03  0.17048758065E+03  0.26000000000E-02 0.  1.
        -13    1    1    2    0    0 -0.13944799327E+02 -0.16543713346E+02 -0.81833643053E+02  0.84645780683E+02  0.10570000000E+00 0.  1.
         13    1    1    2    0    0  0.13944799327E+02  0.16543713346E+02 -0.85906395222E+02  0.88589343558E+02  0.10570000000E+00 0. -1.
<mgrwt>
<rscale>  0 0.43286116E+02</rscale>
<asrwt>0</asrwt>
<pdfrwt beam="2">  1        2 0.26228850E-01 0.43286116E+02</pdfrwt>
<pdfrwt beam="1">  1       -2 0.42269905E-03 0.43286116E+02</pdfrwt>
<totfact> 0.10003860E+06</totfact>
</mgrwt>
</event>
<event>
 4    1  0.3704929E-001  0.3191227E+02  0.7818608E-02  0.1577865E+00
         -2   -1    0    0    0  501 -0.00000000000E+00  0.00000000000E+00  0.20648020303E+02  0.20648020467E+02  0.26000000000E-02 0.  1.
          2   -1    0    0  501    0  0.00000000000E+00 -0.00000000000E+00 -0.12330394241E+02  0.12330394515E+02  0.26000000000E-02 0. -1.
        -13    1    1    2    0    0  0.12783125218E+02 -0.92321434945E+01  0.66787840708E+01  0.17124780086E+02  0.10570000000E+00 0.  1.
         13    1    1    2    0    0 -0.12783125218E+02  0.92321434945E+01  0.16388419912E+01  0.15853634896E+02  0.10570000000E+00 0. -1.
<mgrwt>
<rscale>  0 0.31912270E+02</rscale>
<asrwt>0</asrwt>
<pdfrwt beam="2">  1        2 0.18969838E-02 0.31912270E+02</pdfrwt>
<pdfrwt beam="1">  1       -2 0.31766185E-02 0.31912270E+02</pdfrwt>
<totfact> 0.13165534E+06</totfact>
</mgrwt>
</event>
<event>
 4    1  0.3704929E-001  0.2977633E+02  0.7818608E-02  0.1600574E+00
         -2   -1    0    0    0  501 -0.00000000000E+00  0.00000000000E+00  0.25889497252E+02  0.25889497383E+02  0.26000000000E-02 0.  1.
          2   -1    0    0  501    0  0.00000000000E+00 -0.00000000000E+00 -0.85616742742E+01  0.85616746690E+01  0.26000000000E-02 0. -1.
        -13    1    1    2    0    0 -0.12215340585E+02  0.64839757435E+01  0.15042090476E+02  0.20433603339E+02  0.10570000000E+00 0.  1.
         13    1    1    2    0    0  0.12215340585E+02 -0.64839757435E+01  0.22857325026E+01  0.14017568713E+02  0.10570000000E+00 0. -1.
<mgrwt>
<rscale>  0 0.29776330E+02</rscale>
<asrwt>0</asrwt>
<pdfrwt beam="2">  1        2 0.13171807E-02 0.29776330E+02</pdfrwt>
<pdfrwt beam="1">  1       -2 0.39829997E-02 0.29776330E+02</pdfrwt>
<totfact> 0.15046219E+06</totfact>
</mgrwt>
</event>
<event>
 4    1  0.3704929E-001  0.3557982E+02  0.7818608E-02  0.1543511E+00
         -2   -1    0    0    0  501 -0.00000000000E+00  0.00000000000E+00  0.30889883822E+02  0.30889883932E+02  0.26000000000E-02 0. -1.
          2   -1    0    0  501    0  0.00000000000E+00 -0.00000000000E+00 -0.10245452681E+02  0.10245453010E+02  0.26000000000E-02 0.  1.
        -13    1    1    2    0    0 -0.13619639709E+02 -0.99455746948E+01  0.37758926866E+01  0.17282290933E+02  0.10570000000E+00 0.  1.
         13    1    1    2    0    0  0.13619639709E+02  0.99455746948E+01  0.16868538455E+02  0.23853046009E+02  0.10570000000E+00 0. -1.
<mgrwt>
<rscale>  0 0.35579817E+02</rscale>
<asrwt>0</asrwt>
<pdfrwt beam="2">  1        2 0.15762235E-02 0.35579817E+02</pdfrwt>
<pdfrwt beam="1">  1       -2 0.47522898E-02 0.35579817E+02</pdfrwt>
<totfact> 0.97837784E+05</totfact>
</mgrwt>
</event>
<event>
 4    1  0.3704929E-001  0.2114604E+02  0.7818608E-02  0.1723453E+00
         -2   -1    0    0    0  501 -0.00000000000E+00  0.00000000000E+00  0.14031212605E+01  0.14031236694E+01  0.26000000000E-02 0. -1.
          2   -1    0    0  501    0  0.00000000000E+00 -0.00000000000E+00 -0.79671404240E+02  0.79671404282E+02  0.26000000000E-02 0.  1.
        -13    1    1    2    0    0 -0.64950615403E+01  0.82850040488E+01 -0.42871978729E+02  0.44145722886E+02  0.10570000000E+00 0.  1.
         13    1    1    2    0    0  0.64950615403E+01 -0.82850040488E+01 -0.35396304250E+02  0.36928805065E+02  0.10570000000E+00 0. -1.
<mgrwt>
<rscale>  0 0.21146039E+02</rscale>
<asrwt>0</asrwt>
<pdfrwt beam="2">  1        2 0.12257136E-01 0.21146039E+02</pdfrwt>
<pdfrwt beam="1">  1       -2 0.21586506E-03 0.21146039E+02</pdfrwt>
<totfact> 0.44398079E+06</totfact>
</mgrwt>
</event>
<event>
 4    1  0.3704929E-001  0.1245377E+03  0.7818608E-02  0.1235794E+00
          2   -1    0    0  501    0  0.00000000000E+00  0.00000000000E+00  0.19471408466E+03  0.19471408467E+03  0.26000000000E-02 0.  1.
         -2   -1    0    0    0  501 -0.00000000000E+00 -0.00000000000E+00 -0.19913358963E+02  0.19913359133E+02  0.26000000000E-02 0. -1.
        -13    1    1    2    0    0  0.26036900699E+02  0.23687213479E+02 -0.11222662522E+01  0.35217537314E+02  0.10570000000E+00 0. -1.
         13    1    1    2    0    0 -0.26036900699E+02 -0.23687213479E+02  0.17592299195E+03  0.17940990649E+03  0.10570000000E+00 0.  1.
<mgrwt>
<rscale>  0 0.12453773E+03</rscale>
<asrwt>0</asrwt>
<pdfrwt beam="1">  1        2 0.29956013E-01 0.12453773E+03</pdfrwt>
<pdfrwt beam="2">  1       -2 0.30635937E-02 0.12453773E+03</pdfrwt>
<totfact> 0.65004113E+04</totfact>
</mgrwt>
</event>
<event>
 4    1  0.3704929E-001  0.3714762E+02  0.7818608E-02  0.1530316E+00
          2   -1    0    0  501    0  0.00000000000E+00  0.00000000000E+00  0.44656391227E+02  0.44656391303E+02  0.26000000000E-02 0. -1.
         -2   -1    0    0    0  501 -0.00000000000E+00 -0.00000000000E+00 -0.77253529718E+01  0.77253534094E+01  0.26000000000E-02 0.  1.
        -13    1    1    2    0    0  0.12955313682E+02 -0.90496746858E+01  0.47043553849E+01  0.16488750607E+02  0.10570000000E+00 0.  1.
         13    1    1    2    0    0 -0.12955313682E+02  0.90496746858E+01  0.32226682870E+02  0.35892994105E+02  0.10570000000E+00 0. -1.
<mgrwt>
<rscale>  0 0.37147619E+02</rscale>
<asrwt>0</asrwt>
<pdfrwt beam="1">  1        2 0.68702139E-02 0.37147619E+02</pdfrwt>
<pdfrwt beam="2">  1       -2 0.11885159E-02 0.37147619E+02</pdfrwt>
<totfact> 0.10632362E+06</totfact>
</mgrwt>
</event>
<event>
 4    1  0.3704929E-001  0.2091344E+02  0.7818608E-02  0.1727750E+00
         -2   -1    0    0    0  501 -0.00000000000E+00  0.00000000000E+00  0.32809532181E+02  0.32809532284E+02  0.26000000000E-02 0. -1.
          2   -1    0    0  501    0  0.00000000000E+00 -0.00000000000E+00 -0.33326602906E+01  0.33326613048E+01  0.26000000000E-02 0.  1.
        -13    1    1    2    0    0 -0.83577979944E+01  0.56786001617E+01  0.10090761259E+02  0.14280543490E+02  0.10570000000E+00 0.  1.
         13    1    1    2    0    0  0.83577979944E+01 -0.56786001617E+01  0.19386110631E+02  0.21861650098E+02  0.10570000000E+00 0. -1.
<mgrwt>
<rscale>  0 0.20913445E+02</rscale>
<asrwt>0</asrwt>
<pdfrwt beam="2">  1        2 0.51271703E-03 0.20913445E+02</pdfrwt>
<pdfrwt beam="1">  1       -2 0.50476206E-02 0.20913445E+02</pdfrwt>
<totfact> 0.32396232E+06</totfact>
</mgrwt>
</event>
<event>
 4    1  0.3704929E-001  0.2460540E+02  0.7818608E-02  0.1666735E+00
          2   -1    0    0  501    0  0.00000000000E+00  0.00000000000E+00  0.15080865852E+01  0.15080888265E+01  0.26000000000E-02 0. -1.
         -2   -1    0    0    0  501 -0.00000000000E+00 -0.00000000000E+00 -0.10036314301E+03  0.10036314304E+03  0.26000000000E-02 0.  1.
        -13    1    1    2    0    0 -0.10059148517E+02  0.59851011583E+01 -0.65104260711E+02  0.66148196044E+02  0.10570000000E+00 0. -1.
         13    1    1    2    0    0  0.10059148517E+02 -0.59851011583E+01 -0.33750795713E+02  0.35723035825E+02  0.10570000000E+00 0.  1.
<mgrwt>
<rscale>  0 0.24605400E+02</rscale>
<asrwt>0</asrwt>
<pdfrwt beam="1">  1        2 0.23201357E-03 0.24605400E+02</pdfrwt>
<pdfrwt beam="2">  1       -2 0.15440478E-01 0.24605400E+02</pdfrwt>
<totfact> 0.18755407E+06</totfact>
</mgrwt>
</event>
<event>
 4    1  0.3704929E-001  0.2911715E+02  0.7818608E-02  0.1608057E+00
         -2   -1    0    0    0  501 -0.00000000000E+00  0.00000000000E+00  0.29666122702E+01  0.29666134096E+01  0.26000000000E-02 0. -1.
          2   -1    0    0  501    0  0.00000000000E+00 -0.00000000000E+00 -0.71445835149E+02  0.71445835196E+02  0.26000000000E-02 0.  1.
        -13    1    1    2    0    0 -0.10227361536E+02 -0.80140481876E+01 -0.17458476682E+02  0.21763121855E+02  0.10570000000E+00 0.  1.
         13    1    1    2    0    0  0.10227361536E+02  0.80140481876E+01 -0.51020746197E+02  0.52649326751E+02  0.10570000000E+00 0. -1.
<mgrwt>
<rscale>  0 0.29117152E+02</rscale>
<asrwt>0</asrwt>
<pdfrwt beam="2">  1        2 0.10991666E-01 0.29117152E+02</pdfrwt>
<pdfrwt beam="1">  1       -2 0.45640203E-03 0.29117152E+02</pdfrwt>
<totfact> 0.20822172E+06</totfact>
</mgrwt>
</event>
<event>
 4    1  0.3704929E-001  0.2307512E+02  0.7818608E-02  0.1690295E+00
          2   -1    0    0  501    0  0.00000000000E+00  0.00000000000E+00  0.30201484075E+02  0.30201484187E+02  0.26000000000E-02 0. -1.
         -2   -1    0    0    0  501 -0.00000000000E+00 -0.00000000000E+00 -0.44075742889E+01  0.44075750558E+01  0.26000000000E-02 0.  1.
        -13    1    1    2    0    0  0.10997813460E+02  0.24813001271E+01  0.92245206315E+01  0.14567487930E+02  0.10570000000E+00 0.  1.
         13    1    1    2    0    0 -0.10997813460E+02 -0.24813001271E+01  0.16569389155E+02  0.20041571313E+02  0.10570000000E+00 0. -1.
<mgrwt>
<rscale>  0 0.23075121E+02</rscale>
<asrwt>0</asrwt>
<pdfrwt beam="1">  1        2 0.46463821E-02 0.23075121E+02</pdfrwt>
<pdfrwt beam="2">  1       -2 0.67808845E-03 0.23075121E+02</pdfrwt>
<totfact> 0.31361903E+06</totfact>
</mgrwt>
</event>
<event>
 4    1  0.3704929E-001  0.3485087E+02  0.7818608E-02  0.1549929E+00
         -2   -1    0    0    0  501 -0.00000000000E+00  0.00000000000E+00  0.17532070883E+02  0.17532071076E+02  0.26000000000E-02 0. -1.
          2   -1    0    0  501    0  0.00000000000E+00 -0.00000000000E+00 -0.17319443136E+02  0.17319443332E+02  0.26000000000E-02 0.  1.
        -13    1    1    2    0    0 -0.62686855076E+00 -0.13448084622E+02  0.11169548055E+02  0.17493253569E+02  0.10570000000E+00 0. -1.
         13    1    1    2    0    0  0.62686855076E+00  0.13448084622E+02 -0.10956920309E+02  0.17358260838E+02  0.10570000000E+00 0.  1.
<mgrwt>
<rscale>  0 0.34850866E+02</rscale>
<asrwt>0</asrwt>
<pdfrwt beam="2">  1        2 0.26645297E-02 0.34850866E+02</pdfrwt>
<pdfrwt beam="1">  1       -2 0.26972417E-02 0.34850866E+02</pdfrwt>
<totfact> 0.10974973E+06</totfact>
</mgrwt>
</event>
<event>
 4    1  0.3704929E-001  0.2760633E+02  0.7818608E-02  0.1626162E+00
         -2   -1    0    0    0  501 -0.00000000000E+00  0.00000000000E+00  0.14726165455E+02  0.14726165685E+02  0.26000000000E-02 0.  1.
          2   -1    0    0  501    0  0.00000000000E+00 -0.00000000000E+00 -0.12938017366E+02  0.12938017628E+02  0.26000000000E-02 0. -1.
        -13    1    1    2    0    0 -0.88605807449E+01 -0.57623985740E+01 -0.80015262528E+01  0.13257100864E+02  0.10570000000E+00 0. -1.
         13    1    1    2    0    0  0.88605807449E+01  0.57623985740E+01  0.97896743417E+01  0.14407082448E+02  0.10570000000E+00 0.  1.
<mgrwt>
<rscale>  0 0.27606332E+02</rscale>
<asrwt>0</asrwt>
<pdfrwt beam="2">  1        2 0.19904642E-02 0.27606332E+02</pdfrwt>
<pdfrwt beam="1">  1       -2 0.22655640E-02 0.27606332E+02</pdfrwt>
<totfact> 0.18886264E+06</totfact>
</mgrwt>
</event>
<event>
 4    1  0.3704929E-001  0.5473984E+02  0.7818608E-02  0.1421333E+00
         -2   -1    0    0    0  501 -0.00000000000E+00  0.00000000000E+00  0.17757687306E+02  0.17757687496E+02  0.26000000000E-02 0. -1.
          2   -1    0    0  501    0  0.00000000000E+00 -0.00000000000E+00 -0.42185256570E+02  0.42185256650E+02  0.26000000000E-02 0.  1.
        -13    1    1    2    0    0  0.10513952423E+02 -0.10200871760E+02 -0.37530570021E+02  0.40288408244E+02  0.10570000000E+00 0.  1.
         13    1    1    2    0    0 -0.10513952423E+02  0.10200871760E+02  0.13103000757E+02  0.19654535902E+02  0.10570000000E+00 0. -1.
<mgrwt>
<rscale>  0 0.54739843E+02</rscale>
<asrwt>0</asrwt>
<pdfrwt beam="2">  1        2 0.64900395E-02 0.54739843E+02</pdfrwt>
<pdfrwt beam="1">  1       -2 0.27319519E-02 0.54739843E+02</pdfrwt>
<totfact> 0.39269228E+05</totfact>
</mgrwt>
</event>
<event>
 4    1  0.3704929E-001  0.2700913E+02  0.7818608E-02  0.1633715E+00
          2   -1    0    0  501    0  0.00000000000E+00  0.00000000000E+00  0.18259895582E+01  0.18259914093E+01  0.26000000000E-02 0.  1.
         -2   -1    0    0    0  501 -0.00000000000E+00 -0.00000000000E+00 -0.99876329256E+02  0.99876329290E+02  0.26000000000E-02 0. -1.
        -13    1    1    2    0    0 -0.13297812708E+02  0.24929926494E+00 -0.57830343808E+02  0.59340153441E+02  0.10570000000E+00 0. -1.
         13    1    1    2    0    0  0.13297812708E+02 -0.24929926494E+00 -0.40219995890E+02  0.42362167258E+02  0.10570000000E+00 0.  1.
<mgrwt>
<rscale>  0 0.27009127E+02</rscale>
<asrwt>0</asrwt>
<pdfrwt beam="1">  1        2 0.28092169E-03 0.27009127E+02</pdfrwt>
<pdfrwt beam="2">  1       -2 0.15365585E-01 0.27009127E+02</pdfrwt>
<totfact> 0.15194783E+06</totfact>
</mgrwt>
</event>
<event>
 4    1  0.3704929E-001  0.4831454E+02  0.7818608E-02  0.1454650E+00
          2   -1    0    0  501    0  0.00000000000E+00  0.00000000000E+00  0.79444025341E+02  0.79444025383E+02  0.26000000000E-02 0. -1.
         -2   -1    0    0    0  501 -0.00000000000E+00 -0.00000000000E+00 -0.73457223941E+01  0.73457228543E+01  0.26000000000E-02 0.  1.
        -13    1    1    2    0    0  0.21878338014E+02 -0.97017832966E+01  0.41946082239E+02  0.48293594411E+02  0.10570000000E+00 0. -1.
         13    1    1    2    0    0 -0.21878338014E+02  0.97017832966E+01  0.30152220707E+02  0.38496153827E+02  0.10570000000E+00 0.  1.
<mgrwt>
<rscale>  0 0.48314543E+02</rscale>
<asrwt>0</asrwt>
<pdfrwt beam="1">  1        2 0.12222158E-01 0.48314543E+02</pdfrwt>
<pdfrwt beam="2">  1       -2 0.11301112E-02 0.48314543E+02</pdfrwt>
<totfact> 0.61705456E+05</totfact>
</mgrwt>
</event>
<event>
 4    1  0.3704929E-001  0.2964150E+02  0.7818608E-02  0.1602086E+00
          2   -1    0    0  501    0  0.00000000000E+00  0.00000000000E+00  0.84289133954E+02  0.84289133994E+02  0.26000000000E-02 0.  1.
         -2   -1    0    0    0  501 -0.00000000000E+00 -0.00000000000E+00 -0.26059648064E+01  0.26059661034E+01  0.26000000000E-02 0. -1.
        -13    1    1    2    0    0  0.96264807981E-01  0.13895023099E+02  0.55950364008E+02  0.57650111352E+02  0.10570000000E+00 0.  1.
         13    1    1    2    0    0 -0.96264807981E-01 -0.13895023099E+02  0.25732805140E+02  0.29244988745E+02  0.10570000000E+00 0. -1.
<mgrwt>
<rscale>  0 0.29641496E+02</rscale>
<asrwt>0</asrwt>
<pdfrwt beam="1">  1        2 0.12967560E-01 0.29641496E+02</pdfrwt>
<pdfrwt beam="2">  1       -2 0.40091775E-03 0.29641496E+02</pdfrwt>
<totfact> 0.20667529E+06</totfact>
</mgrwt>
</event>
<event>
 4    1  0.3704929E-001  0.3007585E+02  0.7818608E-02  0.1597252E+00
         -2   -1    0    0    0  501 -0.00000000000E+00  0.00000000000E+00  0.29508191108E+01  0.29508202563E+01  0.26000000000E-02 0.  1.
          2   -1    0    0  501    0  0.00000000000E+00 -0.00000000000E+00 -0.76636063482E+02  0.76636063526E+02  0.26000000000E-02 0. -1.
        -13    1    1    2    0    0  0.14529795927E+02  0.21634576867E+01 -0.45348646687E+02  0.47668715608E+02  0.10570000000E+00 0. -1.
         13    1    1    2    0    0 -0.14529795927E+02 -0.21634576867E+01 -0.28336597684E+02  0.31918168174E+02  0.10570000000E+00 0.  1.
<mgrwt>
<rscale>  0 0.30075851E+02</rscale>
<asrwt>0</asrwt>
<pdfrwt beam="2">  1        2 0.11790162E-01 0.30075851E+02</pdfrwt>
<pdfrwt beam="1">  1       -2 0.45397232E-03 0.30075851E+02</pdfrwt>
<totfact> 0.19565124E+06</totfact>
</mgrwt>
</event>
<event>
 4    1  0.3704929E-001  0.2401718E+02  0.7818608E-02  0.1675533E+00
         -2   -1    0    0    0  501 -0.00000000000E+00  0.00000000000E+00  0.13281222848E+03  0.13281222850E+03  0.26000000000E-02 0.  1.
          2   -1    0    0  501    0  0.00000000000E+00 -0.00000000000E+00 -0.10857883601E+01  0.10857914730E+01  0.26000000000E-02 0. -1.
        -13    1    1    2    0    0 -0.51419326442E+01  0.10792193412E+02  0.72180811640E+02  0.73164141842E+02  0.10570000000E+00 0. -1.
         13    1    1    2    0    0  0.51419326442E+01 -0.10792193412E+02  0.59545628477E+02  0.60733878134E+02  0.10570000000E+00 0.  1.
<mgrwt>
<rscale>  0 0.24017176E+02</rscale>
<asrwt>0</asrwt>
<pdfrwt beam="2">  1        2 0.16704474E-03 0.24017176E+02</pdfrwt>
<pdfrwt beam="1">  1       -2 0.20432635E-01 0.24017176E+02</pdfrwt>
<totfact> 0.18352475E+06</totfact>
</mgrwt>
</event>
<event>
 4    1  0.3704929E-001  0.2407029E+02  0.7818608E-02  0.1674726E+00
         -2   -1    0    0    0  501 -0.00000000000E+00  0.00000000000E+00  0.40892506515E+01  0.40892514780E+01  0.26000000000E-02 0. -1.
          2   -1    0    0  501    0  0.00000000000E+00 -0.00000000000E+00 -0.35420840290E+02  0.35420840385E+02  0.26000000000E-02 0.  1.
        -13    1    1    2    0    0 -0.40202477328E+01 -0.10816528418E+02 -0.21274130265E+02  0.24202468260E+02  0.10570000000E+00 0.  1.
         13    1    1    2    0    0  0.40202477328E+01  0.10816528418E+02 -0.10057459373E+02  0.15307623603E+02  0.10570000000E+00 0. -1.
<mgrwt>
<rscale>  0 0.24070290E+02</rscale>
<asrwt>0</asrwt>
<pdfrwt beam="2">  1        2 0.54493599E-02 0.24070290E+02</pdfrwt>
<pdfrwt beam="1">  1       -2 0.62911558E-03 0.24070290E+02</pdfrwt>
<totfact> 0.29007399E+06</totfact>
</mgrwt>
</event>
<event>
 4    1  0.3704929E-001  0.3226281E+02  0.7818608E-02  0.1574344E+00
          2   -1    0    0  501    0  0.00000000000E+00  0.00000000000E+00  0.52672553352E+02  0.52672553417E+02  0.26000000000E-02 0. -1.
         -2   -1    0    0    0  501 -0.00000000000E+00 -0.00000000000E+00 -0.49403757844E+01  0.49403764686E+01  0.26000000000E-02 0.  1.
        -13    1    1    2    0    0  0.10925420347E+01 -0.14446404264E+02  0.36533356788E+02  0.39301266836E+02  0.10570000000E+00 0. -1.
         13    1    1    2    0    0 -0.10925420347E+01  0.14446404264E+02  0.11198820780E+02  0.18311663049E+02  0.10570000000E+00 0.  1.
<mgrwt>
<rscale>  0 0.32262810E+02</rscale>
<asrwt>0</asrwt>
<pdfrwt beam="1">  1        2 0.81034693E-02 0.32262810E+02</pdfrwt>
<pdfrwt beam="2">  1       -2 0.76005792E-03 0.32262810E+02</pdfrwt>
<totfact> 0.15408943E+06</totfact>
</mgrwt>
</event>
<event>
 4    1  0.3704929E-001  0.8208278E+02  0.7818608E-02  0.1323243E+00
         -2   -1    0    0    0  501 -0.00000000000E+00  0.00000000000E+00  0.13523376410E+03  0.13523376412E+03  0.26000000000E-02 0.  1.
          2   -1    0    0  501    0  0.00000000000E+00 -0.00000000000E+00 -0.12455438825E+02  0.12455439096E+02  0.26000000000E-02 0. -1.
        -13    1    1    2    0    0 -0.52141026670E+01 -0.24539098241E+02  0.29466102168E+01  0.25259609921E+02  0.10570000000E+00 0. -1.
         13    1    1    2    0    0  0.52141026670E+01  0.24539098241E+02  0.11983171505E+03  0.12242959330E+03  0.10570000000E+00 0.  1.
<mgrwt>
<rscale>  0 0.82082785E+02</rscale>
<asrwt>0</asrwt>
<pdfrwt beam="2">  1        2 0.19162215E-02 0.82082785E+02</pdfrwt>
<pdfrwt beam="1">  1       -2 0.20805193E-01 0.82082785E+02</pdfrwt>
<totfact> 0.94426074E+04</totfact>
</mgrwt>
</event>
<event>
 4    1  0.3704929E-001  0.3876009E+03  0.7818608E-02  0.1048160E+00
          2   -1    0    0  501    0  0.00000000000E+00  0.00000000000E+00  0.79387731102E+03  0.79387731103E+03  0.26000000000E-02 0. -1.
         -2   -1    0    0    0  501 -0.00000000000E+00 -0.00000000000E+00 -0.47310349734E+02  0.47310349806E+02  0.26000000000E-02 0.  1.
        -13    1    1    2    0    0  0.10339409274E+03  0.16379086143E+03  0.38714882744E+03  0.43289953853E+03  0.10570000000E+00 0.  1.
         13    1    1    2    0    0 -0.10339409274E+03 -0.16379086143E+03  0.35941813385E+03  0.40828812230E+03  0.10570000000E+00 0. -1.
<mgrwt>
<rscale>  0 0.38760089E+03</rscale>
<asrwt>0</asrwt>
<pdfrwt beam="1">  1        2 0.12213496E+00 0.38760089E+03</pdfrwt>
<pdfrwt beam="2">  1       -2 0.72785157E-02 0.38760089E+03</pdfrwt>
<totfact> 0.39484685E+03</totfact>
</mgrwt>
</event>
<event>
 4    1  0.3704929E-001  0.3648252E+02  0.7818608E-02  0.1535816E+00
         -2   -1    0    0    0  501 -0.00000000000E+00  0.00000000000E+00  0.58364931542E+01  0.58364937333E+01  0.26000000000E-02 0. -1.
          2   -1    0    0  501    0  0.00000000000E+00 -0.00000000000E+00 -0.57010876159E+02  0.57010876219E+02  0.26000000000E-02 0.  1.
        -13    1    1    2    0    0 -0.95681741346E+01 -0.10289232195E+02 -0.55482901557E+01  0.15106718756E+02  0.10570000000E+00 0. -1.
         13    1    1    2    0    0  0.95681741346E+01  0.10289232195E+02 -0.45626092849E+02  0.47740651196E+02  0.10570000000E+00 0.  1.
<mgrwt>
<rscale>  0 0.36482522E+02</rscale>
<asrwt>0</asrwt>
<pdfrwt beam="2">  1        2 0.87709037E-02 0.36482522E+02</pdfrwt>
<pdfrwt beam="1">  1       -2 0.89792211E-03 0.36482522E+02</pdfrwt>
<totfact> 0.11595651E+06</totfact>
</mgrwt>
</event>
<event>
 4    1  0.3704929E-001  0.3106155E+02  0.7818608E-02  0.1586643E+00
          2   -1    0    0  501    0  0.00000000000E+00  0.00000000000E+00  0.64695081918E+01  0.64695087143E+01  0.26000000000E-02 0.  1.
         -2   -1    0    0    0  501 -0.00000000000E+00 -0.00000000000E+00 -0.37283347632E+02  0.37283347723E+02  0.26000000000E-02 0. -1.
        -13    1    1    2    0    0 -0.36428255941E+00 -0.14776705053E+02 -0.86942950635E+01  0.17148925714E+02  0.10570000000E+00 0.  1.
         13    1    1    2    0    0  0.36428255941E+00  0.14776705053E+02 -0.22119544377E+02  0.26603930723E+02  0.10570000000E+00 0. -1.
<mgrwt>
<rscale>  0 0.31061548E+02</rscale>
<asrwt>0</asrwt>
<pdfrwt beam="1">  1        2 0.99530902E-03 0.31061548E+02</pdfrwt>
<pdfrwt beam="2">  1       -2 0.57358995E-02 0.31061548E+02</pdfrwt>
<totfact> 0.13081612E+06</totfact>
</mgrwt>
</event>
<event>
 4    1  0.3704929E-001  0.3279720E+02  0.7818608E-02  0.1569080E+00
          2   -1    0    0  501    0  0.00000000000E+00  0.00000000000E+00  0.74414879970E+02  0.74414880015E+02  0.26000000000E-02 0. -1.
         -2   -1    0    0    0  501 -0.00000000000E+00 -0.00000000000E+00 -0.36137140429E+01  0.36137149783E+01  0.26000000000E-02 0.  1.
        -13    1    1    2    0    0 -0.74955113994E+01  0.12288294045E+02  0.54091183375E+02  0.55973673750E+02  0.10570000000E+00 0. -1.
         13    1    1    2    0    0  0.74955113994E+01 -0.12288294045E+02  0.16709982552E+02  0.22054921244E+02  0.10570000000E+00 0.  1.
<mgrwt>
<rscale>  0 0.32797203E+02</rscale>
<asrwt>0</asrwt>
<pdfrwt beam="1">  1        2 0.11448443E-01 0.32797203E+02</pdfrwt>
<pdfrwt beam="2">  1       -2 0.55595611E-03 0.32797203E+02</pdfrwt>
<totfact> 0.15815265E+06</totfact>
</mgrwt>
</event>
<event>
 4    1  0.3704929E-001  0.3203508E+02  0.7818608E-02  0.1576625E+00
         -2   -1    0    0    0  501 -0.00000000000E+00  0.00000000000E+00  0.62623796874E+01  0.62623802272E+01  0.26000000000E-02 0.  1.
          2   -1    0    0  501    0  0.00000000000E+00 -0.00000000000E+00 -0.40968695676E+02  0.40968695759E+02  0.26000000000E-02 0. -1.
        -13    1    1    2    0    0  0.26173099536E+01 -0.14431696952E+02 -0.26842574675E+02  0.30588546483E+02  0.10570000000E+00 0. -1.
         13    1    1    2    0    0 -0.26173099536E+01  0.14431696952E+02 -0.78637413137E+01  0.16642529502E+02  0.10570000000E+00 0.  1.
<mgrwt>
<rscale>  0 0.32035077E+02</rscale>
<asrwt>0</asrwt>
<pdfrwt beam="2">  1        2 0.63028761E-02 0.32035077E+02</pdfrwt>
<pdfrwt beam="1">  1       -2 0.96344310E-03 0.32035077E+02</pdfrwt>
<totfact> 0.15057118E+06</totfact>
</mgrwt>
</event>
<event>
 4    1  0.3704929E-001  0.2800096E+02  0.7818608E-02  0.1621298E+00
         -2   -1    0    0    0  501 -0.00000000000E+00  0.00000000000E+00  0.36447894909E+01  0.36447904183E+01  0.26000000000E-02 0.  1.
          2   -1    0    0  501    0  0.00000000000E+00 -0.00000000000E+00 -0.53779088741E+02  0.53779088803E+02  0.26000000000E-02 0. -1.
        -13    1    1    2    0    0 -0.49321555147E+00  0.12923099924E+02 -0.14070568932E+02  0.19111301782E+02  0.10570000000E+00 0.  1.
         13    1    1    2    0    0  0.49321555147E+00 -0.12923099924E+02 -0.36063730317E+02  0.38312577440E+02  0.10570000000E+00 0. -1.
<mgrwt>
<rscale>  0 0.28000963E+02</rscale>
<asrwt>0</asrwt>
<pdfrwt beam="2">  1        2 0.82737055E-02 0.28000963E+02</pdfrwt>
<pdfrwt beam="1">  1       -2 0.56073696E-03 0.28000963E+02</pdfrwt>
<totfact> 0.21668530E+06</totfact>
</mgrwt>
</event>
<event>
 4    1  0.3704929E-001  0.8125583E+02  0.7818608E-02  0.1325525E+00
         -2   -1    0    0    0  501 -0.00000000000E+00  0.00000000000E+00  0.59157142580E+01  0.59157148293E+01  0.26000000000E-02 0.  1.
          2   -1    0    0  501    0  0.00000000000E+00 -0.00000000000E+00 -0.27902416210E+03  0.27902416211E+03  0.26000000000E-02 0. -1.
        -13    1    1    2    0    0  0.32412847179E+02 -0.13962263968E+02 -0.20713207008E+03  0.21011721278E+03  0.10570000000E+00 0. -1.
         13    1    1    2    0    0 -0.32412847179E+02  0.13962263968E+02 -0.65976377758E+02  0.74822664159E+02  0.10570000000E+00 0.  1.
<mgrwt>
<rscale>  0 0.81255826E+02</rscale>
<asrwt>0</asrwt>
<pdfrwt beam="2">  1        2 0.42926784E-01 0.81255826E+02</pdfrwt>
<pdfrwt beam="1">  1       -2 0.91011015E-03 0.81255826E+02</pdfrwt>
<totfact> 0.23739943E+05</totfact>
</mgrwt>
</event>
<event>
 4    1  0.3704929E-001  0.3514965E+03  0.7818608E-02  0.1062002E+00
          2   -1    0    0  501    0  0.00000000000E+00  0.00000000000E+00  0.46388400011E+03  0.46388400012E+03  0.26000000000E-02 0. -1.
         -2   -1    0    0    0  501 -0.00000000000E+00 -0.00000000000E+00 -0.66584432992E+02  0.66584433043E+02  0.26000000000E-02 0.  1.
        -13    1    1    2    0    0  0.39804044570E+02 -0.69033154170E+02 -0.37753600031E+02  0.88177569861E+02  0.10570000000E+00 0.  1.
         13    1    1    2    0    0 -0.39804044570E+02  0.69033154170E+02  0.43505316715E+03  0.44229086330E+03  0.10570000000E+00 0. -1.
<mgrwt>
<rscale>  0 0.35149653E+03</rscale>
<asrwt>0</asrwt>
<pdfrwt beam="1">  1        2 0.71366769E-01 0.35149653E+03</pdfrwt>
<pdfrwt beam="2">  1       -2 0.10243759E-01 0.35149653E+03</pdfrwt>
<totfact> 0.43405773E+03</totfact>
</mgrwt>
</event>
<event>
 4    1  0.3704929E-001  0.2942116E+02  0.7818608E-02  0.1604577E+00
         -2   -1    0    0    0  501 -0.00000000000E+00  0.00000000000E+00  0.22107935930E+01  0.22107951219E+01  0.26000000000E-02 0.  1.
          2   -1    0    0  501    0  0.00000000000E+00 -0.00000000000E+00 -0.97883881707E+02  0.97883881742E+02  0.26000000000E-02 0. -1.
        -13    1    1    2    0    0  0.13783332765E+02  0.49142349280E+01 -0.52951067488E+02  0.54935932573E+02  0.10570000000E+00 0. -1.
         13    1    1    2    0    0 -0.13783332765E+02 -0.49142349280E+01 -0.42722020627E+02  0.45158744291E+02  0.10570000000E+00 0.  1.
<mgrwt>
<rscale>  0 0.29421158E+02</rscale>
<asrwt>0</asrwt>
<pdfrwt beam="2">  1        2 0.15059056E-01 0.29421158E+02</pdfrwt>
<pdfrwt beam="1">  1       -2 0.34012229E-03 0.29421158E+02</pdfrwt>
<totfact> 0.21765541E+06</totfact>
</mgrwt>
</event>
<event>
 4    1  0.3704929E-001  0.2506280E+02  0.7818608E-02  0.1660101E+00
         -2   -1    0    0    0  501 -0.00000000000E+00  0.00000000000E+00  0.13023625610E+01  0.13023651562E+01  0.26000000000E-02 0. -1.
          2   -1    0    0  501    0  0.00000000000E+00 -0.00000000000E+00 -0.12057769808E+03  0.12057769811E+03  0.26000000000E-02 0.  1.
        -13    1    1    2    0    0  0.10671256851E+02  0.64616690913E+01 -0.65383356720E+02  0.66562928111E+02  0.10570000000E+00 0.  1.
         13    1    1    2    0    0 -0.10671256851E+02 -0.64616690913E+01 -0.53891978802E+02  0.55317135156E+02  0.10570000000E+00 0. -1.
<mgrwt>
<rscale>  0 0.25062804E+02</rscale>
<asrwt>0</asrwt>
<pdfrwt beam="2">  1        2 0.18550407E-01 0.25062804E+02</pdfrwt>
<pdfrwt beam="1">  1       -2 0.20036377E-03 0.25062804E+02</pdfrwt>
<totfact> 0.33240184E+06</totfact>
</mgrwt>
</event>
<event>
 4    1  0.3704929E-001  0.1064591E+03  0.7818608E-02  0.1267271E+00
          2   -1    0    0  501    0  0.00000000000E+00  0.00000000000E+00  0.11045044161E+03  0.11045044164E+03  0.26000000000E-02 0. -1.
         -2   -1    0    0    0  501 -0.00000000000E+00 -0.00000000000E+00 -0.25653006033E+02  0.25653006165E+02  0.26000000000E-02 0.  1.
        -13    1    1    2    0    0 -0.36629145041E+02 -0.30695006006E+02  0.12429946135E+02  0.49380080939E+02  0.10570000000E+00 0.  1.
         13    1    1    2    0    0  0.36629145041E+02  0.30695006006E+02  0.72367489441E+02  0.86723366866E+02  0.10570000000E+00 0. -1.
<mgrwt>
<rscale>  0 0.10645912E+03</rscale>
<asrwt>0</asrwt>
<pdfrwt beam="1">  1        2 0.16992376E-01 0.10645912E+03</pdfrwt>
<pdfrwt beam="2">  1       -2 0.39466162E-02 0.10645912E+03</pdfrwt>
<totfact> 0.82287264E+04</totfact>
</mgrwt>
</event>
<event>
 4    1  0.3704929E-001  0.2067342E+02  0.7818608E-02  0.1732259E+00
          2   -1    0    0  501    0  0.00000000000E+00  0.00000000000E+00  0.55313719837E+02  0.55313719898E+02  0.26000000000E-02 0. -1.
         -2   -1    0    0    0  501 -0.00000000000E+00 -0.00000000000E+00 -0.19316633075E+01  0.19316650573E+01  0.26000000000E-02 0.  1.
        -13    1    1    2    0    0  0.30195359207E+01  0.98792242128E+01  0.27649026389E+02  0.29516038030E+02  0.10570000000E+00 0.  1.
         13    1    1    2    0    0 -0.30195359207E+01 -0.98792242128E+01  0.25733030141E+02  0.27729346926E+02  0.10570000000E+00 0. -1.
<mgrwt>
<rscale>  0 0.20673416E+02</rscale>
<asrwt>0</asrwt>
<pdfrwt beam="1">  1        2 0.85098017E-02 0.20673416E+02</pdfrwt>
<pdfrwt beam="2">  1       -2 0.29717916E-03 0.20673416E+02</pdfrwt>
<totfact> 0.43708828E+06</totfact>
</mgrwt>
</event>
<event>
 4    1  0.3704929E-001  0.4662120E+02  0.7818608E-02  0.1464467E+00
          2   -1    0    0  501    0  0.00000000000E+00  0.00000000000E+00  0.28973218608E+02  0.28973218725E+02  0.26000000000E-02 0. -1.
         -2   -1    0    0    0  501 -0.00000000000E+00 -0.00000000000E+00 -0.18754701076E+02  0.18754701256E+02  0.26000000000E-02 0.  1.
        -13    1    1    2    0    0  0.82465242092E+00 -0.23239125285E+02  0.67713427573E+01  0.24219811124E+02  0.10570000000E+00 0. -1.
         13    1    1    2    0    0 -0.82465242092E+00  0.23239125285E+02  0.34471747744E+01  0.23508108857E+02  0.10570000000E+00 0.  1.
<mgrwt>
<rscale>  0 0.46621200E+02</rscale>
<asrwt>0</asrwt>
<pdfrwt beam="1">  1        2 0.44574183E-02 0.46621200E+02</pdfrwt>
<pdfrwt beam="2">  1       -2 0.28853387E-02 0.46621200E+02</pdfrwt>
<totfact> 0.56013861E+05</totfact>
</mgrwt>
</event>
<event>
 4    1  0.3704929E-001  0.3536209E+02  0.7818608E-02  0.1545408E+00
         -2   -1    0    0    0  501 -0.00000000000E+00  0.00000000000E+00  0.32189046597E+02  0.32189046702E+02  0.26000000000E-02 0.  1.
          2   -1    0    0  501    0  0.00000000000E+00 -0.00000000000E+00 -0.97119811475E+01  0.97119814955E+01  0.26000000000E-02 0. -1.
        -13    1    1    2    0    0 -0.79202160626E+01  0.78669187939E+01 -0.50077534594E+01  0.12235481232E+02  0.10570000000E+00 0. -1.
         13    1    1    2    0    0  0.79202160626E+01 -0.78669187939E+01  0.27484818909E+02  0.29665546966E+02  0.10570000000E+00 0.  1.
<mgrwt>
<rscale>  0 0.35362094E+02</rscale>
<asrwt>0</asrwt>
<pdfrwt beam="2">  1        2 0.14941510E-02 0.35362094E+02</pdfrwt>
<pdfrwt beam="1">  1       -2 0.49521611E-02 0.35362094E+02</pdfrwt>
<totfact> 0.98724772E+05</totfact>
</mgrwt>
</event>
<event>
 4    1  0.3704929E-001  0.7376138E+02  0.7818608E-02  0.1347750E+00
         -2   -1    0    0    0  501 -0.00000000000E+00  0.00000000000E+00  0.90659048664E+01  0.90659052393E+01  0.26000000000E-02 0. -1.
          2   -1    0    0  501    0  0.00000000000E+00 -0.00000000000E+00 -0.15003303005E+03  0.15003303008E+03  0.26000000000E-02 0.  1.
        -13    1    1    2    0    0 -0.35276931278E+02 -0.96291487457E+01 -0.60141115055E+02  0.70385703652E+02  0.10570000000E+00 0.  1.
         13    1    1    2    0    0  0.35276931278E+02  0.96291487457E+01 -0.80826010133E+02  0.88713231665E+02  0.10570000000E+00 0. -1.
<mgrwt>
<rscale>  0 0.73761378E+02</rscale>
<asrwt>0</asrwt>
<pdfrwt beam="2">  1        2 0.23082003E-01 0.73761378E+02</pdfrwt>
<pdfrwt beam="1">  1       -2 0.13947547E-02 0.73761378E+02</pdfrwt>
<totfact> 0.24658289E+05</totfact>
</mgrwt>
</event>
<event>
 4    1  0.3704929E-001  0.3017401E+02  0.7818608E-02  0.1596173E+00
          2   -1    0    0  501    0  0.00000000000E+00  0.00000000000E+00  0.55255200349E+02  0.55255200411E+02  0.26000000000E-02 0. -1.
         -2   -1    0    0    0  501 -0.00000000000E+00 -0.00000000000E+00 -0.41193904475E+01  0.41193912680E+01  0.26000000000E-02 0.  1.
        -13    1    1    2    0    0  0.77492361344E+01  0.11243616874E+02  0.38188619852E+02  0.40556768113E+02  0.10570000000E+00 0. -1.
         13    1    1    2    0    0 -0.77492361344E+01 -0.11243616874E+02  0.12947190050E+02  0.18817823566E+02  0.10570000000E+00 0.  1.
<mgrwt>
<rscale>  0 0.30174013E+02</rscale>
<asrwt>0</asrwt>
<pdfrwt beam="1">  1        2 0.85007996E-02 0.30174013E+02</pdfrwt>
<pdfrwt beam="2">  1       -2 0.63375248E-03 0.30174013E+02</pdfrwt>
<totfact> 0.18238549E+06</totfact>
</mgrwt>
</event>
<event>
 4    1  0.3704929E-001  0.2625271E+02  0.7818608E-02  0.1643634E+00
          2   -1    0    0  501    0  0.00000000000E+00  0.00000000000E+00  0.44310656173E+02  0.44310656250E+02  0.26000000000E-02 0. -1.
         -2   -1    0    0    0  501 -0.00000000000E+00 -0.00000000000E+00 -0.38884811114E+01  0.38884819806E+01  0.26000000000E-02 0.  1.
        -13    1    1    2    0    0 -0.10233694019E+02  0.58343606920E+01  0.95812053597E+01  0.15184825537E+02  0.10570000000E+00 0. -1.
         13    1    1    2    0    0  0.10233694019E+02 -0.58343606920E+01  0.30840969702E+02  0.33014312693E+02  0.10570000000E+00 0.  1.
<mgrwt>
<rscale>  0 0.26252708E+02</rscale>
<asrwt>0</asrwt>
<pdfrwt beam="1">  1        2 0.68170240E-02 0.26252708E+02</pdfrwt>
<pdfrwt beam="2">  1       -2 0.59822794E-03 0.26252708E+02</pdfrwt>
<totfact> 0.24446430E+06</totfact>
</mgrwt>
</event>
<event>
 4    1  0.3704929E-001  0.5026721E+02  0.7818608E-02  0.1443906E+00
          2   -1    0    0  501    0  0.00000000000E+00  0.00000000000E+00  0.19989239422E+02  0.19989239591E+02  0.26000000000E-02 0. -1.
         -2   -1    0    0    0  501 -0.00000000000E+00 -0.00000000000E+00 -0.31601911320E+02  0.31601911427E+02  0.26000000000E-02 0.  1.
        -13    1    1    2    0    0 -0.11598092145E+02  0.22495100375E+01 -0.28574181262E+02  0.30920398511E+02  0.10570000000E+00 0.  1.
         13    1    1    2    0    0  0.11598092145E+02 -0.22495100375E+01  0.16961509364E+02  0.20670752507E+02  0.10570000000E+00 0. -1.
<mgrwt>
<rscale>  0 0.50267213E+02</rscale>
<asrwt>0</asrwt>
<pdfrwt beam="1">  1        2 0.30752676E-02 0.50267213E+02</pdfrwt>
<pdfrwt beam="2">  1       -2 0.48618325E-02 0.50267213E+02</pdfrwt>
<totfact> 0.43408815E+05</totfact>
</mgrwt>
</event>
<event>
 4    1  0.3704929E-001  0.2371510E+02  0.7818608E-02  0.1680174E+00
          2   -1    0    0  501    0  0.00000000000E+00  0.00000000000E+00  0.36831610494E+01  0.36831619671E+01  0.26000000000E-02 0.  1.
         -2   -1    0    0    0  501 -0.00000000000E+00 -0.00000000000E+00 -0.38174121618E+02  0.38174121707E+02  0.26000000000E-02 0. -1.
        -13    1    1    2    0    0 -0.39201910454E+01 -0.92781154461E+01 -0.28287557657E+02  0.30027461011E+02  0.10570000000E+00 0. -1.
         13    1    1    2    0    0  0.39201910454E+01  0.92781154461E+01 -0.62034029120E+01  0.11829822663E+02  0.10570000000E+00 0.  1.
<mgrwt>
<rscale>  0 0.23715097E+02</rscale>
<asrwt>0</asrwt>
<pdfrwt beam="1">  1        2 0.56664027E-03 0.23715097E+02</pdfrwt>
<pdfrwt beam="2">  1       -2 0.58729416E-02 0.23715097E+02</pdfrwt>
<totfact> 0.24090957E+06</totfact>
</mgrwt>
</event>
<event>
 4    1  0.3704929E-001  0.6810114E+02  0.7818608E-02  0.1366672E+00
         -2   -1    0    0    0  501 -0.00000000000E+00  0.00000000000E+00  0.45384412836E+01  0.45384420283E+01  0.26000000000E-02 0.  1.
          2   -1    0    0  501    0  0.00000000000E+00 -0.00000000000E+00 -0.25547120539E+03  0.25547120540E+03  0.26000000000E-02 0. -1.
        -13    1    1    2    0    0  0.19441059406E+02 -0.24313400901E+02 -0.17813998147E+03  0.18083959861E+03  0.10570000000E+00 0. -1.
         13    1    1    2    0    0 -0.19441059406E+02  0.24313400901E+02 -0.72792782635E+02  0.79170048822E+02  0.10570000000E+00 0.  1.
<mgrwt>
<rscale>  0 0.68101135E+02</rscale>
<asrwt>0</asrwt>
<pdfrwt beam="2">  1        2 0.39303251E-01 0.68101135E+02</pdfrwt>
<pdfrwt beam="1">  1       -2 0.69822199E-03 0.68101135E+02</pdfrwt>
<totfact> 0.36472403E+05</totfact>
</mgrwt>
</event>
<event>
 4    1  0.3704929E-001  0.3460477E+02  0.7818608E-02  0.1552139E+00
         -2   -1    0    0    0  501 -0.00000000000E+00  0.00000000000E+00  0.46178881197E+01  0.46178888516E+01  0.26000000000E-02 0.  1.
          2   -1    0    0  501    0  0.00000000000E+00 -0.00000000000E+00 -0.64828881167E+02  0.64828881219E+02  0.26000000000E-02 0. -1.
        -13    1    1    2    0    0  0.14033539257E+02  0.51941704187E+01 -0.47536481588E+02  0.49836210577E+02  0.10570000000E+00 0. -1.
         13    1    1    2    0    0 -0.14033539257E+02 -0.51941704187E+01 -0.12674511459E+02  0.19610559493E+02  0.10570000000E+00 0.  1.
<mgrwt>
<rscale>  0 0.34604771E+02</rscale>
<asrwt>0</asrwt>
<pdfrwt beam="2">  1        2 0.99736734E-02 0.34604771E+02</pdfrwt>
<pdfrwt beam="1">  1       -2 0.71044443E-03 0.34604771E+02</pdfrwt>
<totfact> 0.13514456E+06</totfact>
</mgrwt>
</event>
<event>
 4    1  0.3704929E-001  0.2410753E+02  0.7818608E-02  0.1674162E+00
         -2   -1    0    0    0  501 -0.00000000000E+00  0.00000000000E+00  0.23169366690E+01  0.23169381278E+01  0.26000000000E-02 0. -1.
          2   -1    0    0  501    0  0.00000000000E+00 -0.00000000000E+00 -0.62709175872E+02  0.62709175926E+02  0.26000000000E-02 0.  1.
        -13    1    1    2    0    0 -0.58637302197E+01  0.10522667396E+02 -0.29076791529E+02  0.31473494234E+02  0.10570000000E+00 0.  1.
         13    1    1    2    0    0  0.58637302197E+01 -0.10522667396E+02 -0.31315447674E+02  0.33552619819E+02  0.10570000000E+00 0. -1.
<mgrwt>
<rscale>  0 0.24107529E+02</rscale>
<asrwt>0</asrwt>
<pdfrwt beam="2">  1        2 0.96475643E-02 0.24107529E+02</pdfrwt>
<pdfrwt beam="1">  1       -2 0.35645196E-03 0.24107529E+02</pdfrwt>
<totfact> 0.31521083E+06</totfact>
</mgrwt>
</event>
<event>
 4    1  0.3704929E-001  0.5133846E+02  0.7818608E-02  0.1438253E+00
         -2   -1    0    0    0  501 -0.00000000000E+00  0.00000000000E+00  0.48057277357E+01  0.48057284391E+01  0.26000000000E-02 0.  1.
          2   -1    0    0  501    0  0.00000000000E+00 -0.00000000000E+00 -0.13710917626E+03  0.13710917628E+03  0.26000000000E-02 0. -1.
        -13    1    1    2    0    0  0.25084811942E+02  0.50748365172E+01 -0.60695123404E+02  0.65870410150E+02  0.10570000000E+00 0. -1.
         13    1    1    2    0    0 -0.25084811942E+02 -0.50748365172E+01 -0.71608325117E+02  0.76044494570E+02  0.10570000000E+00 0.  1.
<mgrwt>
<rscale>  0 0.51338462E+02</rscale>
<asrwt>0</asrwt>
<pdfrwt beam="2">  1        2 0.21093717E-01 0.51338462E+02</pdfrwt>
<pdfrwt beam="1">  1       -2 0.73934289E-03 0.51338462E+02</pdfrwt>
<totfact> 0.61155731E+05</totfact>
</mgrwt>
</event>
<event>
 4    1  0.3704929E-001  0.3029138E+02  0.7818608E-02  0.1594890E+00
          2   -1    0    0  501    0  0.00000000000E+00  0.00000000000E+00  0.70969282110E+01  0.70969286872E+01  0.26000000000E-02 0. -1.
         -2   -1    0    0    0  501 -0.00000000000E+00 -0.00000000000E+00 -0.32322696506E+02  0.32322696611E+02  0.26000000000E-02 0.  1.
        -13    1    1    2    0    0  0.25406354708E+01 -0.14743611954E+02 -0.15679146853E+02  0.21672003613E+02  0.10570000000E+00 0. -1.
         13    1    1    2    0    0 -0.25406354708E+01  0.14743611954E+02 -0.95466214417E+01  0.17747621685E+02  0.10570000000E+00 0.  1.
<mgrwt>
<rscale>  0 0.30291376E+02</rscale>
<asrwt>0</asrwt>
<pdfrwt beam="1">  1        2 0.10918352E-02 0.30291376E+02</pdfrwt>
<pdfrwt beam="2">  1       -2 0.49727225E-02 0.30291376E+02</pdfrwt>
<totfact> 0.14106303E+06</totfact>
</mgrwt>
</event>
<event>
 4    1  0.3704929E-001  0.3804468E+02  0.7818608E-02  0.1523114E+00
          2   -1    0    0  501    0  0.00000000000E+00  0.00000000000E+00  0.19239229803E+01  0.19239247371E+01  0.26000000000E-02 0. -1.
         -2   -1    0    0    0  501 -0.00000000000E+00 -0.00000000000E+00 -0.18807889701E+03  0.18807889702E+03  0.26000000000E-02 0.  1.
        -13    1    1    2    0    0  0.18543277295E+02 -0.40800958921E+01 -0.98854362068E+02  0.10066129538E+03  0.10570000000E+00 0. -1.
         13    1    1    2    0    0 -0.18543277295E+02  0.40800958921E+01 -0.87300611957E+02  0.89341526380E+02  0.10570000000E+00 0.  1.
<mgrwt>
<rscale>  0 0.38044683E+02</rscale>
<asrwt>0</asrwt>
<pdfrwt beam="1">  1        2 0.29598844E-03 0.38044683E+02</pdfrwt>
<pdfrwt beam="2">  1       -2 0.28935200E-01 0.38044683E+02</pdfrwt>
<totfact> 0.56031759E+05</totfact>
</mgrwt>
</event>
<event>
 4    1  0.3704929E-001  0.2742904E+02  0.7818608E-02  0.1628380E+00
         -2   -1    0    0    0  501 -0.00000000000E+00  0.00000000000E+00  0.61474730837E+01  0.61474736335E+01  0.26000000000E-02 0. -1.
          2   -1    0    0  501    0  0.00000000000E+00 -0.00000000000E+00 -0.30595992887E+02  0.30595992997E+02  0.26000000000E-02 0.  1.
        -13    1    1    2    0    0  0.12238230760E+02 -0.41059061675E+01 -0.18427572801E+02  0.22499319310E+02  0.10570000000E+00 0.  1.
         13    1    1    2    0    0 -0.12238230760E+02  0.41059061675E+01 -0.60209470022E+01  0.14244147321E+02  0.10570000000E+00 0. -1.
<mgrwt>
<rscale>  0 0.27429040E+02</rscale>
<asrwt>0</asrwt>
<pdfrwt beam="2">  1        2 0.47070758E-02 0.27429040E+02</pdfrwt>
<pdfrwt beam="1">  1       -2 0.94576516E-03 0.27429040E+02</pdfrwt>
<totfact> 0.20982320E+06</totfact>
</mgrwt>
</event>
<event>
 4    1  0.3704929E-001  0.7814994E+02  0.7818608E-02  0.1334385E+00
         -2   -1    0    0    0  501 -0.00000000000E+00  0.00000000000E+00  0.80929740735E+01  0.80929744912E+01  0.26000000000E-02 0.  1.
          2   -1    0    0  501    0  0.00000000000E+00 -0.00000000000E+00 -0.18866404563E+03  0.18866404565E+03  0.26000000000E-02 0. -1.
        -13    1    1    2    0    0 -0.29239542344E+02 -0.23005231224E+02 -0.12035587936E+03  0.12597515774E+03  0.10570000000E+00 0. -1.
         13    1    1    2    0    0  0.29239542344E+02  0.23005231224E+02 -0.60215192203E+02  0.70781862399E+02  0.10570000000E+00 0.  1.
<mgrwt>
<rscale>  0 0.78149940E+02</rscale>
<asrwt>0</asrwt>
<pdfrwt beam="2">  1        2 0.29025234E-01 0.78149940E+02</pdfrwt>
<pdfrwt beam="1">  1       -2 0.12450731E-02 0.78149940E+02</pdfrwt>
<totfact> 0.22861843E+05</totfact>
</mgrwt>
</event>
<event>
 4    1  0.3704929E-001  0.2691354E+03  0.7818608E-02  0.1101775E+00
          2   -1    0    0  501    0  0.00000000000E+00  0.00000000000E+00  0.25288232269E+03  0.25288232271E+03  0.26000000000E-02 0. -1.
         -2   -1    0    0    0  501 -0.00000000000E+00 -0.00000000000E+00 -0.71608270831E+02  0.71608270878E+02  0.26000000000E-02 0.  1.
        -13    1    1    2    0    0  0.12725236766E+03 -0.13484701183E+02  0.40438928947E+02  0.13420253495E+03  0.10570000000E+00 0.  1.
         13    1    1    2    0    0 -0.12725236766E+03  0.13484701183E+02  0.14083512291E+03  0.19028805863E+03  0.10570000000E+00 0. -1.
<mgrwt>
<rscale>  0 0.26913540E+03</rscale>
<asrwt>0</asrwt>
<pdfrwt beam="1">  1        2 0.38904973E-01 0.26913540E+03</pdfrwt>
<pdfrwt beam="2">  1       -2 0.11016657E-01 0.26913540E+03</pdfrwt>
<totfact> 0.74125527E+03</totfact>
</mgrwt>
</event>
<event>
 4    1  0.3704929E-001  0.2515680E+02  0.7818608E-02  0.1658760E+00
          2   -1    0    0  501    0  0.00000000000E+00  0.00000000000E+00  0.10315173796E+02  0.10315174123E+02  0.26000000000E-02 0.  1.
         -2   -1    0    0    0  501 -0.00000000000E+00 -0.00000000000E+00 -0.15338190087E+02  0.15338190307E+02  0.26000000000E-02 0. -1.
        -13    1    1    2    0    0 -0.81972737180E+01  0.85149437942E+01  0.18751909121E+01  0.11967751571E+02  0.10570000000E+00 0.  1.
         13    1    1    2    0    0  0.81972737180E+01 -0.85149437942E+01 -0.68982072034E+01  0.13685612859E+02  0.10570000000E+00 0. -1.
<mgrwt>
<rscale>  0 0.25156797E+02</rscale>
<asrwt>0</asrwt>
<pdfrwt beam="1">  1        2 0.15869499E-02 0.25156797E+02</pdfrwt>
<pdfrwt beam="2">  1       -2 0.23597216E-02 0.25156797E+02</pdfrwt>
<totfact> 0.23132049E+06</totfact>
</mgrwt>
</event>
<event>
 4    1  0.3704929E-001  0.3442156E+02  0.7818608E-02  0.1553798E+00
          2   -1    0    0  501    0  0.00000000000E+00  0.00000000000E+00  0.47232241925E+02  0.47232241997E+02  0.26000000000E-02 0. -1.
         -2   -1    0    0    0  501 -0.00000000000E+00 -0.00000000000E+00 -0.62713716562E+01  0.62713721952E+01  0.26000000000E-02 0.  1.
        -13    1    1    2    0    0  0.15655399708E+02  0.65522345403E+01  0.24925063729E+02  0.30154490410E+02  0.10570000000E+00 0. -1.
         13    1    1    2    0    0 -0.15655399708E+02 -0.65522345403E+01  0.16035806540E+02  0.23349123782E+02  0.10570000000E+00 0.  1.
<mgrwt>
<rscale>  0 0.34421561E+02</rscale>
<asrwt>0</asrwt>
<pdfrwt beam="1">  1        2 0.72664985E-02 0.34421561E+02</pdfrwt>
<pdfrwt beam="2">  1       -2 0.96482650E-03 0.34421561E+02</pdfrwt>
<totfact> 0.12934553E+06</totfact>
</mgrwt>
</event>
<event>
 4    1  0.3704929E-001  0.3278549E+02  0.7818608E-02  0.1569194E+00
          2   -1    0    0  501    0  0.00000000000E+00  0.00000000000E+00  0.89675536447E+01  0.89675540216E+01  0.26000000000E-02 0. -1.
         -2   -1    0    0    0  501 -0.00000000000E+00 -0.00000000000E+00 -0.29966035723E+02  0.29966035836E+02  0.26000000000E-02 0.  1.
        -13    1    1    2    0    0  0.12017232200E+02  0.14840903468E-01 -0.23738776493E+02  0.26607419489E+02  0.10570000000E+00 0.  1.
         13    1    1    2    0    0 -0.12017232200E+02 -0.14840903468E-01  0.27402944140E+01  0.12326170369E+02  0.10570000000E+00 0. -1.
<mgrwt>
<rscale>  0 0.32785487E+02</rscale>
<asrwt>0</asrwt>
<pdfrwt beam="1">  1        2 0.13796237E-02 0.32785487E+02</pdfrwt>
<pdfrwt beam="2">  1       -2 0.46101593E-02 0.32785487E+02</pdfrwt>
<totfact> 0.11864640E+06</totfact>
</mgrwt>
</event>
<event>
 4    1  0.3704929E-001  0.7241613E+02  0.7818608E-02  0.1352064E+00
         -2   -1    0    0    0  501 -0.00000000000E+00  0.00000000000E+00  0.20421894124E+02  0.20421894290E+02  0.26000000000E-02 0.  1.
          2   -1    0    0  501    0  0.00000000000E+00 -0.00000000000E+00 -0.64196989889E+02  0.64196989941E+02  0.26000000000E-02 0. -1.
        -13    1    1    2    0    0 -0.26936449151E+02  0.19090627437E+02 -0.39258231414E+02  0.51295655323E+02  0.10570000000E+00 0. -1.
         13    1    1    2    0    0  0.26936449151E+02 -0.19090627437E+02 -0.45168643506E+01  0.33323228908E+02  0.10570000000E+00 0.  1.
<mgrwt>
<rscale>  0 0.72416135E+02</rscale>
<asrwt>0</asrwt>
<pdfrwt beam="2">  1        2 0.98764599E-02 0.72416135E+02</pdfrwt>
<pdfrwt beam="1">  1       -2 0.31418299E-02 0.72416135E+02</pdfrwt>
<totfact> 0.20376691E+05</totfact>
</mgrwt>
</event>
<event>
 4    1  0.3704929E-001  0.2704750E+02  0.7818608E-02  0.1633223E+00
          2   -1    0    0  501    0  0.00000000000E+00  0.00000000000E+00  0.39375786663E+02  0.39375786749E+02  0.26000000000E-02 0. -1.
         -2   -1    0    0    0  501 -0.00000000000E+00 -0.00000000000E+00 -0.46447774992E+01  0.46447782269E+01  0.26000000000E-02 0.  1.
        -13    1    1    2    0    0  0.10582110678E+02  0.23858843645E-01  0.36614682081E+01  0.11198176529E+02  0.10570000000E+00 0.  1.
         13    1    1    2    0    0 -0.10582110678E+02 -0.23858843645E-01  0.31069540956E+02  0.32822388447E+02  0.10570000000E+00 0. -1.
<mgrwt>
<rscale>  0 0.27047498E+02</rscale>
<asrwt>0</asrwt>
<pdfrwt beam="1">  1        2 0.60578133E-02 0.27047498E+02</pdfrwt>
<pdfrwt beam="2">  1       -2 0.71458123E-03 0.27047498E+02</pdfrwt>
<totfact> 0.22411654E+06</totfact>
</mgrwt>
</event>
<event>
 4    1  0.3704929E-001  0.2561666E+02  0.7818608E-02  0.1652299E+00
          2   -1    0    0  501    0  0.00000000000E+00  0.00000000000E+00  0.82636045724E+02  0.82636045765E+02  0.26000000000E-02 0.  1.
         -2   -1    0    0    0  501 -0.00000000000E+00 -0.00000000000E+00 -0.19852498096E+01  0.19852515122E+01  0.26000000000E-02 0. -1.
        -13    1    1    2    0    0 -0.88987774971E+01  0.92100079004E+01  0.40893816230E+02  0.42852396255E+02  0.10570000000E+00 0. -1.
         13    1    1    2    0    0  0.88987774971E+01 -0.92100079004E+01  0.39756979685E+02  0.41768901022E+02  0.10570000000E+00 0.  1.
<mgrwt>
<rscale>  0 0.25616656E+02</rscale>
<asrwt>0</asrwt>
<pdfrwt beam="1">  1        2 0.12713236E-01 0.25616656E+02</pdfrwt>
<pdfrwt beam="2">  1       -2 0.30542323E-03 0.25616656E+02</pdfrwt>
<totfact> 0.28931125E+06</totfact>
</mgrwt>
</event>
<event>
 4    1  0.3704929E-001  0.2439193E+02  0.7818608E-02  0.1669893E+00
         -2   -1    0    0    0  501 -0.00000000000E+00  0.00000000000E+00  0.79567977599E+02  0.79567977642E+02  0.26000000000E-02 0. -1.
          2   -1    0    0  501    0  0.00000000000E+00 -0.00000000000E+00 -0.18693632557E+01  0.18693650638E+01  0.26000000000E-02 0.  1.
        -13    1    1    2    0    0  0.33017617087E+01  0.11480863634E+02  0.47040015832E+02  0.48533350617E+02  0.10570000000E+00 0. -1.
         13    1    1    2    0    0 -0.33017617087E+01 -0.11480863634E+02  0.30658598511E+02  0.32903992088E+02  0.10570000000E+00 0.  1.
<mgrwt>
<rscale>  0 0.24391927E+02</rscale>
<asrwt>0</asrwt>
<pdfrwt beam="2">  1        2 0.28759449E-03 0.24391927E+02</pdfrwt>
<pdfrwt beam="1">  1       -2 0.12241227E-01 0.24391927E+02</pdfrwt>
<totfact> 0.20143004E+06</totfact>
</mgrwt>
</event>
<event>
 4    1  0.3704929E-001  0.3009318E+02  0.7818608E-02  0.1597061E+00
         -2   -1    0    0    0  501 -0.00000000000E+00  0.00000000000E+00  0.22197381817E+02  0.22197381969E+02  0.26000000000E-02 0. -1.
          2   -1    0    0  501    0  0.00000000000E+00 -0.00000000000E+00 -0.10199394706E+02  0.10199395037E+02  0.26000000000E-02 0.  1.
        -13    1    1    2    0    0 -0.12996327753E+02  0.23473077425E+01  0.13760179241E+02  0.19072705470E+02  0.10570000000E+00 0. -1.
         13    1    1    2    0    0  0.12996327753E+02 -0.23473077425E+01 -0.17621921307E+01  0.13324071536E+02  0.10570000000E+00 0.  1.
<mgrwt>
<rscale>  0 0.30093180E+02</rscale>
<asrwt>0</asrwt>
<pdfrwt beam="2">  1        2 0.15691377E-02 0.30093180E+02</pdfrwt>
<pdfrwt beam="1">  1       -2 0.34149818E-02 0.30093180E+02</pdfrwt>
<totfact> 0.14931374E+06</totfact>
</mgrwt>
</event>
<event>
 4    1  0.3704929E-001  0.3461122E+02  0.7818608E-02  0.1552080E+00
         -2   -1    0    0    0  501 -0.00000000000E+00  0.00000000000E+00  0.11699703640E+02  0.11699703929E+02  0.26000000000E-02 0.  1.
          2   -1    0    0  501    0  0.00000000000E+00 -0.00000000000E+00 -0.25597582799E+02  0.25597582931E+02  0.26000000000E-02 0. -1.
        -13    1    1    2    0    0  0.16332087861E+02  0.38815616500E+01 -0.11478652280E+02  0.20336524910E+02  0.10570000000E+00 0. -1.
         13    1    1    2    0    0 -0.16332087861E+02 -0.38815616500E+01 -0.24192268787E+01  0.16960761950E+02  0.10570000000E+00 0.  1.
<mgrwt>
<rscale>  0 0.34611220E+02</rscale>
<asrwt>0</asrwt>
<pdfrwt beam="2">  1        2 0.39380897E-02 0.34611220E+02</pdfrwt>
<pdfrwt beam="1">  1       -2 0.17999544E-02 0.34611220E+02</pdfrwt>
<totfact> 0.11698225E+06</totfact>
</mgrwt>
</event>
<event>
 4    1  0.3704929E-001  0.3157891E+02  0.7818608E-02  0.1581264E+00
          2   -1    0    0  501    0  0.00000000000E+00  0.00000000000E+00  0.16392889888E+02  0.16392890094E+02  0.26000000000E-02 0. -1.
         -2   -1    0    0    0  501 -0.00000000000E+00 -0.00000000000E+00 -0.15208234606E+02  0.15208234828E+02  0.26000000000E-02 0.  1.
        -13    1    1    2    0    0  0.79699729378E+01  0.13392642365E+02 -0.19417275441E+01  0.15705566417E+02  0.10570000000E+00 0. -1.
         13    1    1    2    0    0 -0.79699729378E+01 -0.13392642365E+02  0.31263828263E+01  0.15895558506E+02  0.10570000000E+00 0.  1.
<mgrwt>
<rscale>  0 0.31578912E+02</rscale>
<asrwt>0</asrwt>
<pdfrwt beam="1">  1        2 0.25219831E-02 0.31578912E+02</pdfrwt>
<pdfrwt beam="2">  1       -2 0.23397284E-02 0.31578912E+02</pdfrwt>
<totfact> 0.13931990E+06</totfact>
</mgrwt>
</event>
<event>
 4    1  0.3704929E-001  0.3396482E+02  0.7818608E-02  0.1557990E+00
         -2   -1    0    0    0  501 -0.00000000000E+00  0.00000000000E+00  0.43692154398E+01  0.43692162134E+01  0.26000000000E-02 0.  1.
          2   -1    0    0  501    0  0.00000000000E+00 -0.00000000000E+00 -0.66007783853E+02  0.66007783904E+02  0.26000000000E-02 0. -1.
        -13    1    1    2    0    0 -0.41677727122E+01 -0.99093220697E+01 -0.58059220134E+02  0.59046161673E+02  0.10570000000E+00 0. -1.
         13    1    1    2    0    0  0.41677727122E+01  0.99093220697E+01 -0.35793482791E+01  0.11330838444E+02  0.10570000000E+00 0.  1.
<mgrwt>
<rscale>  0 0.33964820E+02</rscale>
<asrwt>0</asrwt>
<pdfrwt beam="2">  1        2 0.10155043E-01 0.33964820E+02</pdfrwt>
<pdfrwt beam="1">  1       -2 0.67218710E-03 0.33964820E+02</pdfrwt>
<totfact> 0.14188788E+06</totfact>
</mgrwt>
</event>
<event>
 4    1  0.3704929E-001  0.6016847E+02  0.7818608E-02  0.1397126E+00
         -2   -1    0    0    0  501 -0.00000000000E+00  0.00000000000E+00  0.37892101888E+02  0.37892101977E+02  0.26000000000E-02 0. -1.
          2   -1    0    0  501    0  0.00000000000E+00 -0.00000000000E+00 -0.23885220482E+02  0.23885220623E+02  0.26000000000E-02 0.  1.
        -13    1    1    2    0    0  0.80500828111E+01  0.21117627835E+02 -0.13384299669E+02  0.26266112936E+02  0.10570000000E+00 0.  1.
         13    1    1    2    0    0 -0.80500828111E+01 -0.21117627835E+02  0.27391181075E+02  0.35511209664E+02  0.10570000000E+00 0. -1.
<mgrwt>
<rscale>  0 0.60168471E+02</rscale>
<asrwt>0</asrwt>
<pdfrwt beam="2">  1        2 0.36746493E-02 0.60168471E+02</pdfrwt>
<pdfrwt beam="1">  1       -2 0.58295541E-02 0.60168471E+02</pdfrwt>
<totfact> 0.27504445E+05</totfact>
</mgrwt>
</event>
<event>
 4    1  0.3704929E-001  0.3041457E+03  0.7818608E-02  0.1083186E+00
          2   -1    0    0  501    0  0.00000000000E+00  0.00000000000E+00  0.59567076881E+03  0.59567076882E+03  0.26000000000E-02 0. -1.
         -2   -1    0    0    0  501 -0.00000000000E+00 -0.00000000000E+00 -0.38823725951E+02  0.38823726038E+02  0.26000000000E-02 0.  1.
        -13    1    1    2    0    0  0.24915013306E+00 -0.11053616977E+03  0.60544455930E+02  0.12603154058E+03  0.10570000000E+00 0.  1.
         13    1    1    2    0    0 -0.24915013306E+00  0.11053616977E+03  0.49630258693E+03  0.50846295428E+03  0.10570000000E+00 0. -1.
<mgrwt>
<rscale>  0 0.30414575E+03</rscale>
<asrwt>0</asrwt>
<pdfrwt beam="1">  1        2 0.91641660E-01 0.30414575E+03</pdfrwt>
<pdfrwt beam="2">  1       -2 0.59728807E-02 0.30414575E+03</pdfrwt>
<totfact> 0.75824448E+03</totfact>
</mgrwt>
</event>
<event>
 4    1  0.3704929E-001  0.3117883E+02  0.7818608E-02  0.1585412E+00
          2   -1    0    0  501    0  0.00000000000E+00  0.00000000000E+00  0.63340234279E+01  0.63340239615E+01  0.26000000000E-02 0.  1.
         -2   -1    0    0    0  501 -0.00000000000E+00 -0.00000000000E+00 -0.38368947473E+02  0.38368947561E+02  0.26000000000E-02 0. -1.
        -13    1    1    2    0    0 -0.62918323274E+01  0.14262398116E+02 -0.16195961112E+02  0.22479401302E+02  0.10570000000E+00 0.  1.
         13    1    1    2    0    0  0.62918323274E+01 -0.14262398116E+02 -0.15838962933E+02  0.22223570221E+02  0.10570000000E+00 0. -1.
<mgrwt>
<rscale>  0 0.31178828E+02</rscale>
<asrwt>0</asrwt>
<pdfrwt beam="1">  1        2 0.97446521E-03 0.31178828E+02</pdfrwt>
<pdfrwt beam="2">  1       -2 0.59029149E-02 0.31178828E+02</pdfrwt>
<totfact> 0.12920402E+06</totfact>
</mgrwt>
</event>
<event>
 4    1  0.3704929E-001  0.2133659E+02  0.7818608E-02  0.1719984E+00
          2   -1    0    0  501    0  0.00000000000E+00  0.00000000000E+00  0.48478467694E+02  0.48478467764E+02  0.26000000000E-02 0. -1.
         -2   -1    0    0    0  501 -0.00000000000E+00 -0.00000000000E+00 -0.23476911722E+01  0.23476926119E+01  0.26000000000E-02 0.  1.
        -13    1    1    2    0    0  0.46423851882E+01  0.95396639614E+01  0.25722707105E+02  0.27824912615E+02  0.10570000000E+00 0. -1.
         13    1    1    2    0    0 -0.46423851882E+01 -0.95396639614E+01  0.20408069416E+02  0.23001247760E+02  0.10570000000E+00 0.  1.
<mgrwt>
<rscale>  0 0.21336589E+02</rscale>
<asrwt>0</asrwt>
<pdfrwt beam="1">  1        2 0.74582252E-02 0.21336589E+02</pdfrwt>
<pdfrwt beam="2">  1       -2 0.36118341E-03 0.21336589E+02</pdfrwt>
<totfact> 0.39886601E+06</totfact>
</mgrwt>
</event>
<event>
 4    1  0.3704929E-001  0.3820208E+02  0.7818608E-02  0.1521875E+00
         -2   -1    0    0    0  501 -0.00000000000E+00  0.00000000000E+00  0.74784112810E+01  0.74784117330E+01  0.26000000000E-02 0.  1.
          2   -1    0    0  501    0  0.00000000000E+00 -0.00000000000E+00 -0.48787068660E+02  0.48787068730E+02  0.26000000000E-02 0. -1.
        -13    1    1    2    0    0 -0.15138785204E+02  0.92007927755E+01 -0.10136037334E+02  0.20410483348E+02  0.10570000000E+00 0.  1.
         13    1    1    2    0    0  0.15138785204E+02 -0.92007927755E+01 -0.31172620045E+02  0.35854997115E+02  0.10570000000E+00 0. -1.
<mgrwt>
<rscale>  0 0.38202083E+02</rscale>
<asrwt>0</asrwt>
<pdfrwt beam="2">  1        2 0.75057027E-02 0.38202083E+02</pdfrwt>
<pdfrwt beam="1">  1       -2 0.11505249E-02 0.38202083E+02</pdfrwt>
<totfact> 0.10069804E+06</totfact>
</mgrwt>
</event>
<event>
 4    1  0.3704929E-001  0.3265987E+02  0.7818608E-02  0.1570421E+00
          2   -1    0    0  501    0  0.00000000000E+00  0.00000000000E+00  0.65581500351E+01  0.65581505505E+01  0.26000000000E-02 0. -1.
         -2   -1    0    0    0  501 -0.00000000000E+00 -0.00000000000E+00 -0.40661886560E+02  0.40661886643E+02  0.26000000000E-02 0.  1.
        -13    1    1    2    0    0  0.58066562602E+00  0.10814435988E+02 -0.34721940814E+02  0.36371878487E+02  0.10570000000E+00 0.  1.
         13    1    1    2    0    0 -0.58066562602E+00 -0.10814435988E+02  0.61820428857E+00  0.10848158707E+02  0.10570000000E+00 0. -1.
<mgrwt>
<rscale>  0 0.32659869E+02</rscale>
<asrwt>0</asrwt>
<pdfrwt beam="1">  1        2 0.10089462E-02 0.32659869E+02</pdfrwt>
<pdfrwt beam="2">  1       -2 0.62556748E-02 0.32659869E+02</pdfrwt>
<totfact> 0.11515316E+06</totfact>
</mgrwt>
</event>
<event>
 4    1  0.3704929E-001  0.2278222E+02  0.7818608E-02  0.1695065E+00
         -2   -1    0    0    0  501 -0.00000000000E+00  0.00000000000E+00  0.10914663508E+03  0.10914663511E+03  0.26000000000E-02 0. -1.
          2   -1    0    0  501    0  0.00000000000E+00 -0.00000000000E+00 -0.11888338712E+01  0.11888367144E+01  0.26000000000E-02 0.  1.
        -13    1    1    2    0    0 -0.11030050546E+02 -0.18547082388E+01  0.43541876179E+02  0.44955623801E+02  0.10570000000E+00 0.  1.
         13    1    1    2    0    0  0.11030050546E+02  0.18547082388E+01  0.64415925029E+02  0.65379848024E+02  0.10570000000E+00 0. -1.
<mgrwt>
<rscale>  0 0.22782219E+02</rscale>
<asrwt>0</asrwt>
<pdfrwt beam="2">  1        2 0.18289766E-03 0.22782219E+02</pdfrwt>
<pdfrwt beam="1">  1       -2 0.16791798E-01 0.22782219E+02</pdfrwt>
<totfact> 0.21821957E+06</totfact>
</mgrwt>
</event>
<event>
 4    1  0.3704929E-001  0.2631082E+02  0.7818608E-02  0.1642858E+00
          2   -1    0    0  501    0  0.00000000000E+00  0.00000000000E+00  0.66471100902E+02  0.66471100953E+02  0.26000000000E-02 0. -1.
         -2   -1    0    0    0  501 -0.00000000000E+00 -0.00000000000E+00 -0.26036082182E+01  0.26036095164E+01  0.26000000000E-02 0.  1.
        -13    1    1    2    0    0 -0.11762718645E+02 -0.44750445927E+01  0.41987787888E+02  0.43833469841E+02  0.10570000000E+00 0. -1.
         13    1    1    2    0    0  0.11762718645E+02  0.44750445927E+01  0.21879704796E+02  0.25241240629E+02  0.10570000000E+00 0.  1.
<mgrwt>
<rscale>  0 0.26310815E+02</rscale>
<asrwt>0</asrwt>
<pdfrwt beam="1">  1        2 0.10226324E-01 0.26310815E+02</pdfrwt>
<pdfrwt beam="2">  1       -2 0.40055518E-03 0.26310815E+02</pdfrwt>
<totfact> 0.26031954E+06</totfact>
</mgrwt>
</event>
<event>
 4    1  0.3704929E-001  0.6872957E+02  0.7818608E-02  0.1364467E+00
          2   -1    0    0  501    0  0.00000000000E+00  0.00000000000E+00  0.18111373181E+02  0.18111373368E+02  0.26000000000E-02 0. -1.
         -2   -1    0    0    0  501 -0.00000000000E+00 -0.00000000000E+00 -0.65204249881E+02  0.65204249933E+02  0.26000000000E-02 0.  1.
        -13    1    1    2    0    0  0.24685908832E+02 -0.21394905633E+02 -0.10615285100E+02  0.34348675843E+02  0.10570000000E+00 0. -1.
         13    1    1    2    0    0 -0.24685908832E+02  0.21394905633E+02 -0.36477591600E+02  0.48966947458E+02  0.10570000000E+00 0.  1.
<mgrwt>
<rscale>  0 0.68729572E+02</rscale>
<asrwt>0</asrwt>
<pdfrwt beam="1">  1        2 0.27863652E-02 0.68729572E+02</pdfrwt>
<pdfrwt beam="2">  1       -2 0.10031423E-01 0.68729572E+02</pdfrwt>
<totfact> 0.17895157E+05</totfact>
</mgrwt>
</event>
<event>
 4    1  0.3704929E-001  0.5410464E+02  0.7818608E-02  0.1424381E+00
          2   -1    0    0  501    0  0.00000000000E+00  0.00000000000E+00  0.16037098215E+03  0.16037098217E+03  0.26000000000E-02 0. -1.
         -2   -1    0    0    0  501 -0.00000000000E+00 -0.00000000000E+00 -0.45633435905E+01  0.45633443312E+01  0.26000000000E-02 0.  1.
        -13    1    1    2    0    0 -0.24122488869E+02  0.11316930303E+02  0.63654426868E+02  0.69006265028E+02  0.10570000000E+00 0. -1.
         13    1    1    2    0    0  0.24122488869E+02 -0.11316930303E+02  0.92153211689E+02  0.95928061472E+02  0.10570000000E+00 0.  1.
<mgrwt>
<rscale>  0 0.54104638E+02</rscale>
<asrwt>0</asrwt>
<pdfrwt beam="1">  1        2 0.24672461E-01 0.54104638E+02</pdfrwt>
<pdfrwt beam="2">  1       -2 0.70205287E-03 0.54104638E+02</pdfrwt>
<totfact> 0.56175503E+05</totfact>
</mgrwt>
</event>
<event>
 4    1  0.3704929E-001  0.2212110E+02  0.7818608E-02  0.1706166E+00
          2   -1    0    0  501    0  0.00000000000E+00  0.00000000000E+00  0.87802813568E+02  0.87802813606E+02  0.26000000000E-02 0. -1.
         -2   -1    0    0    0  501 -0.00000000000E+00 -0.00000000000E+00 -0.13932999704E+01  0.13933023963E+01  0.26000000000E-02 0.  1.
        -13    1    1    2    0    0 -0.11384762250E+01 -0.10957243196E+02  0.47170432655E+02  0.48439840998E+02  0.10570000000E+00 0.  1.
         13    1    1    2    0    0  0.11384762250E+01  0.10957243196E+02  0.39239080942E+02  0.40756275005E+02  0.10570000000E+00 0. -1.
<mgrwt>
<rscale>  0 0.22121100E+02</rscale>
<asrwt>0</asrwt>
<pdfrwt beam="1">  1        2 0.13508125E-01 0.22121100E+02</pdfrwt>
<pdfrwt beam="2">  1       -2 0.21435404E-03 0.22121100E+02</pdfrwt>
<totfact> 0.40948950E+06</totfact>
</mgrwt>
</event>
<event>
 4    1  0.3704929E-001  0.2135517E+02  0.7818608E-02  0.1719649E+00
          2   -1    0    0  501    0  0.00000000000E+00  0.00000000000E+00  0.69242787287E+02  0.69242787336E+02  0.26000000000E-02 0. -1.
         -2   -1    0    0    0  501 -0.00000000000E+00 -0.00000000000E+00 -0.16465359735E+01  0.16465380263E+01  0.26000000000E-02 0.  1.
        -13    1    1    2    0    0  0.10618003973E+02  0.35347176302E+00  0.37331044386E+02  0.38813464134E+02  0.10570000000E+00 0.  1.
         13    1    1    2    0    0 -0.10618003973E+02 -0.35347176302E+00  0.30265206928E+02  0.32075861229E+02  0.10570000000E+00 0. -1.
<mgrwt>
<rscale>  0 0.21355169E+02</rscale>
<asrwt>0</asrwt>
<pdfrwt beam="1">  1        2 0.10652735E-01 0.21355169E+02</pdfrwt>
<pdfrwt beam="2">  1       -2 0.25331344E-03 0.21355169E+02</pdfrwt>
<totfact> 0.42262089E+06</totfact>
</mgrwt>
</event>
<event>
 4    1  0.3704929E-001  0.9018110E+02  0.7818608E-02  0.1302414E+00
          2   -1    0    0  501    0  0.00000000000E+00  0.00000000000E+00  0.24547121082E+03  0.24547121084E+03  0.26000000000E-02 0. -1.
         -2   -1    0    0    0  501 -0.00000000000E+00 -0.00000000000E+00 -0.82826725716E+01  0.82826729797E+01  0.26000000000E-02 0.  1.
        -13    1    1    2    0    0  0.43493717167E+02 -0.99106375820E+01  0.10009513144E+03  0.10958544922E+03  0.10570000000E+00 0.  1.
         13    1    1    2    0    0 -0.43493717167E+02  0.99106375820E+01  0.13709340681E+03  0.14416843460E+03  0.10570000000E+00 0. -1.
<mgrwt>
<rscale>  0 0.90181100E+02</rscale>
<asrwt>0</asrwt>
<pdfrwt beam="1">  1        2 0.37764804E-01 0.90181100E+02</pdfrwt>
<pdfrwt beam="2">  1       -2 0.12742573E-02 0.90181100E+02</pdfrwt>
<totfact> 0.17170139E+05</totfact>
</mgrwt>
</event>
<event>
 4    1  0.3704929E-001  0.2064466E+02  0.7818608E-02  0.1732804E+00
          2   -1    0    0  501    0  0.00000000000E+00  0.00000000000E+00  0.14690069910E+01  0.14690092919E+01  0.26000000000E-02 0. -1.
         -2   -1    0    0    0  501 -0.00000000000E+00 -0.00000000000E+00 -0.72532270239E+02  0.72532270286E+02  0.26000000000E-02 0.  1.
        -13    1    1    2    0    0  0.26589900848E+01  0.99501100206E+01 -0.37974396564E+02  0.39346421496E+02  0.10570000000E+00 0.  1.
         13    1    1    2    0    0 -0.26589900848E+01 -0.99501100206E+01 -0.33088866685E+02  0.34654858082E+02  0.10570000000E+00 0. -1.
<mgrwt>
<rscale>  0 0.20644660E+02</rscale>
<asrwt>0</asrwt>
<pdfrwt beam="1">  1        2 0.22600131E-03 0.20644660E+02</pdfrwt>
<pdfrwt beam="2">  1       -2 0.11158808E-01 0.20644660E+02</pdfrwt>
<totfact> 0.29730073E+06</totfact>
</mgrwt>
</event>
<event>
 4    1  0.3704929E-001  0.2432045E+02  0.7818608E-02  0.1670959E+00
         -2   -1    0    0    0  501 -0.00000000000E+00  0.00000000000E+00  0.18068804315E+01  0.18068823021E+01  0.26000000000E-02 0. -1.
          2   -1    0    0  501    0  0.00000000000E+00 -0.00000000000E+00 -0.81837707358E+02  0.81837707400E+02  0.26000000000E-02 0.  1.
        -13    1    1    2    0    0 -0.60183399517E+01 -0.10468607793E+02 -0.35093897527E+02  0.37113407025E+02  0.10570000000E+00 0. -1.
         13    1    1    2    0    0  0.60183399517E+01  0.10468607793E+02 -0.44936929400E+02  0.46531182677E+02  0.10570000000E+00 0.  1.
<mgrwt>
<rscale>  0 0.24320447E+02</rscale>
<asrwt>0</asrwt>
<pdfrwt beam="2">  1        2 0.12590414E-01 0.24320447E+02</pdfrwt>
<pdfrwt beam="1">  1       -2 0.27798182E-03 0.24320447E+02</pdfrwt>
<totfact> 0.32533581E+06</totfact>
</mgrwt>
</event>
<event>
 4    1  0.3704929E-001  0.3715330E+02  0.7818608E-02  0.1530270E+00
         -2   -1    0    0    0  501 -0.00000000000E+00  0.00000000000E+00  0.10943207965E+02  0.10943208274E+02  0.26000000000E-02 0.  1.
          2   -1    0    0  501    0  0.00000000000E+00 -0.00000000000E+00 -0.31534803066E+02  0.31534803174E+02  0.26000000000E-02 0. -1.
        -13    1    1    2    0    0 -0.65905288298E+00 -0.16187009975E+02 -0.20688489354E+02  0.26276955814E+02  0.10570000000E+00 0. -1.
         13    1    1    2    0    0  0.65905288298E+00  0.16187009975E+02  0.96894252539E-01  0.16201055633E+02  0.10570000000E+00 0.  1.
<mgrwt>
<rscale>  0 0.37153300E+02</rscale>
<asrwt>0</asrwt>
<pdfrwt beam="2">  1        2 0.48515082E-02 0.37153300E+02</pdfrwt>
<pdfrwt beam="1">  1       -2 0.16835705E-02 0.37153300E+02</pdfrwt>
<totfact> 0.10086974E+06</totfact>
</mgrwt>
</event>
<event>
 4    1  0.3704929E-001  0.4590990E+02  0.7818608E-02  0.1468740E+00
          2   -1    0    0  501    0  0.00000000000E+00  0.00000000000E+00  0.60003636678E+01  0.60003642311E+01  0.26000000000E-02 0. -1.
         -2   -1    0    0    0  501 -0.00000000000E+00 -0.00000000000E+00 -0.87816281106E+02  0.87816281144E+02  0.26000000000E-02 0.  1.
        -13    1    1    2    0    0  0.13802292138E+01 -0.20083723734E+02 -0.18368524757E+02  0.27252061683E+02  0.10570000000E+00 0. -1.
         13    1    1    2    0    0 -0.13802292138E+01  0.20083723734E+02 -0.63447392681E+02  0.66564583693E+02  0.10570000000E+00 0.  1.
<mgrwt>
<rscale>  0 0.45909897E+02</rscale>
<asrwt>0</asrwt>
<pdfrwt beam="1">  1        2 0.92313298E-03 0.45909897E+02</pdfrwt>
<pdfrwt beam="2">  1       -2 0.13510196E-01 0.45909897E+02</pdfrwt>
<totfact> 0.44808147E+05</totfact>
</mgrwt>
</event>
<event>
 4    1  0.3704929E-001  0.2032639E+02  0.7818608E-02  0.1738914E+00
         -2   -1    0    0    0  501 -0.00000000000E+00  0.00000000000E+00  0.31305771958E+02  0.31305772066E+02  0.26000000000E-02 0.  1.
          2   -1    0    0  501    0  0.00000000000E+00 -0.00000000000E+00 -0.32994072080E+01  0.32994082324E+01  0.26000000000E-02 0. -1.
        -13    1    1    2    0    0  0.96929624547E+01 -0.25471519754E+01  0.16871150262E+02  0.19623669075E+02  0.10570000000E+00 0. -1.
         13    1    1    2    0    0 -0.96929624547E+01  0.25471519754E+01  0.11135214488E+02  0.14981511223E+02  0.10570000000E+00 0.  1.
<mgrwt>
<rscale>  0 0.20326388E+02</rscale>
<asrwt>0</asrwt>
<pdfrwt beam="2">  1        2 0.50760120E-03 0.20326388E+02</pdfrwt>
<pdfrwt beam="1">  1       -2 0.48162726E-02 0.20326388E+02</pdfrwt>
<totfact> 0.34658195E+06</totfact>
</mgrwt>
</event>
<event>
 4    1  0.3704929E-001  0.3080712E+02  0.7818608E-02  0.1589335E+00
         -2   -1    0    0    0  501 -0.00000000000E+00  0.00000000000E+00  0.39702211153E+01  0.39702219666E+01  0.26000000000E-02 0. -1.
          2   -1    0    0  501    0  0.00000000000E+00 -0.00000000000E+00 -0.59762307918E+02  0.59762307974E+02  0.26000000000E-02 0.  1.
        -13    1    1    2    0    0  0.84012021105E+01  0.11472485282E+02 -0.15646552686E+02  0.21142939694E+02  0.10570000000E+00 0. -1.
         13    1    1    2    0    0 -0.84012021105E+01 -0.11472485282E+02 -0.40145534116E+02  0.42589590247E+02  0.10570000000E+00 0.  1.
<mgrwt>
<rscale>  0 0.30807116E+02</rscale>
<asrwt>0</asrwt>
<pdfrwt beam="2">  1        2 0.91942006E-02 0.30807116E+02</pdfrwt>
<pdfrwt beam="1">  1       -2 0.61080336E-03 0.30807116E+02</pdfrwt>
<totfact> 0.17601237E+06</totfact>
</mgrwt>
</event>
<event>
 4    1  0.3704929E-001  0.3183733E+02  0.7818608E-02  0.1578624E+00
          2   -1    0    0  501    0  0.00000000000E+00  0.00000000000E+00  0.10244927802E+03  0.10244927805E+03  0.26000000000E-02 0. -1.
         -2   -1    0    0    0  501 -0.00000000000E+00 -0.00000000000E+00 -0.24734557070E+01  0.24734570735E+01  0.26000000000E-02 0.  1.
        -13    1    1    2    0    0  0.63317891413E-01 -0.15138297522E+02  0.33768861795E+02  0.37007016368E+02  0.10570000000E+00 0. -1.
         13    1    1    2    0    0 -0.63317891413E-01  0.15138297522E+02  0.66206960516E+02  0.67915718757E+02  0.10570000000E+00 0.  1.
<mgrwt>
<rscale>  0 0.31837326E+02</rscale>
<asrwt>0</asrwt>
<pdfrwt beam="1">  1        2 0.15761424E-01 0.31837326E+02</pdfrwt>
<pdfrwt beam="2">  1       -2 0.38053183E-03 0.31837326E+02</pdfrwt>
<totfact> 0.18256095E+06</totfact>
</mgrwt>
</event>
<event>
 4    1  0.3704929E-001  0.5455784E+02  0.7818608E-02  0.1422202E+00
          2   -1    0    0  501    0  0.00000000000E+00  0.00000000000E+00  0.97809204154E+02  0.97809204189E+02  0.26000000000E-02 0. -1.
         -2   -1    0    0    0  501 -0.00000000000E+00 -0.00000000000E+00 -0.76080730653E+01  0.76080735096E+01  0.26000000000E-02 0.  1.
        -13    1    1    2    0    0  0.21375152310E+02 -0.12903540385E+02  0.23869974988E+02  0.34542515386E+02  0.10570000000E+00 0.  1.
         13    1    1    2    0    0 -0.21375152310E+02  0.12903540385E+02  0.66331156101E+02  0.70874762313E+02  0.10570000000E+00 0. -1.
<mgrwt>
<rscale>  0 0.54557844E+02</rscale>
<asrwt>0</asrwt>
<pdfrwt beam="1">  1        2 0.15047570E-01 0.54557844E+02</pdfrwt>
<pdfrwt beam="2">  1       -2 0.11704728E-02 0.54557844E+02</pdfrwt>
<totfact> 0.47662476E+05</totfact>
</mgrwt>
</event>
<event>
 4    1  0.3704929E-001  0.2221084E+02  0.7818608E-02  0.1704631E+00
         -2   -1    0    0    0  501 -0.00000000000E+00  0.00000000000E+00  0.86118526869E+01  0.86118530794E+01  0.26000000000E-02 0. -1.
          2   -1    0    0  501    0  0.00000000000E+00 -0.00000000000E+00 -0.14321002103E+02  0.14321002339E+02  0.26000000000E-02 0.  1.
        -13    1    1    2    0    0  0.51458652516E+01  0.89954728369E+01  0.12652114395E+01  0.10440804242E+02  0.10570000000E+00 0.  1.
         13    1    1    2    0    0 -0.51458652516E+01 -0.89954728369E+01 -0.69743608552E+01  0.12492051176E+02  0.10570000000E+00 0. -1.
<mgrwt>
<rscale>  0 0.22210841E+02</rscale>
<asrwt>0</asrwt>
<pdfrwt beam="2">  1        2 0.22032311E-02 0.22210841E+02</pdfrwt>
<pdfrwt beam="1">  1       -2 0.13249005E-02 0.22210841E+02</pdfrwt>
<totfact> 0.31878949E+06</totfact>
</mgrwt>
</event>
<event>
 4    1  0.3704929E-001  0.6713835E+02  0.7818608E-02  0.1370104E+00
          2   -1    0    0  501    0  0.00000000000E+00  0.00000000000E+00  0.87525660744E+01  0.87525664606E+01  0.26000000000E-02 0. -1.
         -2   -1    0    0    0  501 -0.00000000000E+00 -0.00000000000E+00 -0.12874962839E+03  0.12874962841E+03  0.26000000000E-02 0.  1.
        -13    1    1    2    0    0 -0.85255361600E+01  0.19836699765E+02 -0.73555126749E+01  0.22809957553E+02  0.10570000000E+00 0. -1.
         13    1    1    2    0    0  0.85255361600E+01 -0.19836699765E+02 -0.11264154964E+03  0.11469223732E+03  0.10570000000E+00 0.  1.
<mgrwt>
<rscale>  0 0.67138354E+02</rscale>
<asrwt>0</asrwt>
<pdfrwt beam="1">  1        2 0.13465487E-02 0.67138354E+02</pdfrwt>
<pdfrwt beam="2">  1       -2 0.19807634E-01 0.67138354E+02</pdfrwt>
<totfact> 0.15880934E+05</totfact>
</mgrwt>
</event>
<event>
 4    1  0.3704929E-001  0.3503268E+02  0.7818608E-02  0.1548311E+00
          2   -1    0    0  501    0  0.00000000000E+00  0.00000000000E+00  0.16749260041E+02  0.16749260243E+02  0.26000000000E-02 0.  1.
         -2   -1    0    0    0  501 -0.00000000000E+00 -0.00000000000E+00 -0.18318545712E+02  0.18318545896E+02  0.26000000000E-02 0. -1.
        -13    1    1    2    0    0 -0.12318099445E+02  0.50406037717E+01 -0.12183232605E+02  0.18043990399E+02  0.10570000000E+00 0. -1.
         13    1    1    2    0    0  0.12318099445E+02 -0.50406037717E+01  0.10613946935E+02  0.17023815740E+02  0.10570000000E+00 0.  1.
<mgrwt>
<rscale>  0 0.35032676E+02</rscale>
<asrwt>0</asrwt>
<pdfrwt beam="1">  1        2 0.25768093E-02 0.35032676E+02</pdfrwt>
<pdfrwt beam="2">  1       -2 0.28182378E-02 0.35032676E+02</pdfrwt>
<totfact> 0.10790875E+06</totfact>
</mgrwt>
</event>
<event>
 4    1  0.3704929E-001  0.1463922E+03  0.7818608E-02  0.1204978E+00
         -2   -1    0    0    0  501 -0.00000000000E+00  0.00000000000E+00  0.27943034438E+02  0.27943034559E+02  0.26000000000E-02 0.  1.
          2   -1    0    0  501    0  0.00000000000E+00 -0.00000000000E+00 -0.19173537881E+03  0.19173537882E+03  0.26000000000E-02 0. -1.
        -13    1    1    2    0    0  0.54986917049E+02  0.29336257922E+02 -0.24293635703E+02  0.66890724196E+02  0.10570000000E+00 0.  1.
         13    1    1    2    0    0 -0.54986917049E+02 -0.29336257922E+02 -0.13949870866E+03  0.15278768919E+03  0.10570000000E+00 0. -1.
<mgrwt>
<rscale>  0 0.14639219E+03</rscale>
<asrwt>0</asrwt>
<pdfrwt beam="2">  1        2 0.29497750E-01 0.14639219E+03</pdfrwt>
<pdfrwt beam="1">  1       -2 0.42989285E-02 0.14639219E+03</pdfrwt>
<totfact> 0.40813308E+04</totfact>
</mgrwt>
</event>
<event>
 4    1  0.3704929E-001  0.2702593E+02  0.7818608E-02  0.1633499E+00
         -2   -1    0    0    0  501 -0.00000000000E+00  0.00000000000E+00  0.81115962655E+01  0.81115966822E+01  0.26000000000E-02 0.  1.
          2   -1    0    0  501    0  0.00000000000E+00 -0.00000000000E+00 -0.22511016130E+02  0.22511016280E+02  0.26000000000E-02 0. -1.
        -13    1    1    2    0    0  0.30187769546E+01 -0.11642369944E+02 -0.22123544374E+00  0.12029875720E+02  0.10570000000E+00 0.  1.
         13    1    1    2    0    0 -0.30187769546E+01  0.11642369944E+02 -0.14178184421E+02  0.18592737243E+02  0.10570000000E+00 0. -1.
<mgrwt>
<rscale>  0 0.27025934E+02</rscale>
<asrwt>0</asrwt>
<pdfrwt beam="2">  1        2 0.34632333E-02 0.27025934E+02</pdfrwt>
<pdfrwt beam="1">  1       -2 0.12479379E-02 0.27025934E+02</pdfrwt>
<totfact> 0.20989229E+06</totfact>
</mgrwt>
</event>
<event>
 4    1  0.3704929E-001  0.2602969E+02  0.7818608E-02  0.1646638E+00
          2   -1    0    0  501    0  0.00000000000E+00  0.00000000000E+00  0.85449170981E+02  0.85449171020E+02  0.26000000000E-02 0.  1.
         -2   -1    0    0    0  501 -0.00000000000E+00 -0.00000000000E+00 -0.19823020933E+01  0.19823037984E+01  0.26000000000E-02 0. -1.
        -13    1    1    2    0    0 -0.18891532427E+01  0.11380797116E+02  0.61966124957E+02  0.63030970623E+02  0.10570000000E+00 0.  1.
         13    1    1    2    0    0  0.18891532427E+01 -0.11380797116E+02  0.21500743930E+02  0.24400504196E+02  0.10570000000E+00 0. -1.
<mgrwt>
<rscale>  0 0.26029687E+02</rscale>
<asrwt>0</asrwt>
<pdfrwt beam="1">  1        2 0.13146024E-01 0.26029687E+02</pdfrwt>
<pdfrwt beam="2">  1       -2 0.30496975E-03 0.26029687E+02</pdfrwt>
<totfact> 0.28082389E+06</totfact>
</mgrwt>
</event>
<event>
 4    1  0.3704929E-001  0.4901604E+02  0.7818608E-02  0.1450722E+00
         -2   -1    0    0    0  501 -0.00000000000E+00  0.00000000000E+00  0.92210277529E+01  0.92210281195E+01  0.26000000000E-02 0.  1.
          2   -1    0    0  501    0  0.00000000000E+00 -0.00000000000E+00 -0.65138402683E+02  0.65138402734E+02  0.26000000000E-02 0. -1.
        -13    1    1    2    0    0  0.21703244311E+02  0.87742826799E+01 -0.38962531356E+02  0.45454470323E+02  0.10570000000E+00 0. -1.
         13    1    1    2    0    0 -0.21703244311E+02 -0.87742826799E+01 -0.16954843573E+02  0.28904960531E+02  0.10570000000E+00 0.  1.
<mgrwt>
<rscale>  0 0.49016040E+02</rscale>
<asrwt>0</asrwt>
<pdfrwt beam="2">  1        2 0.10021292E-01 0.49016040E+02</pdfrwt>
<pdfrwt beam="1">  1       -2 0.14186197E-02 0.49016040E+02</pdfrwt>
<totfact> 0.56919939E+05</totfact>
</mgrwt>
</event>
<event>
 4    1  0.3704929E-001  0.2785019E+02  0.7818608E-02  0.1623145E+00
         -2   -1    0    0    0  501 -0.00000000000E+00  0.00000000000E+00  0.84549408308E+01  0.84549412306E+01  0.26000000000E-02 0.  1.
          2   -1    0    0  501    0  0.00000000000E+00 -0.00000000000E+00 -0.22934314978E+02  0.22934315125E+02  0.26000000000E-02 0. -1.
        -13    1    1    2    0    0  0.12766581544E+02 -0.29127887713E+01 -0.12577214031E+02  0.18156746075E+02  0.10570000000E+00 0.  1.
         13    1    1    2    0    0 -0.12766581544E+02  0.29127887713E+01 -0.19021601160E+01  0.13232510281E+02  0.10570000000E+00 0. -1.
<mgrwt>
<rscale>  0 0.27850191E+02</rscale>
<asrwt>0</asrwt>
<pdfrwt beam="2">  1        2 0.35283562E-02 0.27850191E+02</pdfrwt>
<pdfrwt beam="1">  1       -2 0.13007602E-02 0.27850191E+02</pdfrwt>
<totfact> 0.19579517E+06</totfact>
</mgrwt>
</event>
<event>
 4    1  0.3704929E-001  0.2078561E+02  0.7818608E-02  0.1730142E+00
         -2   -1    0    0    0  501 -0.00000000000E+00  0.00000000000E+00  0.34894199735E+01  0.34894209422E+01  0.26000000000E-02 0.  1.
          2   -1    0    0  501    0  0.00000000000E+00 -0.00000000000E+00 -0.30953668915E+02  0.30953669024E+02  0.26000000000E-02 0. -1.
        -13    1    1    2    0    0 -0.10294856522E+02  0.78325722340E+00 -0.11770315621E+02  0.15657236825E+02  0.10570000000E+00 0.  1.
         13    1    1    2    0    0  0.10294856522E+02 -0.78325722340E+00 -0.15693933320E+02  0.18785853141E+02  0.10570000000E+00 0. -1.
<mgrwt>
<rscale>  0 0.20785607E+02</rscale>
<asrwt>0</asrwt>
<pdfrwt beam="2">  1        2 0.47621028E-02 0.20785607E+02</pdfrwt>
<pdfrwt beam="1">  1       -2 0.53683394E-03 0.20785607E+02</pdfrwt>
<totfact> 0.39908451E+06</totfact>
</mgrwt>
</event>
<event>
 4    1  0.3704929E-001  0.1052860E+03  0.7818608E-02  0.1269557E+00
          2   -1    0    0  501    0  0.00000000000E+00  0.00000000000E+00  0.16356377088E+03  0.16356377090E+03  0.26000000000E-02 0. -1.
         -2   -1    0    0    0  501 -0.00000000000E+00 -0.00000000000E+00 -0.16943141726E+02  0.16943141926E+02  0.26000000000E-02 0.  1.
        -13    1    1    2    0    0 -0.27937964111E+02  0.33779666368E+02  0.23335600242E+02  0.49660417937E+02  0.10570000000E+00 0.  1.
         13    1    1    2    0    0  0.27937964111E+02 -0.33779666368E+02  0.12328502891E+03  0.13084649489E+03  0.10570000000E+00 0. -1.
<mgrwt>
<rscale>  0 0.10528598E+03</rscale>
<asrwt>0</asrwt>
<pdfrwt beam="1">  1        2 0.25163657E-01 0.10528598E+03</pdfrwt>
<pdfrwt beam="2">  1       -2 0.26066372E-02 0.10528598E+03</pdfrwt>
<totfact> 0.97194308E+04</totfact>
</mgrwt>
</event>
<event>
 4    1  0.3704929E-001  0.3085994E+02  0.7818608E-02  0.1588773E+00
          2   -1    0    0  501    0  0.00000000000E+00  0.00000000000E+00  0.44036145746E+02  0.44036145823E+02  0.26000000000E-02 0. -1.
         -2   -1    0    0    0  501 -0.00000000000E+00 -0.00000000000E+00 -0.54065591696E+01  0.54065597947E+01  0.26000000000E-02 0.  1.
        -13    1    1    2    0    0 -0.33179891044E+01 -0.13797352883E+02  0.29020376173E+02  0.32304324850E+02  0.10570000000E+00 0. -1.
         13    1    1    2    0    0  0.33179891044E+01  0.13797352883E+02  0.96092104033E+01  0.17138380768E+02  0.10570000000E+00 0.  1.
<mgrwt>
<rscale>  0 0.30859945E+02</rscale>
<asrwt>0</asrwt>
<pdfrwt beam="1">  1        2 0.67747914E-02 0.30859945E+02</pdfrwt>
<pdfrwt beam="2">  1       -2 0.83177843E-03 0.30859945E+02</pdfrwt>
<totfact> 0.16655452E+06</totfact>
</mgrwt>
</event>
<event>
 4    1  0.3704929E-001  0.2782528E+02  0.7818608E-02  0.1623451E+00
          2   -1    0    0  501    0  0.00000000000E+00  0.00000000000E+00  0.45493048704E+02  0.45493048779E+02  0.26000000000E-02 0.  1.
         -2   -1    0    0    0  501 -0.00000000000E+00 -0.00000000000E+00 -0.42547484165E+01  0.42547492109E+01  0.26000000000E-02 0. -1.
        -13    1    1    2    0    0 -0.61304323643E+01 -0.12250898484E+02  0.24955820083E+02  0.28468769610E+02  0.10570000000E+00 0. -1.
         13    1    1    2    0    0  0.61304323643E+01  0.12250898484E+02  0.16282480205E+02  0.21279028379E+02  0.10570000000E+00 0.  1.
<mgrwt>
<rscale>  0 0.27825276E+02</rscale>
<asrwt>0</asrwt>
<pdfrwt beam="1">  1        2 0.69989309E-02 0.27825276E+02</pdfrwt>
<pdfrwt beam="2">  1       -2 0.65457672E-03 0.27825276E+02</pdfrwt>
<totfact> 0.21410251E+06</totfact>
</mgrwt>
</event>
<event>
 4    1  0.3704929E-001  0.3524198E+02  0.7818608E-02  0.1546462E+00
          2   -1    0    0  501    0  0.00000000000E+00  0.00000000000E+00  0.95718566287E+02  0.95718566322E+02  0.26000000000E-02 0. -1.
         -2   -1    0    0    0  501 -0.00000000000E+00 -0.00000000000E+00 -0.32438764104E+01  0.32438774523E+01  0.26000000000E-02 0.  1.
        -13    1    1    2    0    0  0.98194599740E+01 -0.14192008650E+02  0.36248623177E+02  0.40147338124E+02  0.10570000000E+00 0.  1.
         13    1    1    2    0    0 -0.98194599740E+01  0.14192008650E+02  0.56226066700E+02  0.58815105651E+02  0.10570000000E+00 0. -1.
<mgrwt>
<rscale>  0 0.35241978E+02</rscale>
<asrwt>0</asrwt>
<pdfrwt beam="1">  1        2 0.14725932E-01 0.35241978E+02</pdfrwt>
<pdfrwt beam="2">  1       -2 0.49905802E-03 0.35241978E+02</pdfrwt>
<totfact> 0.14075478E+06</totfact>
</mgrwt>
</event>
<event>
 4    1  0.3704929E-001  0.2942069E+02  0.7818608E-02  0.1604582E+00
         -2   -1    0    0    0  501 -0.00000000000E+00  0.00000000000E+00  0.78257775397E+01  0.78257779716E+01  0.26000000000E-02 0. -1.
          2   -1    0    0  501    0  0.00000000000E+00 -0.00000000000E+00 -0.27651475517E+02  0.27651475640E+02  0.26000000000E-02 0.  1.
        -13    1    1    2    0    0 -0.11909542228E+02 -0.68017965739E+01 -0.16325658028E+02  0.21322286821E+02  0.10570000000E+00 0.  1.
         13    1    1    2    0    0  0.11909542228E+02  0.68017965739E+01 -0.35000399495E+01  0.14154966791E+02  0.10570000000E+00 0. -1.
<mgrwt>
<rscale>  0 0.29420694E+02</rscale>
<asrwt>0</asrwt>
<pdfrwt beam="2">  1        2 0.42540731E-02 0.29420694E+02</pdfrwt>
<pdfrwt beam="1">  1       -2 0.12039658E-02 0.29420694E+02</pdfrwt>
<totfact> 0.17540886E+06</totfact>
</mgrwt>
</event>
<event>
 4    1  0.3704929E-001  0.2148359E+02  0.7818608E-02  0.1717339E+00
          2   -1    0    0  501    0  0.00000000000E+00  0.00000000000E+00  0.62975115910E+01  0.62975121277E+01  0.26000000000E-02 0. -1.
         -2   -1    0    0    0  501 -0.00000000000E+00 -0.00000000000E+00 -0.18322497161E+02  0.18322497346E+02  0.26000000000E-02 0.  1.
        -13    1    1    2    0    0  0.55350311237E+01  0.92004979808E+01 -0.63548394031E+01  0.12477214792E+02  0.10570000000E+00 0. -1.
         13    1    1    2    0    0 -0.55350311237E+01 -0.92004979808E+01 -0.56701461674E+01  0.12142794682E+02  0.10570000000E+00 0.  1.
<mgrwt>
<rscale>  0 0.21483589E+02</rscale>
<asrwt>0</asrwt>
<pdfrwt beam="1">  1        2 0.96884800E-03 0.21483589E+02</pdfrwt>
<pdfrwt beam="2">  1       -2 0.28188457E-02 0.21483589E+02</pdfrwt>
<totfact> 0.32257529E+06</totfact>
</mgrwt>
</event>
<event>
 4    1  0.3704929E-001  0.3834964E+02  0.7818608E-02  0.1520720E+00
          2   -1    0    0  501    0  0.00000000000E+00  0.00000000000E+00  0.10828178825E+03  0.10828178828E+03  0.26000000000E-02 0. -1.
         -2   -1    0    0    0  501 -0.00000000000E+00 -0.00000000000E+00 -0.33955257035E+01  0.33955266990E+01  0.26000000000E-02 0.  1.
        -13    1    1    2    0    0 -0.17043101864E+02 -0.77345773250E+01  0.40305832849E+02  0.44439423283E+02  0.10570000000E+00 0.  1.
         13    1    1    2    0    0  0.17043101864E+02  0.77345773250E+01  0.64580429692E+02  0.67237891693E+02  0.10570000000E+00 0. -1.
<mgrwt>
<rscale>  0 0.38349636E+02</rscale>
<asrwt>0</asrwt>
<pdfrwt beam="1">  1        2 0.16658734E-01 0.38349636E+02</pdfrwt>
<pdfrwt beam="2">  1       -2 0.52238873E-03 0.38349636E+02</pdfrwt>
<totfact> 0.11820968E+06</totfact>
</mgrwt>
</event>
<event>
 4    1  0.3704929E-001  0.3668155E+02  0.7818608E-02  0.1534156E+00
         -2   -1    0    0    0  501 -0.00000000000E+00  0.00000000000E+00  0.82014982887E+02  0.82014982928E+02  0.26000000000E-02 0. -1.
          2   -1    0    0  501    0  0.00000000000E+00 -0.00000000000E+00 -0.41014937289E+01  0.41014945530E+01  0.26000000000E-02 0.  1.
        -13    1    1    2    0    0 -0.17770159631E+02 -0.43346111935E+01  0.42111185186E+02  0.45912204454E+02  0.10570000000E+00 0.  1.
         13    1    1    2    0    0  0.17770159631E+02  0.43346111935E+01  0.35802303971E+02  0.40204273027E+02  0.10570000000E+00 0. -1.
<mgrwt>
<rscale>  0 0.36681547E+02</rscale>
<asrwt>0</asrwt>
<pdfrwt beam="2">  1        2 0.63099914E-03 0.36681547E+02</pdfrwt>
<pdfrwt beam="1">  1       -2 0.12617689E-01 0.36681547E+02</pdfrwt>
<totfact> 0.77861533E+05</totfact>
</mgrwt>
</event>
<event>
 4    1  0.3704929E-001  0.2487197E+02  0.7818608E-02  0.1662848E+00
         -2   -1    0    0    0  501 -0.00000000000E+00  0.00000000000E+00  0.53462390752E+01  0.53462397074E+01  0.26000000000E-02 0. -1.
          2   -1    0    0  501    0  0.00000000000E+00 -0.00000000000E+00 -0.28927565474E+02  0.28927565591E+02  0.26000000000E-02 0.  1.
        -13    1    1    2    0    0 -0.65655054803E+01  0.10535666287E+02 -0.10781423080E+02  0.16442517521E+02  0.10570000000E+00 0. -1.
         13    1    1    2    0    0  0.65655054803E+01 -0.10535666287E+02 -0.12799903319E+02  0.17831287777E+02  0.10570000000E+00 0.  1.
<mgrwt>
<rscale>  0 0.24871968E+02</rscale>
<asrwt>0</asrwt>
<pdfrwt beam="2">  1        2 0.44503947E-02 0.24871968E+02</pdfrwt>
<pdfrwt beam="1">  1       -2 0.82249839E-03 0.24871968E+02</pdfrwt>
<totfact> 0.26234135E+06</totfact>
</mgrwt>
</event>
<event>
 4    1  0.3704929E-001  0.3723368E+02  0.7818608E-02  0.1529615E+00
          2   -1    0    0  501    0  0.00000000000E+00  0.00000000000E+00  0.14339927178E+02  0.14339927414E+02  0.26000000000E-02 0.  1.
         -2   -1    0    0    0  501 -0.00000000000E+00 -0.00000000000E+00 -0.24169349943E+02  0.24169350082E+02  0.26000000000E-02 0. -1.
        -13    1    1    2    0    0 -0.16747227973E+02 -0.55104636085E+01 -0.11097877764E+02  0.20832880677E+02  0.10570000000E+00 0. -1.
         13    1    1    2    0    0  0.16747227973E+02  0.55104636085E+01  0.12684549997E+01  0.17676396820E+02  0.10570000000E+00 0.  1.
<mgrwt>
<rscale>  0 0.37233680E+02</rscale>
<asrwt>0</asrwt>
<pdfrwt beam="1">  1        2 0.22061427E-02 0.37233680E+02</pdfrwt>
<pdfrwt beam="2">  1       -2 0.37183615E-02 0.37233680E+02</pdfrwt>
<totfact> 0.90776154E+05</totfact>
</mgrwt>
</event>
<event>
 4    1  0.3704929E-001  0.5736889E+02  0.7818608E-02  0.1409217E+00
         -2   -1    0    0    0  501 -0.00000000000E+00  0.00000000000E+00  0.86294071604E+01  0.86294075521E+01  0.26000000000E-02 0. -1.
          2   -1    0    0  501    0  0.00000000000E+00 -0.00000000000E+00 -0.95348068529E+02  0.95348068564E+02  0.26000000000E-02 0.  1.
        -13    1    1    2    0    0  0.11447601029E+02  0.20597568281E+02 -0.73001330179E+02  0.76710577946E+02  0.10570000000E+00 0.  1.
         13    1    1    2    0    0 -0.11447601029E+02 -0.20597568281E+02 -0.13717331190E+02  0.27266898171E+02  0.10570000000E+00 0. -1.
<mgrwt>
<rscale>  0 0.57368888E+02</rscale>
<asrwt>0</asrwt>
<pdfrwt beam="2">  1        2 0.14668933E-01 0.57368888E+02</pdfrwt>
<pdfrwt beam="1">  1       -2 0.13276012E-02 0.57368888E+02</pdfrwt>
<totfact> 0.41603269E+05</totfact>
</mgrwt>
</event>
<event>
 4    1  0.3704929E-001  0.2306060E+02  0.7818608E-02  0.1690530E+00
          2   -1    0    0  501    0  0.00000000000E+00  0.00000000000E+00  0.89319374867E+02  0.89319374905E+02  0.26000000000E-02 0.  1.
         -2   -1    0    0    0  501 -0.00000000000E+00 -0.00000000000E+00 -0.14884531554E+01  0.14884554262E+01  0.26000000000E-02 0. -1.
        -13    1    1    2    0    0 -0.10679686234E+02 -0.32534176712E+01  0.55257539614E+02  0.56374172111E+02  0.10570000000E+00 0.  1.
         13    1    1    2    0    0  0.10679686234E+02  0.32534176712E+01  0.32573382098E+02  0.34433658219E+02  0.10570000000E+00 0. -1.
<mgrwt>
<rscale>  0 0.23060599E+02</rscale>
<asrwt>0</asrwt>
<pdfrwt beam="1">  1        2 0.13741445E-01 0.23060599E+02</pdfrwt>
<pdfrwt beam="2">  1       -2 0.22899292E-03 0.23060599E+02</pdfrwt>
<totfact> 0.37416566E+06</totfact>
</mgrwt>
</event>
<event>
 4    1  0.3704929E-001  0.3508985E+02  0.7818608E-02  0.1547804E+00
         -2   -1    0    0    0  501 -0.00000000000E+00  0.00000000000E+00  0.20208547122E+01  0.20208563847E+01  0.26000000000E-02 0.  1.
          2   -1    0    0  501    0  0.00000000000E+00 -0.00000000000E+00 -0.15232376964E+03  0.15232376966E+03  0.26000000000E-02 0. -1.
        -13    1    1    2    0    0 -0.17343568573E+02 -0.25835562259E+01 -0.72590333503E+02  0.74678255363E+02  0.10570000000E+00 0.  1.
         13    1    1    2    0    0  0.17343568573E+02  0.25835562259E+01 -0.77712581423E+02  0.79666370682E+02  0.10570000000E+00 0. -1.
<mgrwt>
<rscale>  0 0.35089847E+02</rscale>
<asrwt>0</asrwt>
<pdfrwt beam="2">  1        2 0.23434417E-01 0.35089847E+02</pdfrwt>
<pdfrwt beam="1">  1       -2 0.31090097E-03 0.35089847E+02</pdfrwt>
<totfact> 0.16107681E+06</totfact>
</mgrwt>
</event>
<event>
 4    1  0.3704929E-001  0.2350215E+02  0.7818608E-02  0.1683497E+00
         -2   -1    0    0    0  501 -0.00000000000E+00  0.00000000000E+00  0.24039044946E+01  0.24039059006E+01  0.26000000000E-02 0.  1.
          2   -1    0    0  501    0  0.00000000000E+00 -0.00000000000E+00 -0.57443088422E+02  0.57443088481E+02  0.26000000000E-02 0. -1.
        -13    1    1    2    0    0 -0.98645891306E+01  0.63825601051E+01 -0.27083133666E+02  0.29522101786E+02  0.10570000000E+00 0.  1.
         13    1    1    2    0    0  0.98645891306E+01 -0.63825601051E+01 -0.27956050262E+02  0.30324892596E+02  0.10570000000E+00 0. -1.
<mgrwt>
<rscale>  0 0.23502148E+02</rscale>
<asrwt>0</asrwt>
<pdfrwt beam="2">  1        2 0.88373974E-02 0.23502148E+02</pdfrwt>
<pdfrwt beam="1">  1       -2 0.36983161E-03 0.23502148E+02</pdfrwt>
<totfact> 0.32903098E+06</totfact>
</mgrwt>
</event>
<event>
 4    1  0.3704929E-001  0.2823730E+02  0.7818608E-02  0.1618432E+00
          2   -1    0    0  501    0  0.00000000000E+00  0.00000000000E+00  0.24667977390E+01  0.24667991091E+01  0.26000000000E-02 0. -1.
         -2   -1    0    0    0  501 -0.00000000000E+00 -0.00000000000E+00 -0.80807669761E+02  0.80807669803E+02  0.26000000000E-02 0.  1.
        -13    1    1    2    0    0 -0.44053059590E+01 -0.13356102707E+02 -0.35519195377E+02  0.38202311616E+02  0.10570000000E+00 0. -1.
         13    1    1    2    0    0  0.44053059590E+01  0.13356102707E+02 -0.42821676645E+02  0.45072157296E+02  0.10570000000E+00 0.  1.
<mgrwt>
<rscale>  0 0.28237297E+02</rscale>
<asrwt>0</asrwt>
<pdfrwt beam="1">  1        2 0.37950751E-03 0.28237297E+02</pdfrwt>
<pdfrwt beam="2">  1       -2 0.12431947E-01 0.28237297E+02</pdfrwt>
<totfact> 0.14387891E+06</totfact>
</mgrwt>
</event>
<event>
 4    1  0.3704929E-001  0.3042402E+02  0.7818608E-02  0.1593448E+00
         -2   -1    0    0    0  501 -0.00000000000E+00  0.00000000000E+00  0.71483595778E+02  0.71483595825E+02  0.26000000000E-02 0.  1.
          2   -1    0    0  501    0  0.00000000000E+00 -0.00000000000E+00 -0.32371797565E+01  0.32371808006E+01  0.26000000000E-02 0. -1.
        -13    1    1    2    0    0  0.22977140907E+01 -0.12882022269E+02  0.53173778956E+02  0.54760276924E+02  0.10570000000E+00 0.  1.
         13    1    1    2    0    0 -0.22977140907E+01  0.12882022269E+02  0.15072637065E+02  0.19960499702E+02  0.10570000000E+00 0. -1.
<mgrwt>
<rscale>  0 0.30424023E+02</rscale>
<asrwt>0</asrwt>
<pdfrwt beam="2">  1        2 0.49802775E-03 0.30424023E+02</pdfrwt>
<pdfrwt beam="1">  1       -2 0.10997476E-01 0.30424023E+02</pdfrwt>
<totfact> 0.12408568E+06</totfact>
</mgrwt>
</event>
<event>
 4    1  0.3704929E-001  0.2634247E+02  0.7818608E-02  0.1642436E+00
          2   -1    0    0  501    0  0.00000000000E+00  0.00000000000E+00  0.29627425227E+02  0.29627425341E+02  0.26000000000E-02 0.  1.
         -2   -1    0    0    0  501 -0.00000000000E+00 -0.00000000000E+00 -0.58554328892E+01  0.58554334664E+01  0.26000000000E-02 0. -1.
        -13    1    1    2    0    0 -0.47095249440E+01  0.11621445843E+02  0.64590398501E+01  0.14105601616E+02  0.10570000000E+00 0. -1.
         13    1    1    2    0    0  0.47095249440E+01 -0.11621445843E+02  0.17312952488E+02  0.21377257192E+02  0.10570000000E+00 0.  1.
<mgrwt>
<rscale>  0 0.26342469E+02</rscale>
<asrwt>0</asrwt>
<pdfrwt beam="1">  1        2 0.45580654E-02 0.26342469E+02</pdfrwt>
<pdfrwt beam="2">  1       -2 0.90083589E-03 0.26342469E+02</pdfrwt>
<totfact> 0.22993711E+06</totfact>
</mgrwt>
</event>
<event>
 4    1  0.3704929E-001  0.2490742E+02  0.7818608E-02  0.1662335E+00
         -2   -1    0    0    0  501 -0.00000000000E+00  0.00000000000E+00  0.77604282076E+01  0.77604286432E+01  0.26000000000E-02 0.  1.
          2   -1    0    0  501    0  0.00000000000E+00 -0.00000000000E+00 -0.19985344273E+02  0.19985344442E+02  0.26000000000E-02 0. -1.
        -13    1    1    2    0    0  0.73075586635E+01  0.85421544252E+01 -0.14318512031E+00  0.11242797264E+02  0.10570000000E+00 0. -1.
         13    1    1    2    0    0 -0.73075586635E+01 -0.85421544252E+01 -0.12081730945E+02  0.16502975821E+02  0.10570000000E+00 0.  1.
<mgrwt>
<rscale>  0 0.24907416E+02</rscale>
<asrwt>0</asrwt>
<pdfrwt beam="2">  1        2 0.30746684E-02 0.24907416E+02</pdfrwt>
<pdfrwt beam="1">  1       -2 0.11939121E-02 0.24907416E+02</pdfrwt>
<totfact> 0.25148744E+06</totfact>
</mgrwt>
</event>
<event>
 4    1  0.3704929E-001  0.3065479E+02  0.7818608E-02  0.1590962E+00
         -2   -1    0    0    0  501 -0.00000000000E+00  0.00000000000E+00  0.41463441975E+01  0.41463450127E+01  0.26000000000E-02 0.  1.
          2   -1    0    0  501    0  0.00000000000E+00 -0.00000000000E+00 -0.56659308123E+02  0.56659308183E+02  0.26000000000E-02 0. -1.
        -13    1    1    2    0    0  0.10441435098E+02 -0.61617853183E+01 -0.76567805541E+01  0.14339756837E+02  0.10570000000E+00 0.  1.
         13    1    1    2    0    0 -0.10441435098E+02  0.61617853183E+01 -0.44856183372E+02  0.46465896358E+02  0.10570000000E+00 0. -1.
<mgrwt>
<rscale>  0 0.30654789E+02</rscale>
<asrwt>0</asrwt>
<pdfrwt beam="2">  1        2 0.87168161E-02 0.30654789E+02</pdfrwt>
<pdfrwt beam="1">  1       -2 0.63789922E-03 0.30654789E+02</pdfrwt>
<totfact> 0.17640983E+06</totfact>
</mgrwt>
</event>
<event>
 4    1  0.3704929E-001  0.3889158E+02  0.7818608E-02  0.1516530E+00
          2   -1    0    0  501    0  0.00000000000E+00  0.00000000000E+00  0.52563918767E+02  0.52563918832E+02  0.26000000000E-02 0. -1.
         -2   -1    0    0    0  501 -0.00000000000E+00 -0.00000000000E+00 -0.71938840912E+01  0.71938845610E+01  0.26000000000E-02 0.  1.
        -13    1    1    2    0    0  0.12302411649E+02  0.15034749096E+02  0.24001925659E+02  0.30878740593E+02  0.10570000000E+00 0.  1.
         13    1    1    2    0    0 -0.12302411649E+02 -0.15034749096E+02  0.21368109017E+02  0.28879062800E+02  0.10570000000E+00 0. -1.
<mgrwt>
<rscale>  0 0.38891580E+02</rscale>
<asrwt>0</asrwt>
<pdfrwt beam="1">  1        2 0.80867570E-02 0.38891580E+02</pdfrwt>
<pdfrwt beam="2">  1       -2 0.11067514E-02 0.38891580E+02</pdfrwt>
<totfact> 0.97607043E+05</totfact>
</mgrwt>
</event>
<event>
 4    1  0.3704929E-001  0.3069311E+02  0.7818608E-02  0.1590551E+00
          2   -1    0    0  501    0  0.00000000000E+00  0.00000000000E+00  0.29624924983E+01  0.29624936392E+01  0.26000000000E-02 0.  1.
         -2   -1    0    0    0  501 -0.00000000000E+00 -0.00000000000E+00 -0.79499507484E+02  0.79499507527E+02  0.26000000000E-02 0. -1.
        -13    1    1    2    0    0  0.51591380749E+01  0.11302968263E+02 -0.14068891993E+02  0.18770154278E+02  0.10570000000E+00 0.  1.
         13    1    1    2    0    0 -0.51591380749E+01 -0.11302968263E+02 -0.62468122993E+02  0.63691846888E+02  0.10570000000E+00 0. -1.
<mgrwt>
<rscale>  0 0.30693110E+02</rscale>
<asrwt>0</asrwt>
<pdfrwt beam="1">  1        2 0.45576823E-03 0.30693110E+02</pdfrwt>
<pdfrwt beam="2">  1       -2 0.12230692E-01 0.30693110E+02</pdfrwt>
<totfact> 0.11905703E+06</totfact>
</mgrwt>
</event>
<event>
 4    1  0.3704929E-001  0.3099305E+02  0.7818608E-02  0.1587364E+00
          2   -1    0    0  501    0  0.00000000000E+00  0.00000000000E+00  0.14698891875E+02  0.14698892105E+02  0.26000000000E-02 0. -1.
         -2   -1    0    0    0  501 -0.00000000000E+00 -0.00000000000E+00 -0.16337445195E+02  0.16337445402E+02  0.26000000000E-02 0.  1.
        -13    1    1    2    0    0  0.10539355651E+02  0.94952738144E+01 -0.70644060235E+01  0.15847878322E+02  0.10570000000E+00 0.  1.
         13    1    1    2    0    0 -0.10539355651E+02 -0.94952738144E+01  0.54258527042E+01  0.15188459185E+02  0.10570000000E+00 0. -1.
<mgrwt>
<rscale>  0 0.30993054E+02</rscale>
<asrwt>0</asrwt>
<pdfrwt beam="1">  1        2 0.22613680E-02 0.30993054E+02</pdfrwt>
<pdfrwt beam="2">  1       -2 0.25134531E-02 0.30993054E+02</pdfrwt>
<totfact> 0.14422006E+06</totfact>
</mgrwt>
</event>
<event>
 4    1  0.3704929E-001  0.2897605E+02  0.7818608E-02  0.1609691E+00
          2   -1    0    0  501    0  0.00000000000E+00  0.00000000000E+00  0.78620229871E+01  0.78620234170E+01  0.26000000000E-02 0. -1.
         -2   -1    0    0    0  501 -0.00000000000E+00 -0.00000000000E+00 -0.26698324959E+02  0.26698325086E+02  0.26000000000E-02 0.  1.
        -13    1    1    2    0    0  0.80556381826E+01  0.70251924533E+01  0.22464580226E+01  0.10922654516E+02  0.10570000000E+00 0. -1.
         13    1    1    2    0    0 -0.80556381826E+01 -0.70251924533E+01 -0.21082759995E+02  0.23637693987E+02  0.10570000000E+00 0.  1.
<mgrwt>
<rscale>  0 0.28976049E+02</rscale>
<asrwt>0</asrwt>
<pdfrwt beam="1">  1        2 0.12095421E-02 0.28976049E+02</pdfrwt>
<pdfrwt beam="2">  1       -2 0.41074346E-02 0.28976049E+02</pdfrwt>
<totfact> 0.15955702E+06</totfact>
</mgrwt>
</event>
<event>
 4    1  0.3704929E-001  0.2785992E+02  0.7818608E-02  0.1623025E+00
         -2   -1    0    0    0  501 -0.00000000000E+00  0.00000000000E+00  0.12258300587E+02  0.12258300863E+02  0.26000000000E-02 0. -1.
          2   -1    0    0  501    0  0.00000000000E+00 -0.00000000000E+00 -0.15829579385E+02  0.15829579598E+02  0.26000000000E-02 0.  1.
        -13    1    1    2    0    0 -0.11325411193E+02  0.80405191716E+01 -0.71978051492E+00  0.13908419886E+02  0.10570000000E+00 0.  1.
         13    1    1    2    0    0  0.11325411193E+02 -0.80405191716E+01 -0.28514982827E+01  0.14179460575E+02  0.10570000000E+00 0. -1.
<mgrwt>
<rscale>  0 0.27859917E+02</rscale>
<asrwt>0</asrwt>
<pdfrwt beam="2">  1        2 0.24353199E-02 0.27859917E+02</pdfrwt>
<pdfrwt beam="1">  1       -2 0.18858924E-02 0.27859917E+02</pdfrwt>
<totfact> 0.18836668E+06</totfact>
</mgrwt>
</event>
<event>
 4    1  0.3704929E-001  0.3540475E+02  0.7818608E-02  0.1545035E+00
          2   -1    0    0  501    0  0.00000000000E+00  0.00000000000E+00  0.61856400799E+01  0.61856406264E+01  0.26000000000E-02 0.  1.
         -2   -1    0    0    0  501 -0.00000000000E+00 -0.00000000000E+00 -0.50661535734E+02  0.50661535800E+02  0.26000000000E-02 0. -1.
        -13    1    1    2    0    0 -0.26518421075E+01  0.17440528164E+02 -0.24596967904E+02  0.30269230114E+02  0.10570000000E+00 0. -1.
         13    1    1    2    0    0  0.26518421075E+01 -0.17440528164E+02 -0.19878927750E+02  0.26577946312E+02  0.10570000000E+00 0.  1.
<mgrwt>
<rscale>  0 0.35404748E+02</rscale>
<asrwt>0</asrwt>
<pdfrwt beam="1">  1        2 0.95163702E-03 0.35404748E+02</pdfrwt>
<pdfrwt beam="2">  1       -2 0.77940822E-02 0.35404748E+02</pdfrwt>
<totfact> 0.92397288E+05</totfact>
</mgrwt>
</event>
<event>
 4    1  0.3704929E-001  0.3165387E+02  0.7818608E-02  0.1580495E+00
         -2   -1    0    0    0  501 -0.00000000000E+00  0.00000000000E+00  0.13984058261E+02  0.13984058502E+02  0.26000000000E-02 0. -1.
          2   -1    0    0  501    0  0.00000000000E+00 -0.00000000000E+00 -0.17912671911E+02  0.17912672099E+02  0.26000000000E-02 0.  1.
        -13    1    1    2    0    0  0.11909686765E+02 -0.83830827355E+01 -0.82056940118E+01  0.16717096090E+02  0.10570000000E+00 0.  1.
         13    1    1    2    0    0 -0.11909686765E+02  0.83830827355E+01  0.42770803619E+01  0.15179634511E+02  0.10570000000E+00 0. -1.
<mgrwt>
<rscale>  0 0.31653869E+02</rscale>
<asrwt>0</asrwt>
<pdfrwt beam="2">  1        2 0.27557957E-02 0.31653869E+02</pdfrwt>
<pdfrwt beam="1">  1       -2 0.21513936E-02 0.31653869E+02</pdfrwt>
<totfact> 0.13984266E+06</totfact>
</mgrwt>
</event>
<event>
 4    1  0.3704929E-001  0.2329681E+02  0.7818608E-02  0.1686744E+00
          2   -1    0    0  501    0  0.00000000000E+00  0.00000000000E+00  0.15241032804E+02  0.15241033026E+02  0.26000000000E-02 0.  1.
         -2   -1    0    0    0  501 -0.00000000000E+00 -0.00000000000E+00 -0.89026307641E+01  0.89026311438E+01  0.26000000000E-02 0. -1.
        -13    1    1    2    0    0  0.55287930107E+01 -0.10159960646E+02  0.17475596845E+01  0.11698610594E+02  0.10570000000E+00 0. -1.
         13    1    1    2    0    0 -0.55287930107E+01  0.10159960646E+02  0.45908423554E+01  0.12445053576E+02  0.10570000000E+00 0.  1.
<mgrwt>
<rscale>  0 0.23296806E+02</rscale>
<asrwt>0</asrwt>
<pdfrwt beam="1">  1        2 0.23447743E-02 0.23296806E+02</pdfrwt>
<pdfrwt beam="2">  1       -2 0.13696356E-02 0.23296806E+02</pdfrwt>
<totfact> 0.28684000E+06</totfact>
</mgrwt>
</event>
<event>
 4    1  0.3704929E-001  0.5715158E+02  0.7818608E-02  0.1410189E+00
          2   -1    0    0  501    0  0.00000000000E+00  0.00000000000E+00  0.20333324871E+02  0.20333325038E+02  0.26000000000E-02 0.  1.
         -2   -1    0    0    0  501 -0.00000000000E+00 -0.00000000000E+00 -0.40159480718E+02  0.40159480802E+02  0.26000000000E-02 0. -1.
        -13    1    1    2    0    0  0.17779894427E+02  0.13407763241E+02 -0.28867297198E+02  0.36458535091E+02  0.10570000000E+00 0. -1.
         13    1    1    2    0    0 -0.17779894427E+02 -0.13407763241E+02  0.90411413520E+01  0.24034270748E+02  0.10570000000E+00 0.  1.
<mgrwt>
<rscale>  0 0.57151580E+02</rscale>
<asrwt>0</asrwt>
<pdfrwt beam="1">  1        2 0.31282039E-02 0.57151580E+02</pdfrwt>
<pdfrwt beam="2">  1       -2 0.61783816E-02 0.57151580E+02</pdfrwt>
<totfact> 0.30761159E+05</totfact>
</mgrwt>
</event>
<event>
 4    1  0.3704929E-001  0.4291749E+02  0.7818608E-02  0.1487777E+00
         -2   -1    0    0    0  501 -0.00000000000E+00  0.00000000000E+00  0.27477831399E+02  0.27477831522E+02  0.26000000000E-02 0.  1.
          2   -1    0    0  501    0  0.00000000000E+00 -0.00000000000E+00 -0.16758152528E+02  0.16758152730E+02  0.26000000000E-02 0. -1.
        -13    1    1    2    0    0  0.16894335522E+02  0.12324282228E+02  0.39950615739E+00  0.20915957612E+02  0.10570000000E+00 0. -1.
         13    1    1    2    0    0 -0.16894335522E+02 -0.12324282228E+02  0.10320172714E+02  0.23320026640E+02  0.10570000000E+00 0.  1.
<mgrwt>
<rscale>  0 0.42917488E+02</rscale>
<asrwt>0</asrwt>
<pdfrwt beam="2">  1        2 0.25781774E-02 0.42917488E+02</pdfrwt>
<pdfrwt beam="1">  1       -2 0.42273586E-02 0.42917488E+02</pdfrwt>
<totfact> 0.64200310E+05</totfact>
</mgrwt>
</event>
<event>
 4    1  0.3704929E-001  0.2310921E+02  0.7818608E-02  0.1689746E+00
         -2   -1    0    0    0  501 -0.00000000000E+00  0.00000000000E+00  0.89293071715E+01  0.89293075501E+01  0.26000000000E-02 0. -1.
          2   -1    0    0  501    0  0.00000000000E+00 -0.00000000000E+00 -0.14951760092E+02  0.14951760318E+02  0.26000000000E-02 0.  1.
        -13    1    1    2    0    0  0.70531990524E+01 -0.73287756244E+01 -0.86750840891E+01  0.13368875251E+02  0.10570000000E+00 0.  1.
         13    1    1    2    0    0 -0.70531990524E+01  0.73287756244E+01  0.26526311684E+01  0.10512192618E+02  0.10570000000E+00 0. -1.
<mgrwt>
<rscale>  0 0.23109207E+02</rscale>
<asrwt>0</asrwt>
<pdfrwt beam="2">  1        2 0.23002708E-02 0.23109207E+02</pdfrwt>
<pdfrwt beam="1">  1       -2 0.13737396E-02 0.23109207E+02</pdfrwt>
<totfact> 0.29181210E+06</totfact>
</mgrwt>
</event>
<event>
 4    1  0.3704929E-001  0.3278292E+02  0.7818608E-02  0.1569219E+00
         -2   -1    0    0    0  501 -0.00000000000E+00  0.00000000000E+00  0.85386208651E+01  0.85386212609E+01  0.26000000000E-02 0. -1.
          2   -1    0    0  501    0  0.00000000000E+00 -0.00000000000E+00 -0.31466427233E+02  0.31466427340E+02  0.26000000000E-02 0.  1.
        -13    1    1    2    0    0  0.10689647176E+02 -0.11597352766E+02 -0.60199922188E+01  0.16882494683E+02  0.10570000000E+00 0.  1.
         13    1    1    2    0    0 -0.10689647176E+02  0.11597352766E+02 -0.16907814149E+02  0.23122553918E+02  0.10570000000E+00 0. -1.
<mgrwt>
<rscale>  0 0.32782916E+02</rscale>
<asrwt>0</asrwt>
<pdfrwt beam="2">  1        2 0.48409888E-02 0.32782916E+02</pdfrwt>
<pdfrwt beam="1">  1       -2 0.13136340E-02 0.32782916E+02</pdfrwt>
<totfact> 0.13721050E+06</totfact>
</mgrwt>
</event>
<event>
 4    1  0.3704929E-001  0.2741931E+02  0.7818608E-02  0.1628502E+00
          2   -1    0    0  501    0  0.00000000000E+00  0.00000000000E+00  0.76368428705E+01  0.76368433131E+01  0.26000000000E-02 0.  1.
         -2   -1    0    0    0  501 -0.00000000000E+00 -0.00000000000E+00 -0.24611562911E+02  0.24611563049E+02  0.26000000000E-02 0. -1.
        -13    1    1    2    0    0 -0.87862396366E+01  0.99141889225E+01 -0.43367507344E+01  0.13939430704E+02  0.10570000000E+00 0. -1.
         13    1    1    2    0    0  0.87862396366E+01 -0.99141889225E+01 -0.12637969306E+02  0.18308975657E+02  0.10570000000E+00 0.  1.
<mgrwt>
<rscale>  0 0.27419311E+02</rscale>
<asrwt>0</asrwt>
<pdfrwt beam="1">  1        2 0.11748990E-02 0.27419311E+02</pdfrwt>
<pdfrwt beam="2">  1       -2 0.37863943E-02 0.27419311E+02</pdfrwt>
<totfact> 0.18238928E+06</totfact>
</mgrwt>
</event>
<event>
 4    1  0.3704929E-001  0.4334946E+02  0.7818608E-02  0.1484917E+00
         -2   -1    0    0    0  501 -0.00000000000E+00  0.00000000000E+00  0.42287032904E+01  0.42287040897E+01  0.26000000000E-02 0.  1.
          2   -1    0    0  501    0  0.00000000000E+00 -0.00000000000E+00 -0.11109642518E+03  0.11109642521E+03  0.26000000000E-02 0. -1.
        -13    1    1    2    0    0  0.21393683122E+02 -0.26863493935E+01 -0.59308704869E+02  0.63106574905E+02  0.10570000000E+00 0. -1.
         13    1    1    2    0    0 -0.21393683122E+02  0.26863493935E+01 -0.47559017020E+02  0.52218554394E+02  0.10570000000E+00 0.  1.
<mgrwt>
<rscale>  0 0.43349458E+02</rscale>
<asrwt>0</asrwt>
<pdfrwt beam="2">  1        2 0.17091756E-01 0.43349458E+02</pdfrwt>
<pdfrwt beam="1">  1       -2 0.65056989E-03 0.43349458E+02</pdfrwt>
<totfact> 0.88032414E+05</totfact>
</mgrwt>
</event>
<event>
 4    1  0.3704929E-001  0.4417339E+02  0.7818608E-02  0.1479569E+00
          2   -1    0    0  501    0  0.00000000000E+00  0.00000000000E+00  0.22527039100E+03  0.22527039102E+03  0.26000000000E-02 0.  1.
         -2   -1    0    0    0  501 -0.00000000000E+00 -0.00000000000E+00 -0.21654952601E+01  0.21654968209E+01  0.26000000000E-02 0. -1.
        -13    1    1    2    0    0  0.13263292793E+02 -0.17605489749E+02  0.10437601787E+03  0.10667817248E+03  0.10570000000E+00 0. -1.
         13    1    1    2    0    0 -0.13263292793E+02  0.17605489749E+02  0.11872887787E+03  0.12075771535E+03  0.10570000000E+00 0.  1.
<mgrwt>
<rscale>  0 0.44173392E+02</rscale>
<asrwt>0</asrwt>
<pdfrwt beam="1">  1        2 0.34656963E-01 0.44173392E+02</pdfrwt>
<pdfrwt beam="2">  1       -2 0.33315343E-03 0.44173392E+02</pdfrwt>
<totfact> 0.10418174E+06</totfact>
</mgrwt>
</event>
<event>
 4    1  0.3704929E-001  0.3270050E+02  0.7818608E-02  0.1570023E+00
         -2   -1    0    0    0  501 -0.00000000000E+00  0.00000000000E+00  0.32650178258E+01  0.32650188610E+01  0.26000000000E-02 0.  1.
          2   -1    0    0  501    0  0.00000000000E+00 -0.00000000000E+00 -0.81877213723E+02  0.81877213764E+02  0.26000000000E-02 0. -1.
        -13    1    1    2    0    0  0.14856543630E+01 -0.12332281307E+02 -0.66987112042E+02  0.68129117735E+02  0.10570000000E+00 0. -1.
         13    1    1    2    0    0 -0.14856543630E+01  0.12332281307E+02 -0.11625083854E+02  0.17013114889E+02  0.10570000000E+00 0.  1.
<mgrwt>
<rscale>  0 0.32700496E+02</rscale>
<asrwt>0</asrwt>
<pdfrwt beam="2">  1        2 0.12596493E-01 0.32700496E+02</pdfrwt>
<pdfrwt beam="1">  1       -2 0.50231058E-03 0.32700496E+02</pdfrwt>
<totfact> 0.16256749E+06</totfact>
</mgrwt>
</event>
<event>
 4    1  0.3704929E-001  0.6546938E+02  0.7818608E-02  0.1376215E+00
          2   -1    0    0  501    0  0.00000000000E+00  0.00000000000E+00  0.67892429983E+01  0.67892434961E+01  0.26000000000E-02 0.  1.
         -2   -1    0    0    0  501 -0.00000000000E+00 -0.00000000000E+00 -0.15783199046E+03  0.15783199048E+03  0.26000000000E-02 0. -1.
        -13    1    1    2    0    0  0.16099027146E+02  0.24093768870E+02 -0.37233540548E+02  0.47180886889E+02  0.10570000000E+00 0.  1.
         13    1    1    2    0    0 -0.16099027146E+02 -0.24093768870E+02 -0.11380920691E+03  0.11744034708E+03  0.10570000000E+00 0. -1.
<mgrwt>
<rscale>  0 0.65469375E+02</rscale>
<asrwt>0</asrwt>
<pdfrwt beam="1">  1        2 0.10444991E-02 0.65469375E+02</pdfrwt>
<pdfrwt beam="2">  1       -2 0.24281842E-01 0.65469375E+02</pdfrwt>
<totfact> 0.15805143E+05</totfact>
</mgrwt>
</event>
<event>
 4    1  0.3704929E-001  0.6919725E+02  0.7818608E-02  0.1362844E+00
          2   -1    0    0  501    0  0.00000000000E+00  0.00000000000E+00  0.55537588922E+02  0.55537588983E+02  0.26000000000E-02 0. -1.
         -2   -1    0    0    0  501 -0.00000000000E+00 -0.00000000000E+00 -0.21554140790E+02  0.21554140946E+02  0.26000000000E-02 0.  1.
        -13    1    1    2    0    0  0.29292121070E+02  0.51999506414E+01  0.36669974392E+02  0.47220398535E+02  0.10570000000E+00 0. -1.
         13    1    1    2    0    0 -0.29292121070E+02 -0.51999506414E+01 -0.26865262596E+01  0.29871331394E+02  0.10570000000E+00 0.  1.
<mgrwt>
<rscale>  0 0.69197255E+02</rscale>
<asrwt>0</asrwt>
<pdfrwt beam="1">  1        2 0.85442442E-02 0.69197255E+02</pdfrwt>
<pdfrwt beam="2">  1       -2 0.33160218E-02 0.69197255E+02</pdfrwt>
<totfact> 0.22267948E+05</totfact>
</mgrwt>
</event>
<event>
 4    1  0.3704929E-001  0.6665741E+02  0.7818608E-02  0.1371843E+00
          2   -1    0    0  501    0  0.00000000000E+00  0.00000000000E+00  0.21229710371E+03  0.21229710373E+03  0.26000000000E-02 0. -1.
         -2   -1    0    0    0  501 -0.00000000000E+00 -0.00000000000E+00 -0.52323013031E+01  0.52323019491E+01  0.26000000000E-02 0.  1.
        -13    1    1    2    0    0 -0.11383341026E+02 -0.27315850015E+02  0.15356516401E+03  0.15639055881E+03  0.10570000000E+00 0. -1.
         13    1    1    2    0    0  0.11383341026E+02  0.27315850015E+02  0.53499638398E+02  0.61138846866E+02  0.10570000000E+00 0.  1.
<mgrwt>
<rscale>  0 0.66657407E+02</rscale>
<asrwt>0</asrwt>
<pdfrwt beam="1">  1        2 0.32661089E-01 0.66657407E+02</pdfrwt>
<pdfrwt beam="2">  1       -2 0.80496957E-03 0.66657407E+02</pdfrwt>
<totfact> 0.36118549E+05</totfact>
</mgrwt>
</event>
<event>
 4    1  0.3704929E-001  0.3243345E+02  0.7818608E-02  0.1572649E+00
         -2   -1    0    0    0  501 -0.00000000000E+00  0.00000000000E+00  0.32998977771E+01  0.32998988014E+01  0.26000000000E-02 0.  1.
          2   -1    0    0  501    0  0.00000000000E+00 -0.00000000000E+00 -0.79694010037E+02  0.79694010079E+02  0.26000000000E-02 0. -1.
        -13    1    1    2    0    0  0.11117920661E+02 -0.17569060262E+01 -0.68068961159E+02  0.68993402034E+02  0.10570000000E+00 0. -1.
         13    1    1    2    0    0 -0.11117920661E+02  0.17569060262E+01 -0.83251511009E+01  0.14000506846E+02  0.10570000000E+00 0.  1.
<mgrwt>
<rscale>  0 0.32433448E+02</rscale>
<asrwt>0</asrwt>
<pdfrwt beam="2">  1        2 0.12260616E-01 0.32433448E+02</pdfrwt>
<pdfrwt beam="1">  1       -2 0.50767672E-03 0.32433448E+02</pdfrwt>
<totfact> 0.16481908E+06</totfact>
</mgrwt>
</event>
<event>
 4    1  0.3704929E-001  0.4552113E+02  0.7818608E-02  0.1471114E+00
         -2   -1    0    0    0  501 -0.00000000000E+00  0.00000000000E+00  0.64728569576E+01  0.64728574798E+01  0.26000000000E-02 0.  1.
          2   -1    0    0  501    0  0.00000000000E+00 -0.00000000000E+00 -0.80033173547E+02  0.80033173589E+02  0.26000000000E-02 0. -1.
        -13    1    1    2    0    0  0.22418384508E+02 -0.36332859091E+01 -0.39629037916E+02  0.45675557457E+02  0.10570000000E+00 0. -1.
         13    1    1    2    0    0 -0.22418384508E+02  0.36332859091E+01 -0.33931278674E+02  0.40830473612E+02  0.10570000000E+00 0.  1.
<mgrwt>
<rscale>  0 0.45521130E+02</rscale>
<asrwt>0</asrwt>
<pdfrwt beam="2">  1        2 0.12312795E-01 0.45521130E+02</pdfrwt>
<pdfrwt beam="1">  1       -2 0.99582425E-03 0.45521130E+02</pdfrwt>
<totfact> 0.71829183E+05</totfact>
</mgrwt>
</event>
<event>
 4    1  0.3704929E-001  0.2091142E+02  0.7818608E-02  0.1727788E+00
          2   -1    0    0  501    0  0.00000000000E+00  0.00000000000E+00  0.23165010677E+01  0.23165025268E+01  0.26000000000E-02 0.  1.
         -2   -1    0    0    0  501 -0.00000000000E+00 -0.00000000000E+00 -0.47192641623E+02  0.47192641695E+02  0.26000000000E-02 0. -1.
        -13    1    1    2    0    0 -0.75765687868E+01 -0.70853676269E+01 -0.19347657434E+02  0.21953356228E+02  0.10570000000E+00 0.  1.
         13    1    1    2    0    0  0.75765687868E+01  0.70853676269E+01 -0.25528483122E+02  0.27555787994E+02  0.10570000000E+00 0. -1.
<mgrwt>
<rscale>  0 0.20911417E+02</rscale>
<asrwt>0</asrwt>
<pdfrwt beam="1">  1        2 0.35638493E-03 0.20911417E+02</pdfrwt>
<pdfrwt beam="2">  1       -2 0.72604058E-02 0.20911417E+02</pdfrwt>
<totfact> 0.30992228E+06</totfact>
</mgrwt>
</event>
<event>
 4    1  0.3704929E-001  0.4073311E+02  0.7818608E-02  0.1502885E+00
          2   -1    0    0  501    0  0.00000000000E+00  0.00000000000E+00  0.15843863737E+02  0.15843863951E+02  0.26000000000E-02 0.  1.
         -2   -1    0    0    0  501 -0.00000000000E+00 -0.00000000000E+00 -0.26180267203E+02  0.26180267332E+02  0.26000000000E-02 0. -1.
        -13    1    1    2    0    0  0.50676974345E+01  0.10469357238E+02  0.12079819778E+02  0.16769681471E+02  0.10570000000E+00 0.  1.
         13    1    1    2    0    0 -0.50676974345E+01 -0.10469357238E+02 -0.22416223244E+02  0.25254449811E+02  0.10570000000E+00 0. -1.
<mgrwt>
<rscale>  0 0.40733112E+02</rscale>
<asrwt>0</asrwt>
<pdfrwt beam="1">  1        2 0.24375175E-02 0.40733112E+02</pdfrwt>
<pdfrwt beam="2">  1       -2 0.40277334E-02 0.40733112E+02</pdfrwt>
<totfact> 0.72971652E+05</totfact>
</mgrwt>
</event>
<event>
 4    1  0.3704929E-001  0.3773806E+02  0.7818608E-02  0.1525549E+00
         -2   -1    0    0    0  501 -0.00000000000E+00  0.00000000000E+00  0.54427164835E+01  0.54427171045E+01  0.26000000000E-02 0. -1.
          2   -1    0    0  501    0  0.00000000000E+00 -0.00000000000E+00 -0.65415920771E+02  0.65415920823E+02  0.26000000000E-02 0.  1.
        -13    1    1    2    0    0 -0.88052038097E+01  0.12203974191E+02 -0.86143831830E+01  0.17340339394E+02  0.10570000000E+00 0. -1.
         13    1    1    2    0    0  0.88052038097E+01 -0.12203974191E+02 -0.51358821105E+02  0.53518298534E+02  0.10570000000E+00 0.  1.
<mgrwt>
<rscale>  0 0.37738062E+02</rscale>
<asrwt>0</asrwt>
<pdfrwt beam="2">  1        2 0.10063987E-01 0.37738062E+02</pdfrwt>
<pdfrwt beam="1">  1       -2 0.83734110E-03 0.37738062E+02</pdfrwt>
<totfact> 0.10957500E+06</totfact>
</mgrwt>
</event>
<event>
 4    1  0.3704929E-001  0.2823502E+02  0.7818608E-02  0.1618460E+00
          2   -1    0    0  501    0  0.00000000000E+00  0.00000000000E+00  0.46468399294E+01  0.46468406568E+01  0.26000000000E-02 0.  1.
         -2   -1    0    0    0  501 -0.00000000000E+00 -0.00000000000E+00 -0.42890248226E+02  0.42890248305E+02  0.26000000000E-02 0. -1.
        -13    1    1    2    0    0 -0.87488693209E+01  0.53588003194E+01 -0.35447928229E+02  0.36902930013E+02  0.10570000000E+00 0. -1.
         13    1    1    2    0    0  0.87488693209E+01 -0.53588003194E+01 -0.27954800671E+01  0.10634158949E+02  0.10570000000E+00 0.  1.
<mgrwt>
<rscale>  0 0.28235023E+02</rscale>
<asrwt>0</asrwt>
<pdfrwt beam="1">  1        2 0.71489854E-03 0.28235023E+02</pdfrwt>
<pdfrwt beam="2">  1       -2 0.65984995E-02 0.28235023E+02</pdfrwt>
<totfact> 0.15991493E+06</totfact>
</mgrwt>
</event>
<event>
 4    1  0.3704929E-001  0.2684442E+02  0.7818608E-02  0.1635841E+00
         -2   -1    0    0    0  501 -0.00000000000E+00  0.00000000000E+00  0.24251917929E+01  0.24251931866E+01  0.26000000000E-02 0. -1.
          2   -1    0    0  501    0  0.00000000000E+00 -0.00000000000E+00 -0.74285138149E+02  0.74285138195E+02  0.26000000000E-02 0.  1.
        -13    1    1    2    0    0 -0.11252490338E+02  0.62800323871E+01 -0.46655356193E+02  0.48402384028E+02  0.10570000000E+00 0. -1.
         13    1    1    2    0    0  0.11252490338E+02 -0.62800323871E+01 -0.25204590163E+02  0.28307947354E+02  0.10570000000E+00 0.  1.
<mgrwt>
<rscale>  0 0.26844423E+02</rscale>
<asrwt>0</asrwt>
<pdfrwt beam="2">  1        2 0.11428481E-01 0.26844423E+02</pdfrwt>
<pdfrwt beam="1">  1       -2 0.37310660E-03 0.26844423E+02</pdfrwt>
<totfact> 0.25388447E+06</totfact>
</mgrwt>
</event>
<event>
 4    1  0.3704929E-001  0.2125578E+02  0.7818608E-02  0.1721450E+00
          2   -1    0    0  501    0  0.00000000000E+00  0.00000000000E+00  0.26126760990E+01  0.26126773927E+01  0.26000000000E-02 0. -1.
         -2   -1    0    0    0  501 -0.00000000000E+00 -0.00000000000E+00 -0.43232316387E+02  0.43232316465E+02  0.26000000000E-02 0.  1.
        -13    1    1    2    0    0 -0.67735481687E+01 -0.76751970817E+01 -0.14151984500E+02  0.17466523489E+02  0.10570000000E+00 0.  1.
         13    1    1    2    0    0  0.67735481687E+01  0.76751970817E+01 -0.26467655788E+02  0.28378470368E+02  0.10570000000E+00 0. -1.
<mgrwt>
<rscale>  0 0.21255782E+02</rscale>
<asrwt>0</asrwt>
<pdfrwt beam="1">  1        2 0.40195030E-03 0.21255782E+02</pdfrwt>
<pdfrwt beam="2">  1       -2 0.66511252E-02 0.21255782E+02</pdfrwt>
<totfact> 0.30249544E+06</totfact>
</mgrwt>
</event>
<event>
 4    1  0.3704929E-001  0.8178329E+02  0.7818608E-02  0.1324066E+00
          2   -1    0    0  501    0  0.00000000000E+00  0.00000000000E+00  0.67940784540E+02  0.67940784590E+02  0.26000000000E-02 0. -1.
         -2   -1    0    0    0  501 -0.00000000000E+00 -0.00000000000E+00 -0.24611531078E+02  0.24611531215E+02  0.26000000000E-02 0.  1.
        -13    1    1    2    0    0  0.34869932674E+02  0.86167056395E+01 -0.45252625921E+00  0.35921800808E+02  0.10570000000E+00 0.  1.
         13    1    1    2    0    0 -0.34869932674E+02 -0.86167056395E+01  0.43781779721E+02  0.56630514997E+02  0.10570000000E+00 0. -1.
<mgrwt>
<rscale>  0 0.81783293E+02</rscale>
<asrwt>0</asrwt>
<pdfrwt beam="1">  1        2 0.10452428E-01 0.81783293E+02</pdfrwt>
<pdfrwt beam="2">  1       -2 0.37863895E-02 0.81783293E+02</pdfrwt>
<totfact> 0.14834239E+05</totfact>
</mgrwt>
</event>
<event>
 4    1  0.3704929E-001  0.2883904E+02  0.7818608E-02  0.1611288E+00
         -2   -1    0    0    0  501 -0.00000000000E+00  0.00000000000E+00  0.99129892002E+02  0.99129892036E+02  0.26000000000E-02 0. -1.
          2   -1    0    0  501    0  0.00000000000E+00 -0.00000000000E+00 -0.20974749568E+01  0.20974765683E+01  0.26000000000E-02 0.  1.
        -13    1    1    2    0    0  0.80742045644E+01  0.11341263394E+02  0.35338510254E+02  0.37982081489E+02  0.10570000000E+00 0.  1.
         13    1    1    2    0    0 -0.80742045644E+01 -0.11341263394E+02  0.61693906791E+02  0.63245287115E+02  0.10570000000E+00 0. -1.
<mgrwt>
<rscale>  0 0.28839039E+02</rscale>
<asrwt>0</asrwt>
<pdfrwt beam="2">  1        2 0.32268862E-03 0.28839039E+02</pdfrwt>
<pdfrwt beam="1">  1       -2 0.15250751E-01 0.28839039E+02</pdfrwt>
<totfact> 0.13095822E+06</totfact>
</mgrwt>
</event>
<event>
 4    1  0.3704929E-001  0.2202847E+02  0.7818608E-02  0.1707760E+00
          2   -1    0    0  501    0  0.00000000000E+00  0.00000000000E+00  0.14247293828E+02  0.14247294065E+02  0.26000000000E-02 0. -1.
         -2   -1    0    0    0  501 -0.00000000000E+00 -0.00000000000E+00 -0.85148317941E+01  0.85148321910E+01  0.26000000000E-02 0.  1.
        -13    1    1    2    0    0  0.64647800482E+01 -0.78420672890E+01  0.72514817317E+01  0.12485453946E+02  0.10570000000E+00 0. -1.
         13    1    1    2    0    0 -0.64647800482E+01  0.78420672890E+01 -0.15190196982E+01  0.10276672310E+02  0.10570000000E+00 0.  1.
<mgrwt>
<rscale>  0 0.22028465E+02</rscale>
<asrwt>0</asrwt>
<pdfrwt beam="1">  1        2 0.21918914E-02 0.22028465E+02</pdfrwt>
<pdfrwt beam="2">  1       -2 0.13099742E-02 0.22028465E+02</pdfrwt>
<totfact> 0.32478927E+06</totfact>
</mgrwt>
</event>
<event>
 4    1  0.3704929E-001  0.5563548E+02  0.7818608E-02  0.1417117E+00
          2   -1    0    0  501    0  0.00000000000E+00  0.00000000000E+00  0.14863795809E+03  0.14863795812E+03  0.26000000000E-02 0.  1.
         -2   -1    0    0    0  501 -0.00000000000E+00 -0.00000000000E+00 -0.52061174162E+01  0.52061180655E+01  0.26000000000E-02 0. -1.
        -13    1    1    2    0    0 -0.24694617057E+02 -0.78082772367E+00  0.36370701148E+02  0.43968999057E+02  0.10570000000E+00 0. -1.
         13    1    1    2    0    0  0.24694617057E+02  0.78082772367E+00  0.10706113953E+03  0.10987507713E+03  0.10570000000E+00 0.  1.
<mgrwt>
<rscale>  0 0.55635482E+02</rscale>
<asrwt>0</asrwt>
<pdfrwt beam="1">  1        2 0.22867382E-01 0.55635482E+02</pdfrwt>
<pdfrwt beam="2">  1       -2 0.80094107E-03 0.55635482E+02</pdfrwt>
<totfact> 0.51100235E+05</totfact>
</mgrwt>
</event>
<event>
 4    1  0.3704929E-001  0.3493668E+03  0.7818608E-02  0.1062875E+00
          2   -1    0    0  501    0  0.00000000000E+00  0.00000000000E+00  0.25444973214E+03  0.25444973215E+03  0.26000000000E-02 0.  1.
         -2   -1    0    0    0  501 -0.00000000000E+00 -0.00000000000E+00 -0.11992264091E+03  0.11992264094E+03  0.26000000000E-02 0. -1.
        -13    1    1    2    0    0 -0.23197502065E+02  0.16461072324E+03  0.12476483840E+03  0.20784871994E+03  0.10570000000E+00 0.  1.
         13    1    1    2    0    0  0.23197502065E+02 -0.16461072324E+03  0.97622528344E+01  0.16652365315E+03  0.10570000000E+00 0. -1.
<mgrwt>
<rscale>  0 0.34936676E+03</rscale>
<asrwt>0</asrwt>
<pdfrwt beam="1">  1        2 0.39146112E-01 0.34936676E+03</pdfrwt>
<pdfrwt beam="2">  1       -2 0.18449637E-01 0.34936676E+03</pdfrwt>
<totfact> 0.31700792E+03</totfact>
</mgrwt>
</event>
<event>
 4    1  0.3704929E-001  0.6275133E+02  0.7818608E-02  0.1386635E+00
          2   -1    0    0  501    0  0.00000000000E+00  0.00000000000E+00  0.10162785072E+03  0.10162785075E+03  0.26000000000E-02 0. -1.
         -2   -1    0    0    0  501 -0.00000000000E+00 -0.00000000000E+00 -0.96866399074E+01  0.96866402563E+01  0.26000000000E-02 0.  1.
        -13    1    1    2    0    0  0.14696024504E+02  0.12748106099E+02  0.89636401331E+02  0.91723404654E+02  0.10570000000E+00 0. -1.
         13    1    1    2    0    0 -0.14696024504E+02 -0.12748106099E+02  0.23048094813E+01  0.19591086355E+02  0.10570000000E+00 0.  1.
<mgrwt>
<rscale>  0 0.62751332E+02</rscale>
<asrwt>0</asrwt>
<pdfrwt beam="1">  1        2 0.15635055E-01 0.62751332E+02</pdfrwt>
<pdfrwt beam="2">  1       -2 0.14902523E-02 0.62751332E+02</pdfrwt>
<totfact> 0.33535437E+05</totfact>
</mgrwt>
</event>
<event>
 4    1  0.3704929E-001  0.4938544E+02  0.7818608E-02  0.1448685E+00
          2   -1    0    0  501    0  0.00000000000E+00  0.00000000000E+00  0.12287720297E+02  0.12287720572E+02  0.26000000000E-02 0. -1.
         -2   -1    0    0    0  501 -0.00000000000E+00 -0.00000000000E+00 -0.49621112570E+02  0.49621112639E+02  0.26000000000E-02 0.  1.
        -13    1    1    2    0    0  0.22733185302E+02 -0.54091808359E+01 -0.28668876148E+02  0.36986113385E+02  0.10570000000E+00 0.  1.
         13    1    1    2    0    0 -0.22733185302E+02  0.54091808359E+01 -0.86645161260E+01  0.24922719825E+02  0.10570000000E+00 0. -1.
<mgrwt>
<rscale>  0 0.49385438E+02</rscale>
<asrwt>0</asrwt>
<pdfrwt beam="1">  1        2 0.18904186E-02 0.49385438E+02</pdfrwt>
<pdfrwt beam="2">  1       -2 0.76340172E-02 0.49385438E+02</pdfrwt>
<totfact> 0.42052245E+05</totfact>
</mgrwt>
</event>
<event>
 4    1  0.3704929E-001  0.7018610E+02  0.7818608E-02  0.1359461E+00
          2   -1    0    0  501    0  0.00000000000E+00  0.00000000000E+00  0.10136579043E+03  0.10136579046E+03  0.26000000000E-02 0. -1.
         -2   -1    0    0    0  501 -0.00000000000E+00 -0.00000000000E+00 -0.12149286436E+02  0.12149286714E+02  0.26000000000E-02 0.  1.
        -13    1    1    2    0    0  0.13834305856E+02  0.20405684269E+02  0.85000784975E+02  0.88503811149E+02  0.10570000000E+00 0. -1.
         13    1    1    2    0    0 -0.13834305856E+02 -0.20405684269E+02  0.42157190178E+01  0.25011266028E+02  0.10570000000E+00 0.  1.
<mgrwt>
<rscale>  0 0.70186097E+02</rscale>
<asrwt>0</asrwt>
<pdfrwt beam="1">  1        2 0.15594737E-01 0.70186097E+02</pdfrwt>
<pdfrwt beam="2">  1       -2 0.18691210E-02 0.70186097E+02</pdfrwt>
<totfact> 0.24961228E+05</totfact>
</mgrwt>
</event>
<event>
 4    1  0.3704929E-001  0.2237773E+02  0.7818608E-02  0.1701800E+00
         -2   -1    0    0    0  501 -0.00000000000E+00  0.00000000000E+00  0.19883621373E+02  0.19883621543E+02  0.26000000000E-02 0. -1.
          2   -1    0    0  501    0  0.00000000000E+00 -0.00000000000E+00 -0.62961734415E+01  0.62961739783E+01  0.26000000000E-02 0.  1.
        -13    1    1    2    0    0  0.11061444387E+02  0.15746012713E+01  0.61069152216E+01  0.12733440506E+02  0.10570000000E+00 0.  1.
         13    1    1    2    0    0 -0.11061444387E+02 -0.15746012713E+01  0.74805327101E+01  0.13446355016E+02  0.10570000000E+00 0. -1.
<mgrwt>
<rscale>  0 0.22377733E+02</rscale>
<asrwt>0</asrwt>
<pdfrwt beam="2">  1        2 0.96864214E-03 0.22377733E+02</pdfrwt>
<pdfrwt beam="1">  1       -2 0.30590187E-02 0.22377733E+02</pdfrwt>
<totfact> 0.29289759E+06</totfact>
</mgrwt>
</event>
<event>
 4    1  0.3704929E-001  0.3093856E+02  0.7818608E-02  0.1587940E+00
          2   -1    0    0  501    0  0.00000000000E+00  0.00000000000E+00  0.66279658084E+02  0.66279658135E+02  0.26000000000E-02 0. -1.
         -2   -1    0    0    0  501 -0.00000000000E+00 -0.00000000000E+00 -0.36104388833E+01  0.36104398195E+01  0.26000000000E-02 0.  1.
        -13    1    1    2    0    0  0.39427902517E+01  0.13919975878E+02  0.18966488355E+02  0.23854772613E+02  0.10570000000E+00 0.  1.
         13    1    1    2    0    0 -0.39427902517E+01 -0.13919975878E+02  0.43702730845E+02  0.46035325341E+02  0.10570000000E+00 0. -1.
<mgrwt>
<rscale>  0 0.30938564E+02</rscale>
<asrwt>0</asrwt>
<pdfrwt beam="1">  1        2 0.10196870E-01 0.30938564E+02</pdfrwt>
<pdfrwt beam="2">  1       -2 0.55545225E-03 0.30938564E+02</pdfrwt>
<totfact> 0.17765890E+06</totfact>
</mgrwt>
</event>
<event>
 4    1  0.3704929E-001  0.6307865E+02  0.7818608E-02  0.1385348E+00
          2   -1    0    0  501    0  0.00000000000E+00  0.00000000000E+00  0.12914942113E+03  0.12914942116E+03  0.26000000000E-02 0. -1.
         -2   -1    0    0    0  501 -0.00000000000E+00 -0.00000000000E+00 -0.77021568367E+01  0.77021572755E+01  0.26000000000E-02 0.  1.
        -13    1    1    2    0    0 -0.14920912811E+02 -0.18888129194E+02  0.10493768566E+03  0.10766301179E+03  0.10570000000E+00 0. -1.
         13    1    1    2    0    0  0.14920912811E+02  0.18888129194E+02  0.16509578638E+02  0.29188566646E+02  0.10570000000E+00 0.  1.
<mgrwt>
<rscale>  0 0.63078653E+02</rscale>
<asrwt>0</asrwt>
<pdfrwt beam="1">  1        2 0.19869141E-01 0.63078653E+02</pdfrwt>
<pdfrwt beam="2">  1       -2 0.11849473E-02 0.63078653E+02</pdfrwt>
<totfact> 0.35444072E+05</totfact>
</mgrwt>
</event>
<event>
 4    1  0.3704929E-001  0.4218506E+02  0.7818608E-02  0.1492721E+00
          2   -1    0    0  501    0  0.00000000000E+00  0.00000000000E+00  0.33429421824E+01  0.33429431935E+01  0.26000000000E-02 0. -1.
         -2   -1    0    0    0  501 -0.00000000000E+00 -0.00000000000E+00 -0.13308479767E+03  0.13308479770E+03  0.26000000000E-02 0.  1.
        -13    1    1    2    0    0 -0.85991813199E+01 -0.17301647119E+02 -0.92234482593E+02  0.94236425357E+02  0.10570000000E+00 0.  1.
         13    1    1    2    0    0  0.85991813199E+01  0.17301647119E+02 -0.37507372896E+02  0.42191315534E+02  0.10570000000E+00 0. -1.
<mgrwt>
<rscale>  0 0.42185062E+02</rscale>
<asrwt>0</asrwt>
<pdfrwt beam="1">  1        2 0.51429898E-03 0.42185062E+02</pdfrwt>
<pdfrwt beam="2">  1       -2 0.20474580E-01 0.42185062E+02</pdfrwt>
<totfact> 0.49275531E+05</totfact>
</mgrwt>
</event>
<event>
 4    1  0.3704929E-001  0.2412885E+02  0.7818608E-02  0.1673839E+00
         -2   -1    0    0    0  501 -0.00000000000E+00  0.00000000000E+00  0.71082389948E+02  0.71082389996E+02  0.26000000000E-02 0. -1.
          2   -1    0    0  501    0  0.00000000000E+00 -0.00000000000E+00 -0.20476275095E+01  0.20476291602E+01  0.26000000000E-02 0.  1.
        -13    1    1    2    0    0 -0.33594055037E+01  0.10383421665E+02  0.50101211046E+02  0.51276150125E+02  0.10570000000E+00 0. -1.
         13    1    1    2    0    0  0.33594055037E+01 -0.10383421665E+02  0.18933551393E+02  0.21853869031E+02  0.10570000000E+00 0.  1.
<mgrwt>
<rscale>  0 0.24128847E+02</rscale>
<asrwt>0</asrwt>
<pdfrwt beam="2">  1        2 0.31501974E-03 0.24128847E+02</pdfrwt>
<pdfrwt beam="1">  1       -2 0.10935753E-01 0.24128847E+02</pdfrwt>
<totfact> 0.21099310E+06</totfact>
</mgrwt>
</event>
<event>
 4    1  0.3704929E-001  0.2900050E+02  0.7818608E-02  0.1609407E+00
         -2   -1    0    0    0  501 -0.00000000000E+00  0.00000000000E+00  0.46520175532E+01  0.46520182798E+01  0.26000000000E-02 0. -1.
          2   -1    0    0  501    0  0.00000000000E+00 -0.00000000000E+00 -0.45197005378E+02  0.45197005453E+02  0.26000000000E-02 0.  1.
        -13    1    1    2    0    0  0.51317948937E+01  0.13447092279E+02 -0.17252651383E+02  0.22468305718E+02  0.10570000000E+00 0. -1.
         13    1    1    2    0    0 -0.51317948937E+01 -0.13447092279E+02 -0.23292336442E+02  0.27380718015E+02  0.10570000000E+00 0.  1.
<mgrwt>
<rscale>  0 0.29000502E+02</rscale>
<asrwt>0</asrwt>
<pdfrwt beam="2">  1        2 0.69533852E-02 0.29000502E+02</pdfrwt>
<pdfrwt beam="1">  1       -2 0.71569510E-03 0.29000502E+02</pdfrwt>
<totfact> 0.19395882E+06</totfact>
</mgrwt>
</event>
<event>
 4    1  0.3704929E-001  0.2267179E+02  0.7818608E-02  0.1696886E+00
          2   -1    0    0  501    0  0.00000000000E+00  0.00000000000E+00  0.18359412391E+01  0.18359430802E+01  0.26000000000E-02 0.  1.
         -2   -1    0    0    0  501 -0.00000000000E+00 -0.00000000000E+00 -0.69992677989E+02  0.69992678037E+02  0.26000000000E-02 0. -1.
        -13    1    1    2    0    0  0.74633279026E+01 -0.75496330671E+01 -0.21487791045E+02  0.23967364463E+02  0.10570000000E+00 0.  1.
         13    1    1    2    0    0 -0.74633279026E+01  0.75496330671E+01 -0.46668945704E+02  0.47861256654E+02  0.10570000000E+00 0. -1.
<mgrwt>
<rscale>  0 0.22671790E+02</rscale>
<asrwt>0</asrwt>
<pdfrwt beam="1">  1        2 0.28245270E-03 0.22671790E+02</pdfrwt>
<pdfrwt beam="2">  1       -2 0.10768102E-01 0.22671790E+02</pdfrwt>
<totfact> 0.24325776E+06</totfact>
</mgrwt>
</event>
<event>
 4    1  0.3704929E-001  0.2687998E+02  0.7818608E-02  0.1635380E+00
         -2   -1    0    0    0  501 -0.00000000000E+00  0.00000000000E+00  0.26829922451E+02  0.26829922577E+02  0.26000000000E-02 0.  1.
          2   -1    0    0  501    0  0.00000000000E+00 -0.00000000000E+00 -0.67325346859E+01  0.67325351880E+01  0.26000000000E-02 0. -1.
        -13    1    1    2    0    0 -0.10703846509E+02  0.38474300686E+01  0.11102956961E+01  0.11428865965E+02  0.10570000000E+00 0.  1.
         13    1    1    2    0    0  0.10703846509E+02 -0.38474300686E+01  0.18987092069E+02  0.22133591800E+02  0.10570000000E+00 0. -1.
<mgrwt>
<rscale>  0 0.26879985E+02</rscale>
<asrwt>0</asrwt>
<pdfrwt beam="2">  1        2 0.10357746E-02 0.26879985E+02</pdfrwt>
<pdfrwt beam="1">  1       -2 0.41276804E-02 0.26879985E+02</pdfrwt>
<totfact> 0.18905866E+06</totfact>
</mgrwt>
</event>
<event>
 4    1  0.3704929E-001  0.4950373E+02  0.7818608E-02  0.1448037E+00
          2   -1    0    0  501    0  0.00000000000E+00  0.00000000000E+00  0.11826035255E+02  0.11826035541E+02  0.26000000000E-02 0.  1.
         -2   -1    0    0    0  501 -0.00000000000E+00 -0.00000000000E+00 -0.51805599249E+02  0.51805599315E+02  0.26000000000E-02 0. -1.
        -13    1    1    2    0    0 -0.10246245865E+02 -0.15760629322E+00  0.89709938884E+01  0.13619849408E+02  0.10570000000E+00 0.  1.
         13    1    1    2    0    0  0.10246245865E+02  0.15760629322E+00 -0.48950557883E+02  0.50011785447E+02  0.10570000000E+00 0. -1.
<mgrwt>
<rscale>  0 0.49503731E+02</rscale>
<asrwt>0</asrwt>
<pdfrwt beam="1">  1        2 0.18193901E-02 0.49503731E+02</pdfrwt>
<pdfrwt beam="2">  1       -2 0.79700921E-02 0.49503731E+02</pdfrwt>
<totfact> 0.41497979E+05</totfact>
</mgrwt>
</event>
<event>
 4    1  0.3704929E-001  0.1414440E+03  0.7818608E-02  0.1211399E+00
         -2   -1    0    0    0  501 -0.00000000000E+00  0.00000000000E+00  0.86499553666E+01  0.86499557573E+01  0.26000000000E-02 0.  1.
          2   -1    0    0  501    0  0.00000000000E+00 -0.00000000000E+00 -0.57822287789E+03  0.57822287790E+03  0.26000000000E-02 0. -1.
        -13    1    1    2    0    0 -0.61718629191E+02 -0.32145118909E+02 -0.23245230754E+03  0.24264497587E+03  0.10570000000E+00 0.  1.
         13    1    1    2    0    0  0.61718629191E+02  0.32145118909E+02 -0.33712061498E+03  0.34422785779E+03  0.10570000000E+00 0. -1.
<mgrwt>
<rscale>  0 0.14144401E+03</rscale>
<asrwt>0</asrwt>
<pdfrwt beam="2">  1        2 0.88957335E-01 0.14144401E+03</pdfrwt>
<pdfrwt beam="1">  1       -2 0.13307629E-02 0.14144401E+03</pdfrwt>
<totfact> 0.68794165E+04</totfact>
</mgrwt>
</event>
<event>
 4    1  0.3704929E-001  0.2339230E+02  0.7818608E-02  0.1685229E+00
          2   -1    0    0  501    0  0.00000000000E+00  0.00000000000E+00  0.33477769246E+02  0.33477769347E+02  0.26000000000E-02 0. -1.
         -2   -1    0    0    0  501 -0.00000000000E+00 -0.00000000000E+00 -0.40862894601E+01  0.40862902872E+01  0.26000000000E-02 0.  1.
        -13    1    1    2    0    0  0.11670977460E+02  0.33391367834E-01  0.15914342684E+02  0.19735508745E+02  0.10570000000E+00 0. -1.
         13    1    1    2    0    0 -0.11670977460E+02 -0.33391367834E-01  0.13477137102E+02  0.17828550889E+02  0.10570000000E+00 0.  1.
<mgrwt>
<rscale>  0 0.23392296E+02</rscale>
<asrwt>0</asrwt>
<pdfrwt beam="1">  1        2 0.51504259E-02 0.23392296E+02</pdfrwt>
<pdfrwt beam="2">  1       -2 0.62866001E-03 0.23392296E+02</pdfrwt>
<totfact> 0.30765157E+06</totfact>
</mgrwt>
</event>
<event>
 4    1  0.3704929E-001  0.2458137E+02  0.7818608E-02  0.1667089E+00
         -2   -1    0    0    0  501 -0.00000000000E+00  0.00000000000E+00  0.11720061486E+02  0.11720061775E+02  0.26000000000E-02 0. -1.
          2   -1    0    0  501    0  0.00000000000E+00 -0.00000000000E+00 -0.12889095277E+02  0.12889095539E+02  0.26000000000E-02 0.  1.
        -13    1    1    2    0    0  0.97216420045E+01  0.72917349974E+01 -0.24223752077E+01  0.12391884307E+02  0.10570000000E+00 0.  1.
         13    1    1    2    0    0 -0.97216420045E+01 -0.72917349974E+01  0.12533414170E+01  0.12217273007E+02  0.10570000000E+00 0. -1.
<mgrwt>
<rscale>  0 0.24581375E+02</rscale>
<asrwt>0</asrwt>
<pdfrwt beam="2">  1        2 0.19829378E-02 0.24581375E+02</pdfrwt>
<pdfrwt beam="1">  1       -2 0.18030864E-02 0.24581375E+02</pdfrwt>
<totfact> 0.24924426E+06</totfact>
</mgrwt>
</event>
<event>
 4    1  0.3704929E-001  0.3444854E+02  0.7818608E-02  0.1553553E+00
         -2   -1    0    0    0  501 -0.00000000000E+00  0.00000000000E+00  0.12943520678E+02  0.12943520939E+02  0.26000000000E-02 0.  1.
          2   -1    0    0  501    0  0.00000000000E+00 -0.00000000000E+00 -0.22920776166E+02  0.22920776314E+02  0.26000000000E-02 0. -1.
        -13    1    1    2    0    0  0.67450895546E+01  0.12554041681E+02 -0.15059017051E+02  0.20733677018E+02  0.10570000000E+00 0. -1.
         13    1    1    2    0    0 -0.67450895546E+01 -0.12554041681E+02  0.50817615627E+01  0.15130620235E+02  0.10570000000E+00 0.  1.
<mgrwt>
<rscale>  0 0.34448544E+02</rscale>
<asrwt>0</asrwt>
<pdfrwt beam="2">  1        2 0.35262733E-02 0.34448544E+02</pdfrwt>
<pdfrwt beam="1">  1       -2 0.19913109E-02 0.34448544E+02</pdfrwt>
<totfact> 0.11675829E+06</totfact>
</mgrwt>
</event>
<event>
 4    1  0.3704929E-001  0.2796478E+02  0.7818608E-02  0.1621740E+00
          2   -1    0    0  501    0  0.00000000000E+00  0.00000000000E+00  0.43174411315E+01  0.43174419144E+01  0.26000000000E-02 0.  1.
         -2   -1    0    0    0  501 -0.00000000000E+00 -0.00000000000E+00 -0.45283112031E+02  0.45283112106E+02  0.26000000000E-02 0. -1.
        -13    1    1    2    0    0 -0.41351801702E+00 -0.13946851403E+02 -0.18886171110E+02  0.23481573476E+02  0.10570000000E+00 0.  1.
         13    1    1    2    0    0  0.41351801702E+00  0.13946851403E+02 -0.22079499789E+02  0.26118980544E+02  0.10570000000E+00 0. -1.
<mgrwt>
<rscale>  0 0.27964777E+02</rscale>
<asrwt>0</asrwt>
<pdfrwt beam="1">  1        2 0.66422181E-03 0.27964777E+02</pdfrwt>
<pdfrwt beam="2">  1       -2 0.69666324E-02 0.27964777E+02</pdfrwt>
<totfact> 0.16226110E+06</totfact>
</mgrwt>
</event>
<event>
 4    1  0.3704929E-001  0.3902496E+02  0.7818608E-02  0.1515512E+00
          2   -1    0    0  501    0  0.00000000000E+00  0.00000000000E+00  0.16233907388E+02  0.16233907597E+02  0.26000000000E-02 0.  1.
         -2   -1    0    0    0  501 -0.00000000000E+00 -0.00000000000E+00 -0.23453181533E+02  0.23453181677E+02  0.26000000000E-02 0. -1.
        -13    1    1    2    0    0 -0.75479386976E+01 -0.14048618527E+02  0.78234664631E+01  0.17763807618E+02  0.10570000000E+00 0.  1.
         13    1    1    2    0    0  0.75479386976E+01  0.14048618527E+02 -0.15042740608E+02  0.21923281656E+02  0.10570000000E+00 0. -1.
<mgrwt>
<rscale>  0 0.39024955E+02</rscale>
<asrwt>0</asrwt>
<pdfrwt beam="1">  1        2 0.24975242E-02 0.39024955E+02</pdfrwt>
<pdfrwt beam="2">  1       -2 0.36081818E-02 0.39024955E+02</pdfrwt>
<totfact> 0.81744885E+05</totfact>
</mgrwt>
</event>
<event>
 4    1  0.3704929E-001  0.4323950E+02  0.7818608E-02  0.1485641E+00
          2   -1    0    0  501    0  0.00000000000E+00  0.00000000000E+00  0.19597813416E+02  0.19597813589E+02  0.26000000000E-02 0.  1.
         -2   -1    0    0    0  501 -0.00000000000E+00 -0.00000000000E+00 -0.23850291971E+02  0.23850292113E+02  0.26000000000E-02 0. -1.
        -13    1    1    2    0    0 -0.19316911851E+02 -0.14670588447E+01  0.75173043836E+01  0.20780192078E+02  0.10570000000E+00 0.  1.
         13    1    1    2    0    0  0.19316911851E+02  0.14670588447E+01 -0.11769782938E+02  0.22667913623E+02  0.10570000000E+00 0. -1.
<mgrwt>
<rscale>  0 0.43239499E+02</rscale>
<asrwt>0</asrwt>
<pdfrwt beam="1">  1        2 0.30150482E-02 0.43239499E+02</pdfrwt>
<pdfrwt beam="2">  1       -2 0.36692757E-02 0.43239499E+02</pdfrwt>
<totfact> 0.64340909E+05</totfact>
</mgrwt>
</event>
<event>
 4    1  0.3704929E-001  0.4604591E+02  0.7818608E-02  0.1467916E+00
         -2   -1    0    0    0  501 -0.00000000000E+00  0.00000000000E+00  0.13387569266E+03  0.13387569269E+03  0.26000000000E-02 0.  1.
          2   -1    0    0  501    0  0.00000000000E+00 -0.00000000000E+00 -0.39593180369E+01  0.39593188906E+01  0.26000000000E-02 0. -1.
        -13    1    1    2    0    0  0.19883757803E+02  0.45785619603E+01  0.96879710463E+02  0.99005133836E+02  0.10570000000E+00 0.  1.
         13    1    1    2    0    0 -0.19883757803E+02 -0.45785619603E+01  0.33036664163E+02  0.38829877743E+02  0.10570000000E+00 0. -1.
<mgrwt>
<rscale>  0 0.46045912E+02</rscale>
<asrwt>0</asrwt>
<pdfrwt beam="2">  1        2 0.60912601E-03 0.46045912E+02</pdfrwt>
<pdfrwt beam="1">  1       -2 0.20596257E-01 0.46045912E+02</pdfrwt>
<totfact> 0.39784134E+05</totfact>
</mgrwt>
</event>
<event>
 4    1  0.3704929E-001  0.3945674E+02  0.7818608E-02  0.1512248E+00
         -2   -1    0    0    0  501 -0.00000000000E+00  0.00000000000E+00  0.21373452671E+01  0.21373468485E+01  0.26000000000E-02 0. -1.
          2   -1    0    0  501    0  0.00000000000E+00 -0.00000000000E+00 -0.18209896925E+03  0.18209896927E+03  0.26000000000E-02 0.  1.
        -13    1    1    2    0    0 -0.77593240102E+01 -0.18126548596E+02 -0.86960253716E+02  0.89167683450E+02  0.10570000000E+00 0. -1.
         13    1    1    2    0    0  0.77593240102E+01  0.18126548596E+02 -0.93001370271E+02  0.95068632671E+02  0.10570000000E+00 0.  1.
<mgrwt>
<rscale>  0 0.39456737E+02</rscale>
<asrwt>0</asrwt>
<pdfrwt beam="2">  1        2 0.28015214E-01 0.39456737E+02</pdfrwt>
<pdfrwt beam="1">  1       -2 0.32882262E-03 0.39456737E+02</pdfrwt>
<totfact> 0.12811586E+06</totfact>
</mgrwt>
</event>
<event>
 4    1  0.3704929E-001  0.3438754E+02  0.7818608E-02  0.1554108E+00
         -2   -1    0    0    0  501 -0.00000000000E+00  0.00000000000E+00  0.22492298149E+01  0.22492313177E+01  0.26000000000E-02 0.  1.
          2   -1    0    0  501    0  0.00000000000E+00 -0.00000000000E+00 -0.13143414127E+03  0.13143414129E+03  0.26000000000E-02 0. -1.
        -13    1    1    2    0    0  0.15880579817E+02 -0.23746528914E+01 -0.88488332089E+02  0.89933463628E+02  0.10570000000E+00 0. -1.
         13    1    1    2    0    0 -0.15880579817E+02  0.23746528914E+01 -0.40696579365E+02  0.43749908985E+02  0.10570000000E+00 0.  1.
<mgrwt>
<rscale>  0 0.34387538E+02</rscale>
<asrwt>0</asrwt>
<pdfrwt beam="2">  1        2 0.20220631E-01 0.34387538E+02</pdfrwt>
<pdfrwt beam="1">  1       -2 0.34603558E-03 0.34387538E+02</pdfrwt>
<totfact> 0.16209601E+06</totfact>
</mgrwt>
</event>
<event>
 4    1  0.3704929E-001  0.7483817E+02  0.7818608E-02  0.1344373E+00
         -2   -1    0    0    0  501 -0.00000000000E+00  0.00000000000E+00  0.10681189362E+02  0.10681189678E+02  0.26000000000E-02 0. -1.
          2   -1    0    0  501    0  0.00000000000E+00 -0.00000000000E+00 -0.13108914116E+03  0.13108914119E+03  0.26000000000E-02 0.  1.
        -13    1    1    2    0    0  0.69293678877E+00 -0.19892343085E+02 -0.12022828440E+03  0.12186483093E+03  0.10570000000E+00 0.  1.
         13    1    1    2    0    0 -0.69293678877E+00  0.19892343085E+02 -0.17966739757E+00  0.19905499935E+02  0.10570000000E+00 0. -1.
<mgrwt>
<rscale>  0 0.74838171E+02</rscale>
<asrwt>0</asrwt>
<pdfrwt beam="2">  1        2 0.20167559E-01 0.74838171E+02</pdfrwt>
<pdfrwt beam="1">  1       -2 0.16432600E-02 0.74838171E+02</pdfrwt>
<totfact> 0.22730498E+05</totfact>
</mgrwt>
</event>
<event>
 4    1  0.3704929E-001  0.3084850E+02  0.7818608E-02  0.1588895E+00
          2   -1    0    0  501    0  0.00000000000E+00  0.00000000000E+00  0.28112971079E+01  0.28112983102E+01  0.26000000000E-02 0. -1.
         -2   -1    0    0    0  501 -0.00000000000E+00 -0.00000000000E+00 -0.84625525816E+02  0.84625525856E+02  0.26000000000E-02 0.  1.
        -13    1    1    2    0    0 -0.14696705926E+02  0.25580058504E+01 -0.29798668234E+02  0.33324290840E+02  0.10570000000E+00 0. -1.
         13    1    1    2    0    0  0.14696705926E+02 -0.25580058504E+01 -0.52015560475E+02  0.54112533326E+02  0.10570000000E+00 0.  1.
<mgrwt>
<rscale>  0 0.30848504E+02</rscale>
<asrwt>0</asrwt>
<pdfrwt beam="1">  1        2 0.43250741E-03 0.30848504E+02</pdfrwt>
<pdfrwt beam="2">  1       -2 0.13019310E-01 0.30848504E+02</pdfrwt>
<totfact> 0.11613948E+06</totfact>
</mgrwt>
</event>
<event>
 4    1  0.3704929E-001  0.2158336E+02  0.7818608E-02  0.1715559E+00
         -2   -1    0    0    0  501 -0.00000000000E+00  0.00000000000E+00  0.18540865800E+01  0.18540884030E+01  0.26000000000E-02 0. -1.
          2   -1    0    0  501    0  0.00000000000E+00 -0.00000000000E+00 -0.62812776994E+02  0.62812777048E+02  0.26000000000E-02 0.  1.
        -13    1    1    2    0    0  0.38196190744E+01 -0.10072874006E+02 -0.28591692478E+02  0.30554023170E+02  0.10570000000E+00 0. -1.
         13    1    1    2    0    0 -0.38196190744E+01  0.10072874006E+02 -0.32366997936E+02  0.34112842281E+02  0.10570000000E+00 0.  1.
<mgrwt>
<rscale>  0 0.21583363E+02</rscale>
<asrwt>0</asrwt>
<pdfrwt beam="2">  1        2 0.96635026E-02 0.21583363E+02</pdfrwt>
<pdfrwt beam="1">  1       -2 0.28524428E-03 0.21583363E+02</pdfrwt>
<totfact> 0.40540555E+06</totfact>
</mgrwt>
</event>
<event>
 4    1  0.3704929E-001  0.2276233E+02  0.7818608E-02  0.1695392E+00
         -2   -1    0    0    0  501 -0.00000000000E+00  0.00000000000E+00  0.17037767601E+01  0.17037787440E+01  0.26000000000E-02 0. -1.
          2   -1    0    0  501    0  0.00000000000E+00 -0.00000000000E+00 -0.76025683838E+02  0.76025683882E+02  0.26000000000E-02 0.  1.
        -13    1    1    2    0    0  0.84619716850E+01 -0.64327067561E+01 -0.51046768352E+02  0.52141810601E+02  0.10570000000E+00 0.  1.
         13    1    1    2    0    0 -0.84619716850E+01  0.64327067561E+01 -0.23275138725E+02  0.25587652025E+02  0.10570000000E+00 0. -1.
<mgrwt>
<rscale>  0 0.22762326E+02</rscale>
<asrwt>0</asrwt>
<pdfrwt beam="2">  1        2 0.11696257E-01 0.22762326E+02</pdfrwt>
<pdfrwt beam="1">  1       -2 0.26211972E-03 0.22762326E+02</pdfrwt>
<totfact> 0.37262245E+06</totfact>
</mgrwt>
</event>
<event>
 4    1  0.3704929E-001  0.4382917E+02  0.7818608E-02  0.1481786E+00
          2   -1    0    0  501    0  0.00000000000E+00  0.00000000000E+00  0.46621335249E+02  0.46621335321E+02  0.26000000000E-02 0. -1.
         -2   -1    0    0    0  501 -0.00000000000E+00 -0.00000000000E+00 -0.10301059119E+02  0.10301059447E+02  0.26000000000E-02 0.  1.
        -13    1    1    2    0    0 -0.83951824107E+01 -0.19428846584E+02  0.25538816322E+02  0.33169285174E+02  0.10570000000E+00 0.  1.
         13    1    1    2    0    0  0.83951824107E+01  0.19428846584E+02  0.10781459808E+02  0.23753109594E+02  0.10570000000E+00 0. -1.
<mgrwt>
<rscale>  0 0.43829175E+02</rscale>
<asrwt>0</asrwt>
<pdfrwt beam="1">  1        2 0.71725132E-02 0.43829175E+02</pdfrwt>
<pdfrwt beam="2">  1       -2 0.15847784E-02 0.43829175E+02</pdfrwt>
<totfact> 0.70869967E+05</totfact>
</mgrwt>
</event>
<event>
 4    1  0.3704929E-001  0.2040146E+02  0.7818608E-02  0.1737460E+00
          2   -1    0    0  501    0  0.00000000000E+00  0.00000000000E+00  0.26522442205E+01  0.26522454949E+01  0.26000000000E-02 0. -1.
         -2   -1    0    0    0  501 -0.00000000000E+00 -0.00000000000E+00 -0.39232752686E+02  0.39232752772E+02  0.26000000000E-02 0.  1.
        -13    1    1    2    0    0 -0.44998315347E+01  0.90230688186E+01 -0.21457158513E+02  0.23708333528E+02  0.10570000000E+00 0. -1.
         13    1    1    2    0    0  0.44998315347E+01 -0.90230688186E+01 -0.15123349953E+02  0.18176664739E+02  0.10570000000E+00 0.  1.
<mgrwt>
<rscale>  0 0.20401458E+02</rscale>
<asrwt>0</asrwt>
<pdfrwt beam="1">  1        2 0.40803771E-03 0.20401458E+02</pdfrwt>
<pdfrwt beam="2">  1       -2 0.60358078E-02 0.20401458E+02</pdfrwt>
<totfact> 0.33513662E+06</totfact>
</mgrwt>
</event>
<event>
 4    1  0.3704929E-001  0.2270355E+02  0.7818608E-02  0.1696361E+00
          2   -1    0    0  501    0  0.00000000000E+00  0.00000000000E+00  0.10946363582E+03  0.10946363585E+03  0.26000000000E-02 0. -1.
         -2   -1    0    0    0  501 -0.00000000000E+00 -0.00000000000E+00 -0.11772188147E+01  0.11772216859E+01  0.26000000000E-02 0.  1.
        -13    1    1    2    0    0  0.71999195879E+01  0.84521488266E+01  0.42637738808E+02  0.44059795790E+02  0.10570000000E+00 0. -1.
         13    1    1    2    0    0 -0.71999195879E+01 -0.84521488266E+01  0.65648678193E+02  0.66581061744E+02  0.10570000000E+00 0.  1.
<mgrwt>
<rscale>  0 0.22703551E+02</rscale>
<asrwt>0</asrwt>
<pdfrwt beam="1">  1        2 0.16840552E-01 0.22703551E+02</pdfrwt>
<pdfrwt beam="2">  1       -2 0.18111089E-03 0.22703551E+02</pdfrwt>
<totfact> 0.40615387E+06</totfact>
</mgrwt>
</event>
<event>
 4    1  0.3704929E-001  0.3269922E+02  0.7818608E-02  0.1570036E+00
          2   -1    0    0  501    0  0.00000000000E+00  0.00000000000E+00  0.37305730156E+01  0.37305739217E+01  0.26000000000E-02 0. -1.
         -2   -1    0    0    0  501 -0.00000000000E+00 -0.00000000000E+00 -0.71653790493E+02  0.71653790540E+02  0.26000000000E-02 0.  1.
        -13    1    1    2    0    0 -0.11367719805E+01 -0.14491488595E+02 -0.51214020209E+02  0.53237040965E+02  0.10570000000E+00 0. -1.
         13    1    1    2    0    0  0.11367719805E+01  0.14491488595E+02 -0.16709197268E+02  0.22147323497E+02  0.10570000000E+00 0.  1.
<mgrwt>
<rscale>  0 0.32699219E+02</rscale>
<asrwt>0</asrwt>
<pdfrwt beam="1">  1        2 0.57393443E-03 0.32699219E+02</pdfrwt>
<pdfrwt beam="2">  1       -2 0.11023659E-01 0.32699219E+02</pdfrwt>
<totfact> 0.10485176E+06</totfact>
</mgrwt>
</event>
<event>
 4    1  0.3704929E-001  0.3552795E+02  0.7818608E-02  0.1543962E+00
          2   -1    0    0  501    0  0.00000000000E+00  0.00000000000E+00  0.10945820377E+02  0.10945820686E+02  0.26000000000E-02 0.  1.
         -2   -1    0    0    0  501 -0.00000000000E+00 -0.00000000000E+00 -0.28829165789E+02  0.28829165906E+02  0.26000000000E-02 0. -1.
        -13    1    1    2    0    0 -0.10278980858E+01  0.16917477131E+02 -0.29870111798E+01  0.17210200907E+02  0.10570000000E+00 0. -1.
         13    1    1    2    0    0  0.10278980858E+01 -0.16917477131E+02 -0.14896334232E+02  0.22564785685E+02  0.10570000000E+00 0.  1.
<mgrwt>
<rscale>  0 0.35527954E+02</rscale>
<asrwt>0</asrwt>
<pdfrwt beam="1">  1        2 0.16839724E-02 0.35527954E+02</pdfrwt>
<pdfrwt beam="2">  1       -2 0.44352563E-02 0.35527954E+02</pdfrwt>
<totfact> 0.99018003E+05</totfact>
</mgrwt>
</event>
<event>
 4    1  0.3704929E-001  0.9943705E+02  0.7818608E-02  0.1281484E+00
          2   -1    0    0  501    0  0.00000000000E+00  0.00000000000E+00  0.10098745635E+03  0.10098745638E+03  0.26000000000E-02 0. -1.
         -2   -1    0    0    0  501 -0.00000000000E+00 -0.00000000000E+00 -0.24477612364E+02  0.24477612502E+02  0.26000000000E-02 0.  1.
        -13    1    1    2    0    0 -0.11611885202E+01 -0.47874715413E+02  0.21393439425E+02  0.52450235058E+02  0.10570000000E+00 0. -1.
         13    1    1    2    0    0  0.11611885202E+01  0.47874715413E+02  0.55116404559E+02  0.73014833826E+02  0.10570000000E+00 0.  1.
<mgrwt>
<rscale>  0 0.99437052E+02</rscale>
<asrwt>0</asrwt>
<pdfrwt beam="1">  1        2 0.15536532E-01 0.99437052E+02</pdfrwt>
<pdfrwt beam="2">  1       -2 0.37657865E-02 0.99437052E+02</pdfrwt>
<totfact> 0.96754642E+04</totfact>
</mgrwt>
</event>
<event>
 4    1  0.3704929E-001  0.4039909E+02  0.7818608E-02  0.1505295E+00
         -2   -1    0    0    0  501 -0.00000000000E+00  0.00000000000E+00  0.46873864643E+02  0.46873864715E+02  0.26000000000E-02 0.  1.
          2   -1    0    0  501    0  0.00000000000E+00 -0.00000000000E+00 -0.87046712263E+01  0.87046716146E+01  0.26000000000E-02 0. -1.
        -13    1    1    2    0    0 -0.12333283964E+02 -0.10526224296E+02  0.25128632342E+01  0.16408441285E+02  0.10570000000E+00 0. -1.
         13    1    1    2    0    0  0.12333283964E+02  0.10526224296E+02  0.35656330183E+02  0.39170095045E+02  0.10570000000E+00 0.  1.
<mgrwt>
<rscale>  0 0.40399089E+02</rscale>
<asrwt>0</asrwt>
<pdfrwt beam="2">  1        2 0.13391802E-02 0.40399089E+02</pdfrwt>
<pdfrwt beam="1">  1       -2 0.72113638E-02 0.40399089E+02</pdfrwt>
<totfact> 0.68510479E+05</totfact>
</mgrwt>
</event>
<event>
 4    1  0.3704929E-001  0.2416483E+02  0.7818608E-02  0.1673296E+00
          2   -1    0    0  501    0  0.00000000000E+00  0.00000000000E+00  0.21219885182E+01  0.21219901110E+01  0.26000000000E-02 0. -1.
         -2   -1    0    0    0  501 -0.00000000000E+00 -0.00000000000E+00 -0.68796147298E+02  0.68796147347E+02  0.26000000000E-02 0.  1.
        -13    1    1    2    0    0 -0.73974630861E+01  0.94951790228E+01 -0.30269390311E+02  0.32574960431E+02  0.10570000000E+00 0. -1.
         13    1    1    2    0    0  0.73974630861E+01 -0.94951790228E+01 -0.36404768469E+02  0.38343177027E+02  0.10570000000E+00 0.  1.
<mgrwt>
<rscale>  0 0.24164825E+02</rscale>
<asrwt>0</asrwt>
<pdfrwt beam="1">  1        2 0.32645995E-03 0.24164825E+02</pdfrwt>
<pdfrwt beam="2">  1       -2 0.10584021E-01 0.24164825E+02</pdfrwt>
<totfact> 0.21156070E+06</totfact>
</mgrwt>
</event>
<event>
 4    1  0.3704929E-001  0.4528923E+02  0.7818608E-02  0.1472544E+00
         -2   -1    0    0    0  501 -0.00000000000E+00  0.00000000000E+00  0.17960217039E+03  0.17960217041E+03  0.26000000000E-02 0. -1.
          2   -1    0    0  501    0  0.00000000000E+00 -0.00000000000E+00 -0.28550792602E+01  0.28550804440E+01  0.26000000000E-02 0.  1.
        -13    1    1    2    0    0  0.57857043643E+01 -0.20432772821E+02  0.56703977789E+02  0.60550184556E+02  0.10570000000E+00 0.  1.
         13    1    1    2    0    0 -0.57857043643E+01  0.20432772821E+02  0.12004311334E+03  0.12190706629E+03  0.10570000000E+00 0. -1.
<mgrwt>
<rscale>  0 0.45289228E+02</rscale>
<asrwt>0</asrwt>
<pdfrwt beam="2">  1        2 0.43924293E-03 0.45289228E+02</pdfrwt>
<pdfrwt beam="1">  1       -2 0.27631111E-01 0.45289228E+02</pdfrwt>
<totfact> 0.37471236E+05</totfact>
</mgrwt>
</event>
<event>
 4    1  0.3704929E-001  0.5155378E+02  0.7818608E-02  0.1437137E+00
          2   -1    0    0  501    0  0.00000000000E+00  0.00000000000E+00  0.42054668282E+02  0.42054668362E+02  0.26000000000E-02 0.  1.
         -2   -1    0    0    0  501 -0.00000000000E+00 -0.00000000000E+00 -0.15799628358E+02  0.15799628572E+02  0.26000000000E-02 0. -1.
        -13    1    1    2    0    0 -0.19554538368E+02 -0.99965595117E+00  0.31941159154E+02  0.37465025069E+02  0.10570000000E+00 0.  1.
         13    1    1    2    0    0  0.19554538368E+02  0.99965595117E+00 -0.56861192301E+01  0.20389271866E+02  0.10570000000E+00 0. -1.
<mgrwt>
<rscale>  0 0.51553783E+02</rscale>
<asrwt>0</asrwt>
<pdfrwt beam="1">  1        2 0.64699488E-02 0.51553783E+02</pdfrwt>
<pdfrwt beam="2">  1       -2 0.24307121E-02 0.51553783E+02</pdfrwt>
<totfact> 0.45906976E+05</totfact>
</mgrwt>
</event>
<event>
 4    1  0.3704929E-001  0.2352667E+02  0.7818608E-02  0.1683113E+00
          2   -1    0    0  501    0  0.00000000000E+00  0.00000000000E+00  0.56181250490E+02  0.56181250550E+02  0.26000000000E-02 0. -1.
         -2   -1    0    0    0  501 -0.00000000000E+00 -0.00000000000E+00 -0.24630274506E+01  0.24630288229E+01  0.26000000000E-02 0.  1.
        -13    1    1    2    0    0 -0.90812334587E+01  0.60727959229E+01  0.37729331344E+02  0.39279272748E+02  0.10570000000E+00 0. -1.
         13    1    1    2    0    0  0.90812334587E+01 -0.60727959229E+01  0.15988891696E+02  0.19365006625E+02  0.10570000000E+00 0.  1.
<mgrwt>
<rscale>  0 0.23526666E+02</rscale>
<asrwt>0</asrwt>
<pdfrwt beam="1">  1        2 0.86432684E-02 0.23526666E+02</pdfrwt>
<pdfrwt beam="2">  1       -2 0.37892746E-03 0.23526666E+02</pdfrwt>
<totfact> 0.32702220E+06</totfact>
</mgrwt>
</event>
<event>
 4    1  0.3704929E-001  0.2473312E+02  0.7818608E-02  0.1664865E+00
         -2   -1    0    0    0  501 -0.00000000000E+00  0.00000000000E+00  0.76834628108E+02  0.76834628152E+02  0.26000000000E-02 0.  1.
          2   -1    0    0  501    0  0.00000000000E+00 -0.00000000000E+00 -0.19904018423E+01  0.19904035405E+01  0.26000000000E-02 0. -1.
        -13    1    1    2    0    0  0.45808789645E+01 -0.10562681472E+02  0.51804730932E+02  0.53068785660E+02  0.10570000000E+00 0.  1.
         13    1    1    2    0    0 -0.45808789645E+01  0.10562681472E+02  0.23039495333E+02  0.25756246033E+02  0.10570000000E+00 0. -1.
<mgrwt>
<rscale>  0 0.24733124E+02</rscale>
<asrwt>0</asrwt>
<pdfrwt beam="2">  1        2 0.30621580E-03 0.24733124E+02</pdfrwt>
<pdfrwt beam="1">  1       -2 0.11820712E-01 0.24733124E+02</pdfrwt>
<totfact> 0.19658747E+06</totfact>
</mgrwt>
</event>
<event>
 4    1  0.3704929E-001  0.5059082E+02  0.7818608E-02  0.1442181E+00
         -2   -1    0    0    0  501 -0.00000000000E+00  0.00000000000E+00  0.31306662098E+02  0.31306662206E+02  0.26000000000E-02 0.  1.
          2   -1    0    0  501    0  0.00000000000E+00 -0.00000000000E+00 -0.20438386327E+02  0.20438386493E+02  0.26000000000E-02 0. -1.
        -13    1    1    2    0    0  0.18023079471E+02  0.15292442514E+02 -0.37800747421E+01  0.23937216405E+02  0.10570000000E+00 0.  1.
         13    1    1    2    0    0 -0.18023079471E+02 -0.15292442514E+02  0.14648350513E+02  0.27807832294E+02  0.10570000000E+00 0. -1.
<mgrwt>
<rscale>  0 0.50590816E+02</rscale>
<asrwt>0</asrwt>
<pdfrwt beam="2">  1        2 0.31443672E-02 0.50590816E+02</pdfrwt>
<pdfrwt beam="1">  1       -2 0.48164096E-02 0.50590816E+02</pdfrwt>
<totfact> 0.42822213E+05</totfact>
</mgrwt>
</event>
<event>
 4    1  0.3704929E-001  0.2749782E+02  0.7818608E-02  0.1627517E+00
         -2   -1    0    0    0  501 -0.00000000000E+00  0.00000000000E+00  0.26572897773E+01  0.26572910493E+01  0.26000000000E-02 0.  1.
          2   -1    0    0  501    0  0.00000000000E+00 -0.00000000000E+00 -0.71137319004E+02  0.71137319052E+02  0.26000000000E-02 0. -1.
        -13    1    1    2    0    0  0.12679242145E+02 -0.36148219198E+01 -0.44699801236E+02  0.46603792999E+02  0.10570000000E+00 0. -1.
         13    1    1    2    0    0 -0.12679242145E+02  0.36148219198E+01 -0.23780227991E+02  0.27190817102E+02  0.10570000000E+00 0.  1.
<mgrwt>
<rscale>  0 0.27497819E+02</rscale>
<asrwt>0</asrwt>
<pdfrwt beam="2">  1        2 0.10944202E-01 0.27497819E+02</pdfrwt>
<pdfrwt beam="1">  1       -2 0.40881397E-03 0.27497819E+02</pdfrwt>
<totfact> 0.23796156E+06</totfact>
</mgrwt>
</event>
<event>
 4    1  0.3704929E-001  0.3282724E+02  0.7818608E-02  0.1568787E+00
         -2   -1    0    0    0  501 -0.00000000000E+00  0.00000000000E+00  0.43522050134E+01  0.43522057900E+01  0.26000000000E-02 0.  1.
          2   -1    0    0  501    0  0.00000000000E+00 -0.00000000000E+00 -0.61901234400E+02  0.61901234455E+02  0.26000000000E-02 0. -1.
        -13    1    1    2    0    0 -0.13809111294E+02 -0.29782583078E+01 -0.45640355045E+02  0.47776717744E+02  0.10570000000E+00 0. -1.
         13    1    1    2    0    0  0.13809111294E+02  0.29782583078E+01 -0.11908674342E+02  0.18476722500E+02  0.10570000000E+00 0.  1.
<mgrwt>
<rscale>  0 0.32827238E+02</rscale>
<asrwt>0</asrwt>
<pdfrwt beam="2">  1        2 0.95232662E-02 0.32827238E+02</pdfrwt>
<pdfrwt beam="1">  1       -2 0.66957011E-03 0.32827238E+02</pdfrwt>
<totfact> 0.15214292E+06</totfact>
</mgrwt>
</event>
<event>
 4    1  0.3704929E-001  0.2312150E+02  0.7818608E-02  0.1689548E+00
         -2   -1    0    0    0  501 -0.00000000000E+00  0.00000000000E+00  0.34345863747E+02  0.34345863845E+02  0.26000000000E-02 0. -1.
          2   -1    0    0  501    0  0.00000000000E+00 -0.00000000000E+00 -0.38913256482E+01  0.38913265168E+01  0.26000000000E-02 0.  1.
        -13    1    1    2    0    0 -0.82911300329E+00 -0.11278957027E+02  0.11266032508E+02  0.15963613656E+02  0.10570000000E+00 0.  1.
         13    1    1    2    0    0  0.82911300329E+00  0.11278957027E+02  0.19188505590E+02  0.22273576706E+02  0.10570000000E+00 0. -1.
<mgrwt>
<rscale>  0 0.23121502E+02</rscale>
<asrwt>0</asrwt>
<pdfrwt beam="2">  1        2 0.59866557E-03 0.23121502E+02</pdfrwt>
<pdfrwt beam="1">  1       -2 0.52839790E-02 0.23121502E+02</pdfrwt>
<totfact> 0.25811473E+06</totfact>
</mgrwt>
</event>
<event>
 4    1  0.3704929E-001  0.5130711E+02  0.7818608E-02  0.1438416E+00
         -2   -1    0    0    0  501 -0.00000000000E+00  0.00000000000E+00  0.46990214096E+02  0.46990214168E+02  0.26000000000E-02 0.  1.
          2   -1    0    0  501    0  0.00000000000E+00 -0.00000000000E+00 -0.14005149780E+02  0.14005150021E+02  0.26000000000E-02 0. -1.
        -13    1    1    2    0    0  0.11890651049E+02 -0.22729344516E+02  0.16149746924E+02  0.30312310745E+02  0.10570000000E+00 0. -1.
         13    1    1    2    0    0 -0.11890651049E+02  0.22729344516E+02  0.16835317393E+02  0.30683053445E+02  0.10570000000E+00 0.  1.
<mgrwt>
<rscale>  0 0.51307114E+02</rscale>
<asrwt>0</asrwt>
<pdfrwt beam="2">  1        2 0.21546385E-02 0.51307114E+02</pdfrwt>
<pdfrwt beam="1">  1       -2 0.72292637E-02 0.51307114E+02</pdfrwt>
<totfact> 0.38741631E+05</totfact>
</mgrwt>
</event>
<event>
 4    1  0.3704929E-001  0.2123805E+02  0.7818608E-02  0.1721773E+00
         -2   -1    0    0    0  501 -0.00000000000E+00  0.00000000000E+00  0.91904155587E+01  0.91904159265E+01  0.26000000000E-02 0. -1.
          2   -1    0    0  501    0  0.00000000000E+00 -0.00000000000E+00 -0.12269706172E+02  0.12269706448E+02  0.26000000000E-02 0.  1.
        -13    1    1    2    0    0 -0.10433313563E+02  0.17134129703E+01 -0.54820436111E+00  0.10587800358E+02  0.10570000000E+00 0. -1.
         13    1    1    2    0    0  0.10433313563E+02 -0.17134129703E+01 -0.25310862524E+01  0.10872322016E+02  0.10570000000E+00 0.  1.
<mgrwt>
<rscale>  0 0.21238051E+02</rscale>
<asrwt>0</asrwt>
<pdfrwt beam="2">  1        2 0.18876472E-02 0.21238051E+02</pdfrwt>
<pdfrwt beam="1">  1       -2 0.14139101E-02 0.21238051E+02</pdfrwt>
<totfact> 0.34915917E+06</totfact>
</mgrwt>
</event>
<event>
 4    1  0.3704929E-001  0.2350294E+02  0.7818608E-02  0.1683485E+00
          2   -1    0    0  501    0  0.00000000000E+00  0.00000000000E+00  0.41059852562E+02  0.41059852644E+02  0.26000000000E-02 0.  1.
         -2   -1    0    0    0  501 -0.00000000000E+00 -0.00000000000E+00 -0.33633098078E+01  0.33633108128E+01  0.26000000000E-02 0. -1.
        -13    1    1    2    0    0 -0.11094579874E+02  0.37942504866E+01  0.20312121995E+02  0.23453773934E+02  0.10570000000E+00 0. -1.
         13    1    1    2    0    0  0.11094579874E+02 -0.37942504866E+01  0.17384420759E+02  0.20969389523E+02  0.10570000000E+00 0.  1.
<mgrwt>
<rscale>  0 0.23502938E+02</rscale>
<asrwt>0</asrwt>
<pdfrwt beam="1">  1        2 0.63169004E-02 0.23502938E+02</pdfrwt>
<pdfrwt beam="2">  1       -2 0.51743237E-03 0.23502938E+02</pdfrwt>
<totfact> 0.31250728E+06</totfact>
</mgrwt>
</event>
<event>
 4    1  0.3704929E-001  0.1114026E+03  0.7818608E-02  0.1257994E+00
         -2   -1    0    0    0  501 -0.00000000000E+00  0.00000000000E+00  0.14415567237E+02  0.14415567472E+02  0.26000000000E-02 0.  1.
          2   -1    0    0  501    0  0.00000000000E+00 -0.00000000000E+00 -0.21522796036E+03  0.21522796037E+03  0.26000000000E-02 0. -1.
        -13    1    1    2    0    0  0.47327828953E+02 -0.71606587356E+01 -0.41686634641E+02  0.63474286976E+02  0.10570000000E+00 0.  1.
         13    1    1    2    0    0 -0.47327828953E+02  0.71606587356E+01 -0.15912575848E+03  0.16616924087E+03  0.10570000000E+00 0. -1.
<mgrwt>
<rscale>  0 0.11140257E+03</rscale>
<asrwt>0</asrwt>
<pdfrwt beam="2">  1        2 0.33111991E-01 0.11140257E+03</pdfrwt>
<pdfrwt beam="1">  1       -2 0.22177798E-02 0.11140257E+03</pdfrwt>
<totfact> 0.92098038E+04</totfact>
</mgrwt>
</event>
<event>
 4    1  0.3704929E-001  0.2504388E+02  0.7818608E-02  0.1660372E+00
          2   -1    0    0  501    0  0.00000000000E+00  0.00000000000E+00  0.41475336612E+02  0.41475336693E+02  0.26000000000E-02 0.  1.
         -2   -1    0    0    0  501 -0.00000000000E+00 -0.00000000000E+00 -0.37805359781E+01  0.37805368722E+01  0.26000000000E-02 0. -1.
        -13    1    1    2    0    0 -0.46300743216E+01 -0.10486348173E+02  0.97424628905E+01  0.15044196286E+02  0.10570000000E+00 0. -1.
         13    1    1    2    0    0  0.46300743216E+01  0.10486348173E+02  0.27952337743E+02  0.30211677280E+02  0.10570000000E+00 0.  1.
<mgrwt>
<rscale>  0 0.25043883E+02</rscale>
<asrwt>0</asrwt>
<pdfrwt beam="1">  1        2 0.63808208E-02 0.25043883E+02</pdfrwt>
<pdfrwt beam="2">  1       -2 0.58162102E-03 0.25043883E+02</pdfrwt>
<totfact> 0.27025930E+06</totfact>
</mgrwt>
</event>
<event>
 4    1  0.3704929E-001  0.2421077E+02  0.7818608E-02  0.1672604E+00
          2   -1    0    0  501    0  0.00000000000E+00  0.00000000000E+00  0.16578305133E+01  0.16578325521E+01  0.26000000000E-02 0. -1.
         -2   -1    0    0    0  501 -0.00000000000E+00 -0.00000000000E+00 -0.88392799704E+02  0.88392799742E+02  0.26000000000E-02 0.  1.
        -13    1    1    2    0    0  0.80039729565E+01 -0.84753369066E+01 -0.31238282701E+02  0.33342711308E+02  0.10570000000E+00 0. -1.
         13    1    1    2    0    0 -0.80039729565E+01  0.84753369066E+01 -0.55496686489E+02  0.56707920986E+02  0.10570000000E+00 0.  1.
<mgrwt>
<rscale>  0 0.24210772E+02</rscale>
<asrwt>0</asrwt>
<pdfrwt beam="1">  1        2 0.25505108E-03 0.24210772E+02</pdfrwt>
<pdfrwt beam="2">  1       -2 0.13598889E-01 0.24210772E+02</pdfrwt>
<totfact> 0.20032274E+06</totfact>
</mgrwt>
</event>
<event>
 4    1  0.3704929E-001  0.2216943E+02  0.7818608E-02  0.1705338E+00
          2   -1    0    0  501    0  0.00000000000E+00  0.00000000000E+00  0.70238608752E+01  0.70238613564E+01  0.26000000000E-02 0. -1.
         -2   -1    0    0    0  501 -0.00000000000E+00 -0.00000000000E+00 -0.17493354711E+02  0.17493354904E+02  0.26000000000E-02 0.  1.
        -13    1    1    2    0    0 -0.40575668369E+01 -0.94661531132E+01 -0.97659531116E+01  0.14193551919E+02  0.10570000000E+00 0.  1.
         13    1    1    2    0    0  0.40575668369E+01  0.94661531132E+01 -0.70354072397E+00  0.10323664342E+02  0.10570000000E+00 0. -1.
<mgrwt>
<rscale>  0 0.22169429E+02</rscale>
<asrwt>0</asrwt>
<pdfrwt beam="1">  1        2 0.10805940E-02 0.22169429E+02</pdfrwt>
<pdfrwt beam="2">  1       -2 0.26912854E-02 0.22169429E+02</pdfrwt>
<totfact> 0.30226482E+06</totfact>
</mgrwt>
</event>
<event>
 4    1  0.3704929E-001  0.2803446E+02  0.7818608E-02  0.1620890E+00
          2   -1    0    0  501    0  0.00000000000E+00  0.00000000000E+00  0.56522008796E+02  0.56522008856E+02  0.26000000000E-02 0.  1.
         -2   -1    0    0    0  501 -0.00000000000E+00 -0.00000000000E+00 -0.34762162650E+01  0.34762172373E+01  0.26000000000E-02 0. -1.
        -13    1    1    2    0    0 -0.78832025641E+01  0.65362064034E+01  0.47006439827E+02  0.48109078505E+02  0.10570000000E+00 0.  1.
         13    1    1    2    0    0  0.78832025641E+01 -0.65362064034E+01  0.60393527035E+01  0.11889147589E+02  0.10570000000E+00 0. -1.
<mgrwt>
<rscale>  0 0.28034461E+02</rscale>
<asrwt>0</asrwt>
<pdfrwt beam="1">  1        2 0.86956934E-02 0.28034461E+02</pdfrwt>
<pdfrwt beam="2">  1       -2 0.53480260E-03 0.28034461E+02</pdfrwt>
<totfact> 0.21792110E+06</totfact>
</mgrwt>
</event>
<event>
 4    1  0.3704929E-001  0.3383703E+02  0.7818608E-02  0.1559177E+00
          2   -1    0    0  501    0  0.00000000000E+00  0.00000000000E+00  0.52191126410E+01  0.52191132886E+01  0.26000000000E-02 0. -1.
         -2   -1    0    0    0  501 -0.00000000000E+00 -0.00000000000E+00 -0.54843823179E+02  0.54843823240E+02  0.26000000000E-02 0.  1.
        -13    1    1    2    0    0  0.84780796406E+01  0.11700854493E+02 -0.91920714733E+01  0.17125804528E+02  0.10570000000E+00 0. -1.
         13    1    1    2    0    0 -0.84780796406E+01 -0.11700854493E+02 -0.40432639064E+02  0.42937132001E+02  0.10570000000E+00 0.  1.
<mgrwt>
<rscale>  0 0.33837028E+02</rscale>
<asrwt>0</asrwt>
<pdfrwt beam="1">  1        2 0.80294050E-03 0.33837028E+02</pdfrwt>
<pdfrwt beam="2">  1       -2 0.84375109E-02 0.33837028E+02</pdfrwt>
<totfact> 0.10144577E+06</totfact>
</mgrwt>
</event>
<event>
 4    1  0.3704929E-001  0.3032422E+02  0.7818608E-02  0.1594532E+00
         -2   -1    0    0    0  501 -0.00000000000E+00  0.00000000000E+00  0.29087560568E+01  0.29087572188E+01  0.26000000000E-02 0. -1.
          2   -1    0    0  501    0  0.00000000000E+00 -0.00000000000E+00 -0.79033648068E+02  0.79033648111E+02  0.26000000000E-02 0.  1.
        -13    1    1    2    0    0 -0.79664328986E+00  0.13177048301E+02 -0.17911637826E+02  0.22251004125E+02  0.10570000000E+00 0. -1.
         13    1    1    2    0    0  0.79664328986E+00 -0.13177048301E+02 -0.58213254185E+02  0.59691401204E+02  0.10570000000E+00 0.  1.
<mgrwt>
<rscale>  0 0.30324225E+02</rscale>
<asrwt>0</asrwt>
<pdfrwt beam="2">  1        2 0.12159021E-01 0.30324225E+02</pdfrwt>
<pdfrwt beam="1">  1       -2 0.44750108E-03 0.30324225E+02</pdfrwt>
<totfact> 0.19312273E+06</totfact>
</mgrwt>
</event>
<event>
 4    1  0.3704929E-001  0.5359241E+02  0.7818608E-02  0.1426875E+00
         -2   -1    0    0    0  501 -0.00000000000E+00  0.00000000000E+00  0.46067828795E+01  0.46067836132E+01  0.26000000000E-02 0. -1.
          2   -1    0    0  501    0  0.00000000000E+00 -0.00000000000E+00 -0.15586504883E+03  0.15586504885E+03  0.26000000000E-02 0.  1.
        -13    1    1    2    0    0 -0.21761752876E+02 -0.54807371409E+01 -0.31784032382E+02  0.38908202925E+02  0.10570000000E+00 0. -1.
         13    1    1    2    0    0  0.21761752876E+02  0.54807371409E+01 -0.11947423357E+03  0.12156362954E+03  0.10570000000E+00 0.  1.
<mgrwt>
<rscale>  0 0.53592406E+02</rscale>
<asrwt>0</asrwt>
<pdfrwt beam="2">  1        2 0.23979234E-01 0.53592406E+02</pdfrwt>
<pdfrwt beam="1">  1       -2 0.70873601E-03 0.53592406E+02</pdfrwt>
<totfact> 0.57036013E+05</totfact>
</mgrwt>
</event>
<event>
 4    1  0.3704929E-001  0.2404129E+02  0.7818608E-02  0.1675167E+00
         -2   -1    0    0    0  501 -0.00000000000E+00  0.00000000000E+00  0.40302134237E+01  0.40302142624E+01  0.26000000000E-02 0.  1.
          2   -1    0    0  501    0  0.00000000000E+00 -0.00000000000E+00 -0.35853163294E+02  0.35853163388E+02  0.26000000000E-02 0. -1.
        -13    1    1    2    0    0 -0.11523089020E+02  0.26664191160E+01 -0.19466969993E+02  0.22778618586E+02  0.10570000000E+00 0. -1.
         13    1    1    2    0    0  0.11523089020E+02 -0.26664191160E+01 -0.12355979877E+02  0.17104759065E+02  0.10570000000E+00 0.  1.
<mgrwt>
<rscale>  0 0.24041291E+02</rscale>
<asrwt>0</asrwt>
<pdfrwt beam="2">  1        2 0.55158711E-02 0.24041291E+02</pdfrwt>
<pdfrwt beam="1">  1       -2 0.62003293E-03 0.24041291E+02</pdfrwt>
<totfact> 0.29133285E+06</totfact>
</mgrwt>
</event>
<event>
 4    1  0.3704929E-001  0.2015989E+02  0.7818608E-02  0.1742167E+00
         -2   -1    0    0    0  501 -0.00000000000E+00  0.00000000000E+00  0.16169738372E+02  0.16169738581E+02  0.26000000000E-02 0. -1.
          2   -1    0    0  501    0  0.00000000000E+00 -0.00000000000E+00 -0.62836711259E+01  0.62836716638E+01  0.26000000000E-02 0.  1.
        -13    1    1    2    0    0 -0.84174669941E+01  0.54300048207E+01  0.36950928556E+01  0.10677246211E+02  0.10570000000E+00 0.  1.
         13    1    1    2    0    0  0.84174669941E+01 -0.54300048207E+01  0.61909743902E+01  0.11776164033E+02  0.10570000000E+00 0. -1.
<mgrwt>
<rscale>  0 0.20159894E+02</rscale>
<asrwt>0</asrwt>
<pdfrwt beam="2">  1        2 0.96671871E-03 0.20159894E+02</pdfrwt>
<pdfrwt beam="1">  1       -2 0.24876521E-02 0.20159894E+02</pdfrwt>
<totfact> 0.37427397E+06</totfact>
</mgrwt>
</event>
<event>
 4    1  0.3704929E-001  0.4192802E+02  0.7818608E-02  0.1494484E+00
          2   -1    0    0  501    0  0.00000000000E+00  0.00000000000E+00  0.22157473065E+02  0.22157473217E+02  0.26000000000E-02 0. -1.
         -2   -1    0    0    0  501 -0.00000000000E+00 -0.00000000000E+00 -0.19834834041E+02  0.19834834212E+02  0.26000000000E-02 0.  1.
        -13    1    1    2    0    0  0.11096449796E+02  0.16265355736E+02  0.83685765947E+01  0.21394794741E+02  0.10570000000E+00 0. -1.
         13    1    1    2    0    0 -0.11096449796E+02 -0.16265355736E+02 -0.60459375715E+01  0.20597512688E+02  0.10570000000E+00 0.  1.
<mgrwt>
<rscale>  0 0.41928024E+02</rscale>
<asrwt>0</asrwt>
<pdfrwt beam="1">  1        2 0.34088420E-02 0.41928024E+02</pdfrwt>
<pdfrwt beam="2">  1       -2 0.30515130E-02 0.41928024E+02</pdfrwt>
<totfact> 0.70844552E+05</totfact>
</mgrwt>
</event>
<event>
 4    1  0.3704929E-001  0.4072211E+02  0.7818608E-02  0.1502964E+00
          2   -1    0    0  501    0  0.00000000000E+00  0.00000000000E+00  0.91689566990E+01  0.91689570677E+01  0.26000000000E-02 0.  1.
         -2   -1    0    0    0  501 -0.00000000000E+00 -0.00000000000E+00 -0.45214808647E+02  0.45214808722E+02  0.26000000000E-02 0. -1.
        -13    1    1    2    0    0  0.17808552405E+02  0.12204308054E+01 -0.49428440088E+01  0.18522334342E+02  0.10570000000E+00 0.  1.
         13    1    1    2    0    0 -0.17808552405E+02 -0.12204308054E+01 -0.31103007939E+02  0.35861431447E+02  0.10570000000E+00 0. -1.
<mgrwt>
<rscale>  0 0.40722114E+02</rscale>
<asrwt>0</asrwt>
<pdfrwt beam="1">  1        2 0.14106088E-02 0.40722114E+02</pdfrwt>
<pdfrwt beam="2">  1       -2 0.69561243E-02 0.40722114E+02</pdfrwt>
<totfact> 0.67608475E+05</totfact>
</mgrwt>
</event>
<event>
 4    1  0.3704929E-001  0.2320989E+02  0.7818608E-02  0.1688130E+00
         -2   -1    0    0    0  501 -0.00000000000E+00  0.00000000000E+00  0.22921963657E+02  0.22921963805E+02  0.26000000000E-02 0.  1.
          2   -1    0    0  501    0  0.00000000000E+00 -0.00000000000E+00 -0.58753597914E+01  0.58753603667E+01  0.26000000000E-02 0. -1.
        -13    1    1    2    0    0  0.11425728148E+02  0.31692384180E+00  0.11009703947E+02  0.15870490160E+02  0.10570000000E+00 0. -1.
         13    1    1    2    0    0 -0.11425728148E+02 -0.31692384180E+00  0.60368999187E+01  0.12926834011E+02  0.10570000000E+00 0.  1.
<mgrwt>
<rscale>  0 0.23209894E+02</rscale>
<asrwt>0</asrwt>
<pdfrwt beam="2">  1        2 0.90390157E-03 0.23209894E+02</pdfrwt>
<pdfrwt beam="1">  1       -2 0.35264560E-02 0.23209894E+02</pdfrwt>
<totfact> 0.26675817E+06</totfact>
</mgrwt>
</event>
<event>
 4    1  0.3704929E-001  0.2609756E+02  0.7818608E-02  0.1645720E+00
          2   -1    0    0  501    0  0.00000000000E+00  0.00000000000E+00  0.84395903285E+02  0.84395903325E+02  0.26000000000E-02 0. -1.
         -2   -1    0    0    0  501 -0.00000000000E+00 -0.00000000000E+00 -0.20175226819E+01  0.20175243572E+01  0.26000000000E-02 0.  1.
        -13    1    1    2    0    0 -0.99739274854E+01 -0.64522248852E+01  0.23312219314E+02  0.26164502237E+02  0.10570000000E+00 0.  1.
         13    1    1    2    0    0  0.99739274854E+01  0.64522248852E+01  0.59066161289E+02  0.60248925446E+02  0.10570000000E+00 0. -1.
<mgrwt>
<rscale>  0 0.26097565E+02</rscale>
<asrwt>0</asrwt>
<pdfrwt beam="1">  1        2 0.12983987E-01 0.26097565E+02</pdfrwt>
<pdfrwt beam="2">  1       -2 0.31038820E-03 0.26097565E+02</pdfrwt>
<totfact> 0.27838758E+06</totfact>
</mgrwt>
</event>
<event>
 4    1  0.3704929E-001  0.3696681E+02  0.7818608E-02  0.1531798E+00
          2   -1    0    0  501    0  0.00000000000E+00  0.00000000000E+00  0.56157746921E+02  0.56157746981E+02  0.26000000000E-02 0. -1.
         -2   -1    0    0    0  501 -0.00000000000E+00 -0.00000000000E+00 -0.60835101996E+01  0.60835107552E+01  0.26000000000E-02 0.  1.
        -13    1    1    2    0    0  0.15262096816E+02  0.45455223942E+01  0.92397066028E+01  0.18411320530E+02  0.10570000000E+00 0.  1.
         13    1    1    2    0    0 -0.15262096816E+02 -0.45455223942E+01  0.40834530118E+02  0.43829937207E+02  0.10570000000E+00 0. -1.
<mgrwt>
<rscale>  0 0.36966809E+02</rscale>
<asrwt>0</asrwt>
<pdfrwt beam="1">  1        2 0.86396535E-02 0.36966809E+02</pdfrwt>
<pdfrwt beam="2">  1       -2 0.93592468E-03 0.36966809E+02</pdfrwt>
<totfact> 0.11195475E+06</totfact>
</mgrwt>
</event>
<event>
 4    1  0.3704929E-001  0.2288343E+02  0.7818608E-02  0.1693407E+00
          2   -1    0    0  501    0  0.00000000000E+00  0.00000000000E+00  0.10626726079E+03  0.10626726082E+03  0.26000000000E-02 0. -1.
         -2   -1    0    0    0  501 -0.00000000000E+00 -0.00000000000E+00 -0.12319198398E+01  0.12319225835E+01  0.26000000000E-02 0.  1.
        -13    1    1    2    0    0 -0.11389954458E+02 -0.15329423785E+00  0.47486184000E+02  0.48833425080E+02  0.10570000000E+00 0.  1.
         13    1    1    2    0    0  0.11389954458E+02  0.15329423785E+00  0.57549156951E+02  0.58665758326E+02  0.10570000000E+00 0. -1.
<mgrwt>
<rscale>  0 0.22883435E+02</rscale>
<asrwt>0</asrwt>
<pdfrwt beam="1">  1        2 0.16348812E-01 0.22883435E+02</pdfrwt>
<pdfrwt beam="2">  1       -2 0.18952632E-03 0.22883435E+02</pdfrwt>
<totfact> 0.39616207E+06</totfact>
</mgrwt>
</event>
<event>
 4    1  0.3704929E-001  0.2403191E+02  0.7818608E-02  0.1675309E+00
          2   -1    0    0  501    0  0.00000000000E+00  0.00000000000E+00  0.23599512555E+02  0.23599512698E+02  0.26000000000E-02 0.  1.
         -2   -1    0    0    0  501 -0.00000000000E+00 -0.00000000000E+00 -0.61180585016E+01  0.61180590541E+01  0.26000000000E-02 0. -1.
        -13    1    1    2    0    0  0.10475048569E+02  0.57243463762E+01  0.10435011388E+02  0.15855453924E+02  0.10570000000E+00 0.  1.
         13    1    1    2    0    0 -0.10475048569E+02 -0.57243463762E+01  0.70464426652E+01  0.13862117828E+02  0.10570000000E+00 0. -1.
<mgrwt>
<rscale>  0 0.24031913E+02</rscale>
<asrwt>0</asrwt>
<pdfrwt beam="1">  1        2 0.36306943E-02 0.24031913E+02</pdfrwt>
<pdfrwt beam="2">  1       -2 0.94123983E-03 0.24031913E+02</pdfrwt>
<totfact> 0.27798882E+06</totfact>
</mgrwt>
</event>
<event>
 4    1  0.3704929E-001  0.2203447E+02  0.7818608E-02  0.1707657E+00
          2   -1    0    0  501    0  0.00000000000E+00  0.00000000000E+00  0.62330490298E+01  0.62330495721E+01  0.26000000000E-02 0. -1.
         -2   -1    0    0    0  501 -0.00000000000E+00 -0.00000000000E+00 -0.19473520669E+02  0.19473520843E+02  0.26000000000E-02 0.  1.
        -13    1    1    2    0    0  0.97800507077E+01  0.50704308526E+01 -0.67344543349E+01  0.12912114798E+02  0.10570000000E+00 0.  1.
         13    1    1    2    0    0 -0.97800507077E+01 -0.50704308526E+01 -0.65060173045E+01  0.12794455617E+02  0.10570000000E+00 0. -1.
<mgrwt>
<rscale>  0 0.22034466E+02</rscale>
<asrwt>0</asrwt>
<pdfrwt beam="1">  1        2 0.95893068E-03 0.22034466E+02</pdfrwt>
<pdfrwt beam="2">  1       -2 0.29959263E-02 0.22034466E+02</pdfrwt>
<totfact> 0.30357798E+06</totfact>
</mgrwt>
</event>
<event>
 4    1  0.3704929E-001  0.2566012E+02  0.7818608E-02  0.1651697E+00
          2   -1    0    0  501    0  0.00000000000E+00  0.00000000000E+00  0.91417059008E+02  0.91417059045E+02  0.26000000000E-02 0.  1.
         -2   -1    0    0    0  501 -0.00000000000E+00 -0.00000000000E+00 -0.18006522334E+01  0.18006541105E+01  0.26000000000E-02 0. -1.
        -13    1    1    2    0    0 -0.54261317622E+00  0.12002735992E+02  0.28465048449E+02  0.30897091384E+02  0.10570000000E+00 0. -1.
         13    1    1    2    0    0  0.54261317622E+00 -0.12002735992E+02  0.61151358326E+02  0.62320621771E+02  0.10570000000E+00 0.  1.
<mgrwt>
<rscale>  0 0.25660119E+02</rscale>
<asrwt>0</asrwt>
<pdfrwt beam="1">  1        2 0.14064159E-01 0.25660119E+02</pdfrwt>
<pdfrwt beam="2">  1       -2 0.27702364E-03 0.25660119E+02</pdfrwt>
<totfact> 0.29461747E+06</totfact>
</mgrwt>
</event>
<event>
 4    1  0.3704929E-001  0.4058826E+02  0.7818608E-02  0.1503927E+00
          2   -1    0    0  501    0  0.00000000000E+00  0.00000000000E+00  0.33231136436E+02  0.33231136538E+02  0.26000000000E-02 0. -1.
         -2   -1    0    0    0  501 -0.00000000000E+00 -0.00000000000E+00 -0.12393551626E+02  0.12393551899E+02  0.26000000000E-02 0.  1.
        -13    1    1    2    0    0 -0.14376475062E+02  0.51864548407E+01 -0.45892585414E+01  0.15957907615E+02  0.10570000000E+00 0. -1.
         13    1    1    2    0    0  0.14376475062E+02 -0.51864548407E+01  0.25426843351E+02  0.29666780821E+02  0.10570000000E+00 0.  1.
<mgrwt>
<rscale>  0 0.40588265E+02</rscale>
<asrwt>0</asrwt>
<pdfrwt beam="1">  1        2 0.51124825E-02 0.40588265E+02</pdfrwt>
<pdfrwt beam="2">  1       -2 0.19067003E-02 0.40588265E+02</pdfrwt>
<totfact> 0.81453898E+05</totfact>
</mgrwt>
</event>
<event>
 4    1  0.3704929E-001  0.3087642E+02  0.7818608E-02  0.1588598E+00
         -2   -1    0    0    0  501 -0.00000000000E+00  0.00000000000E+00  0.49013451324E+02  0.49013451393E+02  0.26000000000E-02 0.  1.
          2   -1    0    0  501    0  0.00000000000E+00 -0.00000000000E+00 -0.48627124811E+01  0.48627131762E+01  0.26000000000E-02 0. -1.
        -13    1    1    2    0    0  0.41317907564E+01 -0.11592677201E+02  0.58126598860E+01  0.13611026669E+02  0.10570000000E+00 0. -1.
         13    1    1    2    0    0 -0.41317907564E+01  0.11592677201E+02  0.38338078957E+02  0.40265137900E+02  0.10570000000E+00 0.  1.
<mgrwt>
<rscale>  0 0.30876421E+02</rscale>
<asrwt>0</asrwt>
<pdfrwt beam="2">  1        2 0.74810969E-03 0.30876421E+02</pdfrwt>
<pdfrwt beam="1">  1       -2 0.75405308E-02 0.30876421E+02</pdfrwt>
<totfact> 0.12773649E+06</totfact>
</mgrwt>
</event>
<event>
 4    1  0.3704929E-001  0.9187325E+02  0.7818608E-02  0.1298378E+00
          2   -1    0    0  501    0  0.00000000000E+00  0.00000000000E+00  0.34168886671E+02  0.34168886769E+02  0.26000000000E-02 0. -1.
         -2   -1    0    0    0  501 -0.00000000000E+00 -0.00000000000E+00 -0.61757159163E+02  0.61757159217E+02  0.26000000000E-02 0.  1.
        -13    1    1    2    0    0 -0.15223188619E+02  0.41953223348E+02 -0.25152615992E+02  0.51229714861E+02  0.10570000000E+00 0.  1.
         13    1    1    2    0    0  0.15223188619E+02 -0.41953223348E+02 -0.24356564995E+01  0.44696331125E+02  0.10570000000E+00 0. -1.
<mgrwt>
<rscale>  0 0.91873247E+02</rscale>
<asrwt>0</asrwt>
<pdfrwt beam="1">  1        2 0.52567518E-02 0.91873247E+02</pdfrwt>
<pdfrwt beam="2">  1       -2 0.95011014E-02 0.91873247E+02</pdfrwt>
<totfact> 0.89535229E+04</totfact>
</mgrwt>
</event>
<event>
 4    1  0.3704929E-001  0.3924137E+02  0.7818608E-02  0.1513870E+00
          2   -1    0    0  501    0  0.00000000000E+00  0.00000000000E+00  0.13611072999E+03  0.13611073002E+03  0.26000000000E-02 0.  1.
         -2   -1    0    0    0  501 -0.00000000000E+00 -0.00000000000E+00 -0.28283676452E+01  0.28283688403E+01  0.26000000000E-02 0. -1.
        -13    1    1    2    0    0 -0.80556442396E+01 -0.17508477482E+02  0.79659868934E+02  0.81958197143E+02  0.10570000000E+00 0.  1.
         13    1    1    2    0    0  0.80556442396E+01  0.17508477482E+02  0.53622493412E+02  0.56980901713E+02  0.10570000000E+00 0. -1.
<mgrwt>
<rscale>  0 0.39241369E+02</rscale>
<asrwt>0</asrwt>
<pdfrwt beam="1">  1        2 0.20940121E-01 0.39241369E+02</pdfrwt>
<pdfrwt beam="2">  1       -2 0.43513341E-03 0.39241369E+02</pdfrwt>
<totfact> 0.11894110E+06</totfact>
</mgrwt>
</event>
<event>
 4    1  0.3704929E-001  0.3592555E+02  0.7818608E-02  0.1540532E+00
         -2   -1    0    0    0  501 -0.00000000000E+00  0.00000000000E+00  0.11348592322E+02  0.11348592620E+02  0.26000000000E-02 0.  1.
          2   -1    0    0  501    0  0.00000000000E+00 -0.00000000000E+00 -0.28431837928E+02  0.28431838047E+02  0.26000000000E-02 0. -1.
        -13    1    1    2    0    0 -0.75130132675E+01  0.10413591620E+02  0.53664545834E+01  0.13917552445E+02  0.10570000000E+00 0.  1.
         13    1    1    2    0    0  0.75130132675E+01 -0.10413591620E+02 -0.22449700190E+02  0.25862878221E+02  0.10570000000E+00 0. -1.
<mgrwt>
<rscale>  0 0.35925553E+02</rscale>
<asrwt>0</asrwt>
<pdfrwt beam="2">  1        2 0.43741289E-02 0.35925553E+02</pdfrwt>
<pdfrwt beam="1">  1       -2 0.17459373E-02 0.35925553E+02</pdfrwt>
<totfact> 0.10812732E+06</totfact>
</mgrwt>
</event>
<event>
 4    1  0.3704929E-001  0.3870174E+02  0.7818608E-02  0.1517989E+00
         -2   -1    0    0    0  501 -0.00000000000E+00  0.00000000000E+00  0.25983985506E+02  0.25983985636E+02  0.26000000000E-02 0.  1.
          2   -1    0    0  501    0  0.00000000000E+00 -0.00000000000E+00 -0.14411033729E+02  0.14411033964E+02  0.26000000000E-02 0. -1.
        -13    1    1    2    0    0  0.11581604497E+02 -0.15419895464E+02  0.41236023229E+01  0.19721105635E+02  0.10570000000E+00 0. -1.
         13    1    1    2    0    0 -0.11581604497E+02  0.15419895464E+02  0.74493494541E+01  0.20673913965E+02  0.10570000000E+00 0.  1.
<mgrwt>
<rscale>  0 0.38701736E+02</rscale>
<asrwt>0</asrwt>
<pdfrwt beam="2">  1        2 0.22170822E-02 0.38701736E+02</pdfrwt>
<pdfrwt beam="1">  1       -2 0.39975362E-02 0.38701736E+02</pdfrwt>
<totfact> 0.82252546E+05</totfact>
</mgrwt>
</event>
<event>
 4    1  0.3704929E-001  0.6681279E+02  0.7818608E-02  0.1371279E+00
          2   -1    0    0  501    0  0.00000000000E+00  0.00000000000E+00  0.26110758925E+02  0.26110759055E+02  0.26000000000E-02 0.  1.
         -2   -1    0    0    0  501 -0.00000000000E+00 -0.00000000000E+00 -0.42740512853E+02  0.42740512932E+02  0.26000000000E-02 0. -1.
        -13    1    1    2    0    0 -0.10939207336E+02  0.33679555043E+01 -0.40656598139E+02  0.42237181797E+02  0.10570000000E+00 0. -1.
         13    1    1    2    0    0  0.10939207336E+02 -0.33679555043E+01  0.24026844211E+02  0.26614090190E+02  0.10570000000E+00 0.  1.
<mgrwt>
<rscale>  0 0.66812790E+02</rscale>
<asrwt>0</asrwt>
<pdfrwt beam="1">  1        2 0.40170398E-02 0.66812790E+02</pdfrwt>
<pdfrwt beam="2">  1       -2 0.65754636E-02 0.66812790E+02</pdfrwt>
<totfact> 0.20940545E+05</totfact>
</mgrwt>
</event>
<event>
 4    1  0.3704929E-001  0.6262968E+02  0.7818608E-02  0.1387116E+00
         -2   -1    0    0    0  501 -0.00000000000E+00  0.00000000000E+00  0.29596730403E+02  0.29596730518E+02  0.26000000000E-02 0.  1.
          2   -1    0    0  501    0  0.00000000000E+00 -0.00000000000E+00 -0.33132687712E+02  0.33132687814E+02  0.26000000000E-02 0. -1.
        -13    1    1    2    0    0 -0.27584788362E+02  0.10196053756E+02 -0.12542805092E+02  0.31972068955E+02  0.10570000000E+00 0. -1.
         13    1    1    2    0    0  0.27584788362E+02 -0.10196053756E+02  0.90068477834E+01  0.30757349377E+02  0.10570000000E+00 0.  1.
<mgrwt>
<rscale>  0 0.62629681E+02</rscale>
<asrwt>0</asrwt>
<pdfrwt beam="2">  1        2 0.50973366E-02 0.62629681E+02</pdfrwt>
<pdfrwt beam="1">  1       -2 0.45533432E-02 0.62629681E+02</pdfrwt>
<totfact> 0.26209076E+05</totfact>
</mgrwt>
</event>
<event>
 4    1  0.3704929E-001  0.2513044E+02  0.7818608E-02  0.1659135E+00
         -2   -1    0    0    0  501 -0.00000000000E+00  0.00000000000E+00  0.49484831393E+01  0.49484838223E+01  0.26000000000E-02 0. -1.
          2   -1    0    0  501    0  0.00000000000E+00 -0.00000000000E+00 -0.31905692646E+02  0.31905692752E+02  0.26000000000E-02 0.  1.
        -13    1    1    2    0    0 -0.10817972809E+02 -0.36572415839E+01 -0.21164833428E+02  0.24049226562E+02  0.10570000000E+00 0.  1.
         13    1    1    2    0    0  0.10817972809E+02  0.36572415839E+01 -0.57923760794E+01  0.12804950013E+02  0.10570000000E+00 0. -1.
<mgrwt>
<rscale>  0 0.25130443E+02</rscale>
<asrwt>0</asrwt>
<pdfrwt beam="2">  1        2 0.49085680E-02 0.25130443E+02</pdfrwt>
<pdfrwt beam="1">  1       -2 0.76130518E-03 0.25130443E+02</pdfrwt>
<totfact> 0.25906286E+06</totfact>
</mgrwt>
</event>
<event>
 4    1  0.3704929E-001  0.2828653E+02  0.7818608E-02  0.1617840E+00
          2   -1    0    0  501    0  0.00000000000E+00  0.00000000000E+00  0.54475049535E+02  0.54475049597E+02  0.26000000000E-02 0. -1.
         -2   -1    0    0    0  501 -0.00000000000E+00 -0.00000000000E+00 -0.36719909093E+01  0.36719918298E+01  0.26000000000E-02 0.  1.
        -13    1    1    2    0    0  0.11119305241E+00  0.13446270671E+02  0.34410362006E+02  0.36944536061E+02  0.10570000000E+00 0.  1.
         13    1    1    2    0    0 -0.11119305241E+00 -0.13446270671E+02  0.16392696620E+02  0.21202505367E+02  0.10570000000E+00 0. -1.
<mgrwt>
<rscale>  0 0.28286528E+02</rscale>
<asrwt>0</asrwt>
<pdfrwt beam="1">  1        2 0.83807767E-02 0.28286528E+02</pdfrwt>
<pdfrwt beam="2">  1       -2 0.56492177E-03 0.28286528E+02</pdfrwt>
<totfact> 0.21202909E+06</totfact>
</mgrwt>
</event>
<event>
 4    1  0.3704929E-001  0.2550750E+02  0.7818608E-02  0.1653818E+00
         -2   -1    0    0    0  501 -0.00000000000E+00  0.00000000000E+00  0.32409491133E+02  0.32409491237E+02  0.26000000000E-02 0. -1.
          2   -1    0    0  501    0  0.00000000000E+00 -0.00000000000E+00 -0.50188423393E+01  0.50188430127E+01  0.26000000000E-02 0.  1.
        -13    1    1    2    0    0  0.10657047599E+02  0.69869772200E+01  0.12952241139E+02  0.18170367008E+02  0.10570000000E+00 0.  1.
         13    1    1    2    0    0 -0.10657047599E+02 -0.69869772200E+01  0.14438407655E+02  0.19257967242E+02  0.10570000000E+00 0. -1.
<mgrwt>
<rscale>  0 0.25507500E+02</rscale>
<asrwt>0</asrwt>
<pdfrwt beam="2">  1        2 0.77212965E-03 0.25507500E+02</pdfrwt>
<pdfrwt beam="1">  1       -2 0.49860756E-02 0.25507500E+02</pdfrwt>
<totfact> 0.20848340E+06</totfact>
</mgrwt>
</event>
<event>
 4    1  0.3704929E-001  0.3562344E+02  0.7818608E-02  0.1543133E+00
          2   -1    0    0  501    0  0.00000000000E+00  0.00000000000E+00  0.16117731481E+02  0.16117731691E+02  0.26000000000E-02 0.  1.
         -2   -1    0    0    0  501 -0.00000000000E+00 -0.00000000000E+00 -0.19683748804E+02  0.19683748976E+02  0.26000000000E-02 0. -1.
        -13    1    1    2    0    0  0.98342414986E+01  0.14556406443E+02  0.11719135831E+01  0.17606414408E+02  0.10570000000E+00 0. -1.
         13    1    1    2    0    0 -0.98342414986E+01 -0.14556406443E+02 -0.47379309065E+01  0.18195066258E+02  0.10570000000E+00 0.  1.
<mgrwt>
<rscale>  0 0.35623441E+02</rscale>
<asrwt>0</asrwt>
<pdfrwt beam="1">  1        2 0.24796510E-02 0.35623441E+02</pdfrwt>
<pdfrwt beam="2">  1       -2 0.30282691E-02 0.35623441E+02</pdfrwt>
<totfact> 0.10300449E+06</totfact>
</mgrwt>
</event>
<event>
 4    1  0.3704929E-001  0.3319172E+02  0.7818608E-02  0.1565271E+00
         -2   -1    0    0    0  501 -0.00000000000E+00  0.00000000000E+00  0.28809547382E+01  0.28809559114E+01  0.26000000000E-02 0.  1.
          2   -1    0    0  501    0  0.00000000000E+00 -0.00000000000E+00 -0.95601108078E+02  0.95601108114E+02  0.26000000000E-02 0. -1.
        -13    1    1    2    0    0 -0.10273474550E+02 -0.11914110231E+02 -0.30681981542E+02  0.34480218470E+02  0.10570000000E+00 0.  1.
         13    1    1    2    0    0  0.10273474550E+02  0.11914110231E+02 -0.62038171797E+02  0.64001845554E+02  0.10570000000E+00 0. -1.
<mgrwt>
<rscale>  0 0.33191717E+02</rscale>
<asrwt>0</asrwt>
<pdfrwt beam="2">  1        2 0.14707860E-01 0.33191717E+02</pdfrwt>
<pdfrwt beam="1">  1       -2 0.44322397E-03 0.33191717E+02</pdfrwt>
<totfact> 0.16253274E+06</totfact>
</mgrwt>
</event>
<event>
 4    1  0.3704929E-001  0.4324097E+02  0.7818608E-02  0.1485631E+00
          2   -1    0    0  501    0  0.00000000000E+00  0.00000000000E+00  0.14383730159E+02  0.14383730393E+02  0.26000000000E-02 0. -1.
         -2   -1    0    0    0  501 -0.00000000000E+00 -0.00000000000E+00 -0.32498197235E+02  0.32498197339E+02  0.26000000000E-02 0.  1.
        -13    1    1    2    0    0  0.11701380471E+01 -0.20718089125E+02 -0.24778449151E+01  0.20898787715E+02  0.10570000000E+00 0. -1.
         13    1    1    2    0    0 -0.11701380471E+01  0.20718089125E+02 -0.15636622161E+02  0.25983140017E+02  0.10570000000E+00 0.  1.
<mgrwt>
<rscale>  0 0.43240967E+02</rscale>
<asrwt>0</asrwt>
<pdfrwt beam="1">  1        2 0.22128816E-02 0.43240967E+02</pdfrwt>
<pdfrwt beam="2">  1       -2 0.49997226E-02 0.43240967E+02</pdfrwt>
<totfact> 0.61610222E+05</totfact>
</mgrwt>
</event>
<event>
 4    1  0.3704929E-001  0.2827519E+02  0.7818608E-02  0.1617976E+00
         -2   -1    0    0    0  501 -0.00000000000E+00  0.00000000000E+00  0.42332460119E+01  0.42332468103E+01  0.26000000000E-02 0.  1.
          2   -1    0    0  501    0  0.00000000000E+00 -0.00000000000E+00 -0.47214724886E+02  0.47214724958E+02  0.26000000000E-02 0. -1.
        -13    1    1    2    0    0  0.59856923440E+01  0.12376166786E+02 -0.15493861352E+02  0.20713979078E+02  0.10570000000E+00 0. -1.
         13    1    1    2    0    0 -0.59856923440E+01 -0.12376166786E+02 -0.27487617522E+02  0.30733992690E+02  0.10570000000E+00 0.  1.
<mgrwt>
<rscale>  0 0.28275188E+02</rscale>
<asrwt>0</asrwt>
<pdfrwt beam="2">  1        2 0.72638035E-02 0.28275188E+02</pdfrwt>
<pdfrwt beam="1">  1       -2 0.65126872E-03 0.28275188E+02</pdfrwt>
<totfact> 0.20733725E+06</totfact>
</mgrwt>
</event>
<event>
 4    1  0.3704929E-001  0.3694033E+02  0.7818608E-02  0.1532015E+00
          2   -1    0    0  501    0  0.00000000000E+00  0.00000000000E+00  0.64798212181E+02  0.64798212233E+02  0.26000000000E-02 0. -1.
         -2   -1    0    0    0  501 -0.00000000000E+00 -0.00000000000E+00 -0.52647586296E+01  0.52647592716E+01  0.26000000000E-02 0.  1.
        -13    1    1    2    0    0  0.10949076605E+02  0.18572251805E-01  0.15548126599E+01  0.11059441140E+02  0.10570000000E+00 0.  1.
         13    1    1    2    0    0 -0.10949076605E+02 -0.18572251805E-01  0.57978640892E+02  0.59003530365E+02  0.10570000000E+00 0. -1.
<mgrwt>
<rscale>  0 0.36940329E+02</rscale>
<asrwt>0</asrwt>
<pdfrwt beam="1">  1        2 0.99689557E-02 0.36940329E+02</pdfrwt>
<pdfrwt beam="2">  1       -2 0.80996292E-03 0.36940329E+02</pdfrwt>
<totfact> 0.11525226E+06</totfact>
</mgrwt>
</event>
<event>
 4    1  0.3704929E-001  0.3533858E+02  0.7818608E-02  0.1545614E+00
          2   -1    0    0  501    0  0.00000000000E+00  0.00000000000E+00  0.14357148235E+03  0.14357148237E+03  0.26000000000E-02 0.  1.
         -2   -1    0    0    0  501 -0.00000000000E+00 -0.00000000000E+00 -0.21745520328E+01  0.21745535871E+01  0.26000000000E-02 0. -1.
        -13    1    1    2    0    0  0.33064305049E+01  0.16835737649E+02  0.53289303957E+02  0.55983351397E+02  0.10570000000E+00 0. -1.
         13    1    1    2    0    0 -0.33064305049E+01 -0.16835737649E+02  0.88107626358E+02  0.89762684562E+02  0.10570000000E+00 0.  1.
<mgrwt>
<rscale>  0 0.35338578E+02</rscale>
<asrwt>0</asrwt>
<pdfrwt beam="1">  1        2 0.22087923E-01 0.35338578E+02</pdfrwt>
<pdfrwt beam="2">  1       -2 0.33454654E-03 0.35338578E+02</pdfrwt>
<totfact> 0.15566652E+06</totfact>
</mgrwt>
</event>
<event>
 4    1  0.3704929E-001  0.7573442E+02  0.7818608E-02  0.1341612E+00
         -2   -1    0    0    0  501 -0.00000000000E+00  0.00000000000E+00  0.58961170805E+01  0.58961176537E+01  0.26000000000E-02 0. -1.
          2   -1    0    0  501    0  0.00000000000E+00 -0.00000000000E+00 -0.24319825053E+03  0.24319825054E+03  0.26000000000E-02 0.  1.
        -13    1    1    2    0    0  0.33836225587E+02  0.16997563015E+02 -0.11757544597E+03  0.12352248370E+03  0.10570000000E+00 0.  1.
         13    1    1    2    0    0 -0.33836225587E+02 -0.16997563015E+02 -0.11972668747E+03  0.12557188450E+03  0.10570000000E+00 0. -1.
<mgrwt>
<rscale>  0 0.75734416E+02</rscale>
<asrwt>0</asrwt>
<pdfrwt beam="2">  1        2 0.37415108E-01 0.75734416E+02</pdfrwt>
<pdfrwt beam="1">  1       -2 0.90709517E-03 0.75734416E+02</pdfrwt>
<totfact> 0.27173870E+05</totfact>
</mgrwt>
</event>
<event>
 4    1  0.3704929E-001  0.1917517E+03  0.7818608E-02  0.1156891E+00
          2   -1    0    0  501    0  0.00000000000E+00  0.00000000000E+00  0.26587599801E+03  0.26587599802E+03  0.26000000000E-02 0. -1.
         -2   -1    0    0    0  501 -0.00000000000E+00 -0.00000000000E+00 -0.34573193362E+02  0.34573193459E+02  0.26000000000E-02 0.  1.
        -13    1    1    2    0    0 -0.19491393786E+02  0.80358848102E+02  0.39618660914E+02  0.91690285009E+02  0.10570000000E+00 0.  1.
         13    1    1    2    0    0  0.19491393786E+02 -0.80358848102E+02  0.19168414374E+03  0.20875890647E+03  0.10570000000E+00 0. -1.
<mgrwt>
<rscale>  0 0.19175174E+03</rscale>
<asrwt>0</asrwt>
<pdfrwt beam="1">  1        2 0.40904001E-01 0.19175174E+03</pdfrwt>
<pdfrwt beam="2">  1       -2 0.53189527E-02 0.19175174E+03</pdfrwt>
<totfact> 0.21369041E+04</totfact>
</mgrwt>
</event>
<event>
 4    1  0.3704929E-001  0.3970690E+02  0.7818608E-02  0.1510380E+00
         -2   -1    0    0    0  501 -0.00000000000E+00  0.00000000000E+00  0.20368512565E+01  0.20368529160E+01  0.26000000000E-02 0.  1.
          2   -1    0    0  501    0  0.00000000000E+00 -0.00000000000E+00 -0.19351402749E+03  0.19351402751E+03  0.26000000000E-02 0. -1.
        -13    1    1    2    0    0 -0.49815212849E+01  0.19209087277E+02 -0.92851372145E+02  0.94948370550E+02  0.10570000000E+00 0. -1.
         13    1    1    2    0    0  0.49815212849E+01 -0.19209087277E+02 -0.98625804088E+02  0.10060250987E+03  0.10570000000E+00 0.  1.
<mgrwt>
<rscale>  0 0.39706899E+02</rscale>
<asrwt>0</asrwt>
<pdfrwt beam="2">  1        2 0.29771375E-01 0.39706899E+02</pdfrwt>
<pdfrwt beam="1">  1       -2 0.31336201E-03 0.39706899E+02</pdfrwt>
<totfact> 0.12863202E+06</totfact>
</mgrwt>
</event>
<event>
 4    1  0.3704929E-001  0.3489129E+02  0.7818608E-02  0.1549568E+00
          2   -1    0    0  501    0  0.00000000000E+00  0.00000000000E+00  0.53583565305E+02  0.53583565368E+02  0.26000000000E-02 0. -1.
         -2   -1    0    0    0  501 -0.00000000000E+00 -0.00000000000E+00 -0.56799237265E+01  0.56799243216E+01  0.26000000000E-02 0.  1.
        -13    1    1    2    0    0 -0.17254775625E+02  0.25647118487E+01  0.24266767400E+02  0.29886321307E+02  0.10570000000E+00 0.  1.
         13    1    1    2    0    0  0.17254775625E+02 -0.25647118487E+01  0.23636874178E+02  0.29377168382E+02  0.10570000000E+00 0. -1.
<mgrwt>
<rscale>  0 0.34891293E+02</rscale>
<asrwt>0</asrwt>
<pdfrwt beam="1">  1        2 0.82436259E-02 0.34891293E+02</pdfrwt>
<pdfrwt beam="2">  1       -2 0.87383443E-03 0.34891293E+02</pdfrwt>
<totfact> 0.12786298E+06</totfact>
</mgrwt>
</event>
<event>
 4    1  0.3704929E-001  0.2322737E+02  0.7818608E-02  0.1687851E+00
         -2   -1    0    0    0  501 -0.00000000000E+00  0.00000000000E+00  0.17852171826E+01  0.17852190759E+01  0.26000000000E-02 0.  1.
          2   -1    0    0  501    0  0.00000000000E+00 -0.00000000000E+00 -0.75552486993E+02  0.75552487038E+02  0.26000000000E-02 0. -1.
        -13    1    1    2    0    0  0.81921565444E+01 -0.62901292289E+01 -0.19205609339E+02  0.21806965794E+02  0.10570000000E+00 0.  1.
         13    1    1    2    0    0 -0.81921565444E+01  0.62901292289E+01 -0.54561660472E+02  0.55530740320E+02  0.10570000000E+00 0. -1.
<mgrwt>
<rscale>  0 0.23227369E+02</rscale>
<asrwt>0</asrwt>
<pdfrwt beam="2">  1        2 0.11623457E-01 0.23227369E+02</pdfrwt>
<pdfrwt beam="1">  1       -2 0.27464901E-03 0.23227369E+02</pdfrwt>
<totfact> 0.35546153E+06</totfact>
</mgrwt>
</event>
<event>
 4    1  0.3704929E-001  0.6379951E+02  0.7818608E-02  0.1382545E+00
         -2   -1    0    0    0  501 -0.00000000000E+00  0.00000000000E+00  0.32649450742E+02  0.32649450845E+02  0.26000000000E-02 0. -1.
          2   -1    0    0  501    0  0.00000000000E+00 -0.00000000000E+00 -0.31167274177E+02  0.31167274286E+02  0.26000000000E-02 0.  1.
        -13    1    1    2    0    0  0.16547166996E+02 -0.27270149408E+02  0.40419933075E+00  0.31900538145E+02  0.10570000000E+00 0.  1.
         13    1    1    2    0    0 -0.16547166996E+02  0.27270149408E+02  0.10779772339E+01  0.31916186986E+02  0.10570000000E+00 0. -1.
<mgrwt>
<rscale>  0 0.63799511E+02</rscale>
<asrwt>0</asrwt>
<pdfrwt beam="2">  1        2 0.47949653E-02 0.63799511E+02</pdfrwt>
<pdfrwt beam="1">  1       -2 0.50229924E-02 0.63799511E+02</pdfrwt>
<totfact> 0.24628374E+05</totfact>
</mgrwt>
</event>
<event>
 4    1  0.3704929E-001  0.3424071E+02  0.7818608E-02  0.1555449E+00
          2   -1    0    0  501    0  0.00000000000E+00  0.00000000000E+00  0.74268881609E+02  0.74268881655E+02  0.26000000000E-02 0.  1.
         -2   -1    0    0    0  501 -0.00000000000E+00 -0.00000000000E+00 -0.39465581248E+01  0.39465589812E+01  0.26000000000E-02 0. -1.
        -13    1    1    2    0    0 -0.14871548255E+01 -0.16808615692E+02  0.41763539887E+02  0.45043818969E+02  0.10570000000E+00 0. -1.
         13    1    1    2    0    0  0.14871548255E+01  0.16808615692E+02  0.28558783598E+02  0.33171621667E+02  0.10570000000E+00 0.  1.
<mgrwt>
<rscale>  0 0.34240706E+02</rscale>
<asrwt>0</asrwt>
<pdfrwt beam="1">  1        2 0.11425981E-01 0.34240706E+02</pdfrwt>
<pdfrwt beam="2">  1       -2 0.60716289E-03 0.34240706E+02</pdfrwt>
<totfact> 0.14251743E+06</totfact>
</mgrwt>
</event>
<event>
 4    1  0.3704929E-001  0.8830132E+02  0.7818608E-02  0.1307018E+00
         -2   -1    0    0    0  501 -0.00000000000E+00  0.00000000000E+00  0.46675132667E+02  0.46675132740E+02  0.26000000000E-02 0. -1.
          2   -1    0    0  501    0  0.00000000000E+00 -0.00000000000E+00 -0.41762725110E+02  0.41762725191E+02  0.26000000000E-02 0.  1.
        -13    1    1    2    0    0 -0.25958538611E+02 -0.14950616838E+02 -0.30026999438E+02  0.42414602891E+02  0.10570000000E+00 0.  1.
         13    1    1    2    0    0  0.25958538611E+02  0.14950616838E+02  0.34939406996E+02  0.46023255039E+02  0.10570000000E+00 0. -1.
<mgrwt>
<rscale>  0 0.88301319E+02</rscale>
<asrwt>0</asrwt>
<pdfrwt beam="2">  1        2 0.64250347E-02 0.88301319E+02</pdfrwt>
<pdfrwt beam="1">  1       -2 0.71807896E-02 0.88301319E+02</pdfrwt>
<totfact> 0.10576945E+05</totfact>
</mgrwt>
</event>
<event>
 4    1  0.3704929E-001  0.3080433E+02  0.7818608E-02  0.1589364E+00
          2   -1    0    0  501    0  0.00000000000E+00  0.00000000000E+00  0.75728223757E+02  0.75728223801E+02  0.26000000000E-02 0.  1.
         -2   -1    0    0    0  501 -0.00000000000E+00 -0.00000000000E+00 -0.31326061042E+01  0.31326071832E+01  0.26000000000E-02 0. -1.
        -13    1    1    2    0    0  0.83502279202E+01  0.12507083786E+02  0.44812495083E+02  0.47268640124E+02  0.10570000000E+00 0. -1.
         13    1    1    2    0    0 -0.83502279202E+01 -0.12507083786E+02  0.27783122569E+02  0.31592190860E+02  0.10570000000E+00 0.  1.
<mgrwt>
<rscale>  0 0.30804333E+02</rscale>
<asrwt>0</asrwt>
<pdfrwt beam="1">  1        2 0.11650495E-01 0.30804333E+02</pdfrwt>
<pdfrwt beam="2">  1       -2 0.48193951E-03 0.30804333E+02</pdfrwt>
<totfact> 0.18438233E+06</totfact>
</mgrwt>
</event>
<event>
 4    1  0.3704929E-001  0.5068826E+02  0.7818608E-02  0.1441664E+00
         -2   -1    0    0    0  501 -0.00000000000E+00  0.00000000000E+00  0.38810827063E+01  0.38810835772E+01  0.26000000000E-02 0.  1.
          2   -1    0    0  501    0  0.00000000000E+00 -0.00000000000E+00 -0.16550142821E+03  0.16550142823E+03  0.26000000000E-02 0. -1.
        -13    1    1    2    0    0 -0.67499363939E+01  0.24187071629E+02 -0.92258712904E+02  0.95615152327E+02  0.10570000000E+00 0. -1.
         13    1    1    2    0    0  0.67499363939E+01 -0.24187071629E+02 -0.69361632597E+02  0.73767359478E+02  0.10570000000E+00 0.  1.
<mgrwt>
<rscale>  0 0.50688255E+02</rscale>
<asrwt>0</asrwt>
<pdfrwt beam="2">  1        2 0.25461753E-01 0.50688255E+02</pdfrwt>
<pdfrwt beam="1">  1       -2 0.59708984E-03 0.50688255E+02</pdfrwt>
<totfact> 0.66900406E+05</totfact>
</mgrwt>
</event>
<event>
 4    1  0.3704929E-001  0.6176760E+02  0.7818608E-02  0.1390560E+00
         -2   -1    0    0    0  501 -0.00000000000E+00  0.00000000000E+00  0.28417857944E+02  0.28417858063E+02  0.26000000000E-02 0. -1.
          2   -1    0    0  501    0  0.00000000000E+00 -0.00000000000E+00 -0.33563717281E+02  0.33563717382E+02  0.26000000000E-02 0.  1.
        -13    1    1    2    0    0 -0.22885590027E+02 -0.43836968653E+01 -0.22912107380E+02  0.32679395132E+02  0.10570000000E+00 0.  1.
         13    1    1    2    0    0  0.22885590027E+02  0.43836968653E+01  0.17766248043E+02  0.29302180313E+02  0.10570000000E+00 0. -1.
<mgrwt>
<rscale>  0 0.61767595E+02</rscale>
<asrwt>0</asrwt>
<pdfrwt beam="2">  1        2 0.51636488E-02 0.61767595E+02</pdfrwt>
<pdfrwt beam="1">  1       -2 0.43719781E-02 0.61767595E+02</pdfrwt>
<totfact> 0.27278801E+05</totfact>
</mgrwt>
</event>
<event>
 4    1  0.3704929E-001  0.2172692E+02  0.7818608E-02  0.1713018E+00
         -2   -1    0    0    0  501 -0.00000000000E+00  0.00000000000E+00  0.55604773610E+01  0.55604779689E+01  0.26000000000E-02 0.  1.
          2   -1    0    0  501    0  0.00000000000E+00 -0.00000000000E+00 -0.21223857742E+02  0.21223857901E+02  0.26000000000E-02 0. -1.
        -13    1    1    2    0    0 -0.89245462232E+01  0.59624720583E+01 -0.57670202144E+01  0.12184756583E+02  0.10570000000E+00 0.  1.
         13    1    1    2    0    0  0.89245462232E+01 -0.59624720583E+01 -0.98963601668E+01  0.14599579288E+02  0.10570000000E+00 0. -1.
<mgrwt>
<rscale>  0 0.21726923E+02</rscale>
<asrwt>0</asrwt>
<pdfrwt beam="2">  1        2 0.32652089E-02 0.21726923E+02</pdfrwt>
<pdfrwt beam="1">  1       -2 0.85545812E-03 0.21726923E+02</pdfrwt>
<totfact> 0.34712816E+06</totfact>
</mgrwt>
</event>
<event>
 4    1  0.3704929E-001  0.2292004E+02  0.7818608E-02  0.1692810E+00
          2   -1    0    0  501    0  0.00000000000E+00  0.00000000000E+00  0.76551414252E+02  0.76551414296E+02  0.26000000000E-02 0. -1.
         -2   -1    0    0    0  501 -0.00000000000E+00 -0.00000000000E+00 -0.17156049624E+01  0.17156069326E+01  0.26000000000E-02 0.  1.
        -13    1    1    2    0    0  0.22595569810E+01  0.11217401979E+02  0.35298569835E+02  0.37107087056E+02  0.10570000000E+00 0.  1.
         13    1    1    2    0    0 -0.22595569810E+01 -0.11217401979E+02  0.39537239454E+02  0.41159934172E+02  0.10570000000E+00 0. -1.
<mgrwt>
<rscale>  0 0.22920041E+02</rscale>
<asrwt>0</asrwt>
<pdfrwt beam="1">  1        2 0.11777139E-01 0.22920041E+02</pdfrwt>
<pdfrwt beam="2">  1       -2 0.26393941E-03 0.22920041E+02</pdfrwt>
<totfact> 0.36733957E+06</totfact>
</mgrwt>
</event>
<event>
 4    1  0.3704929E-001  0.3383511E+02  0.7818608E-02  0.1559195E+00
         -2   -1    0    0    0  501 -0.00000000000E+00  0.00000000000E+00  0.83600968013E+02  0.83600968053E+02  0.26000000000E-02 0.  1.
          2   -1    0    0  501    0  0.00000000000E+00 -0.00000000000E+00 -0.34234477816E+01  0.34234487690E+01  0.26000000000E-02 0. -1.
        -13    1    1    2    0    0 -0.90531374037E+01 -0.96876991036E+01  0.67111037458E+02  0.68408430270E+02  0.10570000000E+00 0.  1.
         13    1    1    2    0    0  0.90531374037E+01  0.96876991036E+01  0.13066482773E+02  0.18615986552E+02  0.10570000000E+00 0. -1.
<mgrwt>
<rscale>  0 0.33835106E+02</rscale>
<asrwt>0</asrwt>
<pdfrwt beam="2">  1        2 0.52668437E-03 0.33835106E+02</pdfrwt>
<pdfrwt beam="1">  1       -2 0.12861687E-01 0.33835106E+02</pdfrwt>
<totfact> 0.93822610E+05</totfact>
</mgrwt>
</event>
<event>
 4    1  0.3704929E-001  0.2262866E+02  0.7818608E-02  0.1697601E+00
          2   -1    0    0  501    0  0.00000000000E+00  0.00000000000E+00  0.36860749097E+02  0.36860749188E+02  0.26000000000E-02 0.  1.
         -2   -1    0    0    0  501 -0.00000000000E+00 -0.00000000000E+00 -0.34729102236E+01  0.34729111968E+01  0.26000000000E-02 0. -1.
        -13    1    1    2    0    0 -0.43134795721E+01 -0.94992584407E+01  0.24496113542E+02  0.26625415830E+02  0.10570000000E+00 0.  1.
         13    1    1    2    0    0  0.43134795721E+01  0.94992584407E+01  0.88917253306E+01  0.13708244555E+02  0.10570000000E+00 0. -1.
<mgrwt>
<rscale>  0 0.22628663E+02</rscale>
<asrwt>0</asrwt>
<pdfrwt beam="1">  1        2 0.56708848E-02 0.22628663E+02</pdfrwt>
<pdfrwt beam="2">  1       -2 0.53429394E-03 0.22628663E+02</pdfrwt>
<totfact> 0.33600389E+06</totfact>
</mgrwt>
</event>
<event>
 4    1  0.3704929E-001  0.2495294E+02  0.7818608E-02  0.1661679E+00
         -2   -1    0    0    0  501 -0.00000000000E+00  0.00000000000E+00  0.14344054653E+01  0.14344078216E+01  0.26000000000E-02 0.  1.
          2   -1    0    0  501    0  0.00000000000E+00 -0.00000000000E+00 -0.10852034434E+03  0.10852034437E+03  0.26000000000E-02 0. -1.
        -13    1    1    2    0    0  0.12130894237E+02  0.81446613934E+00 -0.41213325921E+02  0.42969423502E+02  0.10570000000E+00 0. -1.
         13    1    1    2    0    0 -0.12130894237E+02 -0.81446613934E+00 -0.65872612954E+02  0.66985328692E+02  0.10570000000E+00 0.  1.
<mgrwt>
<rscale>  0 0.24952940E+02</rscale>
<asrwt>0</asrwt>
<pdfrwt beam="2">  1        2 0.16695431E-01 0.24952940E+02</pdfrwt>
<pdfrwt beam="1">  1       -2 0.22067803E-03 0.24952940E+02</pdfrwt>
<totfact> 0.32703872E+06</totfact>
</mgrwt>
</event>
<event>
 4    1  0.3704929E-001  0.2606852E+02  0.7818608E-02  0.1646112E+00
          2   -1    0    0  501    0  0.00000000000E+00  0.00000000000E+00  0.48107225111E+02  0.48107225181E+02  0.26000000000E-02 0.  1.
         -2   -1    0    0    0  501 -0.00000000000E+00 -0.00000000000E+00 -0.35315256338E+01  0.35315265909E+01  0.26000000000E-02 0. -1.
        -13    1    1    2    0    0  0.72283016147E+01 -0.10107211919E+02  0.30080733750E+02  0.32546363736E+02  0.10570000000E+00 0.  1.
         13    1    1    2    0    0 -0.72283016147E+01  0.10107211919E+02  0.14494965727E+02  0.19092388036E+02  0.10570000000E+00 0. -1.
<mgrwt>
<rscale>  0 0.26068519E+02</rscale>
<asrwt>0</asrwt>
<pdfrwt beam="1">  1        2 0.74011116E-02 0.26068519E+02</pdfrwt>
<pdfrwt beam="2">  1       -2 0.54331172E-03 0.26068519E+02</pdfrwt>
<totfact> 0.25163567E+06</totfact>
</mgrwt>
</event>
<event>
 4    1  0.3704929E-001  0.2512147E+02  0.7818608E-02  0.1659263E+00
         -2   -1    0    0    0  501 -0.00000000000E+00  0.00000000000E+00  0.71636016616E+01  0.71636021334E+01  0.26000000000E-02 0.  1.
          2   -1    0    0  501    0  0.00000000000E+00 -0.00000000000E+00 -0.22024122960E+02  0.22024123113E+02  0.26000000000E-02 0. -1.
        -13    1    1    2    0    0  0.88402979282E+01 -0.83057427463E+01 -0.36431103550E+01  0.12665688121E+02  0.10570000000E+00 0.  1.
         13    1    1    2    0    0 -0.88402979282E+01  0.83057427463E+01 -0.11217410943E+02  0.16522037126E+02  0.10570000000E+00 0. -1.
<mgrwt>
<rscale>  0 0.25121469E+02</rscale>
<asrwt>0</asrwt>
<pdfrwt beam="2">  1        2 0.33883266E-02 0.25121469E+02</pdfrwt>
<pdfrwt beam="1">  1       -2 0.11020926E-02 0.25121469E+02</pdfrwt>
<totfact> 0.24887033E+06</totfact>
</mgrwt>
</event>
<event>
 4    1  0.3704929E-001  0.2196536E+02  0.7818608E-02  0.1708852E+00
         -2   -1    0    0    0  501 -0.00000000000E+00  0.00000000000E+00  0.38093285527E+01  0.38093294400E+01  0.26000000000E-02 0. -1.
          2   -1    0    0  501    0  0.00000000000E+00 -0.00000000000E+00 -0.31664187456E+02  0.31664187563E+02  0.26000000000E-02 0.  1.
        -13    1    1    2    0    0 -0.95633657640E+01 -0.46419696882E+01 -0.18380279614E+02  0.21233268672E+02  0.10570000000E+00 0.  1.
         13    1    1    2    0    0  0.95633657640E+01  0.46419696882E+01 -0.94745792896E+01  0.14240248331E+02  0.10570000000E+00 0. -1.
<mgrwt>
<rscale>  0 0.21965365E+02</rscale>
<asrwt>0</asrwt>
<pdfrwt beam="2">  1        2 0.48714134E-02 0.21965365E+02</pdfrwt>
<pdfrwt beam="1">  1       -2 0.58605064E-03 0.21965365E+02</pdfrwt>
<totfact> 0.35300437E+06</totfact>
</mgrwt>
</event>
<event>
 4    1  0.3704929E-001  0.2248321E+02  0.7818608E-02  0.1700027E+00
         -2   -1    0    0    0  501 -0.00000000000E+00  0.00000000000E+00  0.25297221976E+01  0.25297235338E+01  0.26000000000E-02 0. -1.
          2   -1    0    0  501    0  0.00000000000E+00 -0.00000000000E+00 -0.49955541919E+02  0.49955541987E+02  0.26000000000E-02 0.  1.
        -13    1    1    2    0    0 -0.10120431120E+02 -0.48773330113E+01 -0.24620048595E+02  0.27062325633E+02  0.10570000000E+00 0.  1.
         13    1    1    2    0    0  0.10120431120E+02  0.48773330113E+01 -0.22805771127E+02  0.25422939888E+02  0.10570000000E+00 0. -1.
<mgrwt>
<rscale>  0 0.22483210E+02</rscale>
<asrwt>0</asrwt>
<pdfrwt beam="2">  1        2 0.76854673E-02 0.22483210E+02</pdfrwt>
<pdfrwt beam="1">  1       -2 0.38918818E-03 0.22483210E+02</pdfrwt>
<totfact> 0.35589063E+06</totfact>
</mgrwt>
</event>
<event>
 4    1  0.3704929E-001  0.2149153E+02  0.7818608E-02  0.1717197E+00
         -2   -1    0    0    0  501 -0.00000000000E+00  0.00000000000E+00  0.51505917219E+01  0.51505923781E+01  0.26000000000E-02 0. -1.
          2   -1    0    0  501    0  0.00000000000E+00 -0.00000000000E+00 -0.22419061325E+02  0.22419061476E+02  0.26000000000E-02 0.  1.
        -13    1    1    2    0    0  0.46552734098E+01 -0.96726647402E+01 -0.80213544414E+01  0.13400944491E+02  0.10570000000E+00 0. -1.
         13    1    1    2    0    0 -0.46552734098E+01  0.96726647402E+01 -0.92471151615E+01  0.14168709362E+02  0.10570000000E+00 0.  1.
<mgrwt>
<rscale>  0 0.21491528E+02</rscale>
<asrwt>0</asrwt>
<pdfrwt beam="2">  1        2 0.34490864E-02 0.21491528E+02</pdfrwt>
<pdfrwt beam="1">  1       -2 0.79239880E-03 0.21491528E+02</pdfrwt>
<totfact> 0.35773605E+06</totfact>
</mgrwt>
</event>
<event>
 4    1  0.3704929E-001  0.3196570E+02  0.7818608E-02  0.1577324E+00
         -2   -1    0    0    0  501 -0.00000000000E+00  0.00000000000E+00  0.34798946445E+01  0.34798956158E+01  0.26000000000E-02 0.  1.
          2   -1    0    0  501    0  0.00000000000E+00 -0.00000000000E+00 -0.73407797349E+02  0.73407797395E+02  0.26000000000E-02 0. -1.
        -13    1    1    2    0    0 -0.10598023908E+02  0.15566418527E+01 -0.64328722606E+01  0.12495369647E+02  0.10570000000E+00 0.  1.
         13    1    1    2    0    0  0.10598023908E+02 -0.15566418527E+01 -0.63495030443E+02  0.64392323363E+02  0.10570000000E+00 0. -1.
<mgrwt>
<rscale>  0 0.31965697E+02</rscale>
<asrwt>0</asrwt>
<pdfrwt beam="2">  1        2 0.11293506E-01 0.31965697E+02</pdfrwt>
<pdfrwt beam="1">  1       -2 0.53536854E-03 0.31965697E+02</pdfrwt>
<totfact> 0.16771589E+06</totfact>
</mgrwt>
</event>
<event>
 4    1  0.3704929E-001  0.2617132E+02  0.7818608E-02  0.1644726E+00
          2   -1    0    0  501    0  0.00000000000E+00  0.00000000000E+00  0.54555215004E+02  0.54555215066E+02  0.26000000000E-02 0.  1.
         -2   -1    0    0    0  501 -0.00000000000E+00 -0.00000000000E+00 -0.31387359278E+01  0.31387370046E+01  0.26000000000E-02 0. -1.
        -13    1    1    2    0    0  0.10013037758E+02  0.75268073079E+01  0.34047302735E+02  0.36278695530E+02  0.10570000000E+00 0.  1.
         13    1    1    2    0    0 -0.10013037758E+02 -0.75268073079E+01  0.17369176341E+02  0.21415256540E+02  0.10570000000E+00 0. -1.
<mgrwt>
<rscale>  0 0.26171316E+02</rscale>
<asrwt>0</asrwt>
<pdfrwt beam="1">  1        2 0.83931095E-02 0.26171316E+02</pdfrwt>
<pdfrwt beam="2">  1       -2 0.48288257E-03 0.26171316E+02</pdfrwt>
<totfact> 0.25445059E+06</totfact>
</mgrwt>
</event>
<event>
 4    1  0.3704929E-001  0.2292735E+02  0.7818608E-02  0.1692691E+00
         -2   -1    0    0    0  501 -0.00000000000E+00  0.00000000000E+00  0.19117504062E+01  0.19117521742E+01  0.26000000000E-02 0.  1.
          2   -1    0    0  501    0  0.00000000000E+00 -0.00000000000E+00 -0.68741055616E+02  0.68741055665E+02  0.26000000000E-02 0. -1.
        -13    1    1    2    0    0 -0.10798635762E+02 -0.59256890666E+00 -0.45125915807E+02  0.46403891239E+02  0.10570000000E+00 0. -1.
         13    1    1    2    0    0  0.10798635762E+02  0.59256890666E+00 -0.21703389403E+02  0.24248916600E+02  0.10570000000E+00 0.  1.
<mgrwt>
<rscale>  0 0.22927347E+02</rscale>
<asrwt>0</asrwt>
<pdfrwt beam="2">  1        2 0.10575545E-01 0.22927347E+02</pdfrwt>
<pdfrwt beam="1">  1       -2 0.29411564E-03 0.22927347E+02</pdfrwt>
<totfact> 0.35948823E+06</totfact>
</mgrwt>
</event>
<event>
 4    1  0.3704929E-001  0.2356709E+02  0.7818608E-02  0.1682479E+00
         -2   -1    0    0    0  501 -0.00000000000E+00  0.00000000000E+00  0.23758346103E+01  0.23758360330E+01  0.26000000000E-02 0.  1.
          2   -1    0    0  501    0  0.00000000000E+00 -0.00000000000E+00 -0.58443438473E+02  0.58443438531E+02  0.26000000000E-02 0. -1.
        -13    1    1    2    0    0  0.97733690991E+01  0.36417963822E+01 -0.13884817024E+02  0.17366080177E+02  0.10570000000E+00 0. -1.
         13    1    1    2    0    0 -0.97733690991E+01 -0.36417963822E+01 -0.42182786839E+02  0.43453194387E+02  0.10570000000E+00 0.  1.
<mgrwt>
<rscale>  0 0.23567095E+02</rscale>
<asrwt>0</asrwt>
<pdfrwt beam="2">  1        2 0.89912972E-02 0.23567095E+02</pdfrwt>
<pdfrwt beam="1">  1       -2 0.36551318E-03 0.23567095E+02</pdfrwt>
<totfact> 0.32792545E+06</totfact>
</mgrwt>
</event>
<event>
 4    1  0.3704929E-001  0.2326134E+02  0.7818608E-02  0.1687309E+00
         -2   -1    0    0    0  501 -0.00000000000E+00  0.00000000000E+00  0.36211998477E+01  0.36212007811E+01  0.26000000000E-02 0. -1.
          2   -1    0    0  501    0  0.00000000000E+00 -0.00000000000E+00 -0.37355708578E+02  0.37355708669E+02  0.26000000000E-02 0.  1.
        -13    1    1    2    0    0 -0.76371954124E+01  0.74668779794E+01 -0.24974449636E+02  0.27162756260E+02  0.10570000000E+00 0.  1.
         13    1    1    2    0    0  0.76371954124E+01 -0.74668779794E+01 -0.87600590951E+01  0.13814153190E+02  0.10570000000E+00 0. -1.
<mgrwt>
<rscale>  0 0.23261342E+02</rscale>
<asrwt>0</asrwt>
<pdfrwt beam="2">  1        2 0.57470319E-02 0.23261342E+02</pdfrwt>
<pdfrwt beam="1">  1       -2 0.55710777E-03 0.23261342E+02</pdfrwt>
<totfact> 0.31598054E+06</totfact>
</mgrwt>
</event>
<event>
 4    1  0.3704929E-001  0.2077786E+02  0.7818608E-02  0.1730288E+00
          2   -1    0    0  501    0  0.00000000000E+00  0.00000000000E+00  0.32489896604E+01  0.32489907007E+01  0.26000000000E-02 0.  1.
         -2   -1    0    0    0  501 -0.00000000000E+00 -0.00000000000E+00 -0.33219504774E+02  0.33219504876E+02  0.26000000000E-02 0. -1.
        -13    1    1    2    0    0 -0.67511718603E+01  0.77104116036E+01 -0.12001530974E+02  0.15782163565E+02  0.10570000000E+00 0. -1.
         13    1    1    2    0    0  0.67511718603E+01 -0.77104116036E+01 -0.17968984139E+02  0.20686332011E+02  0.10570000000E+00 0.  1.
<mgrwt>
<rscale>  0 0.20777858E+02</rscale>
<asrwt>0</asrwt>
<pdfrwt beam="1">  1        2 0.49984467E-03 0.20777858E+02</pdfrwt>
<pdfrwt beam="2">  1       -2 0.51106929E-02 0.20777858E+02</pdfrwt>
<totfact> 0.32818224E+06</totfact>
</mgrwt>
</event>
<event>
 4    1  0.3704929E-001  0.2080574E+02  0.7818608E-02  0.1729764E+00
          2   -1    0    0  501    0  0.00000000000E+00  0.00000000000E+00  0.43417527856E+02  0.43417527934E+02  0.26000000000E-02 0. -1.
         -2   -1    0    0    0  501 -0.00000000000E+00 -0.00000000000E+00 -0.24925347779E+01  0.24925361339E+01  0.26000000000E-02 0.  1.
        -13    1    1    2    0    0  0.94419429720E+01 -0.40070526492E+01  0.16639397094E+02  0.19547057737E+02  0.10570000000E+00 0.  1.
         13    1    1    2    0    0 -0.94419429720E+01  0.40070526492E+01  0.24285595984E+02  0.26363006331E+02  0.10570000000E+00 0. -1.
<mgrwt>
<rscale>  0 0.20805743E+02</rscale>
<asrwt>0</asrwt>
<pdfrwt beam="1">  1        2 0.66796196E-02 0.20805743E+02</pdfrwt>
<pdfrwt beam="2">  1       -2 0.38346701E-03 0.20805743E+02</pdfrwt>
<totfact> 0.41548729E+06</totfact>
</mgrwt>
</event>
<event>
 4    1  0.3704929E-001  0.3491914E+02  0.7818608E-02  0.1549320E+00
          2   -1    0    0  501    0  0.00000000000E+00  0.00000000000E+00  0.22401634041E+01  0.22401649129E+01  0.26000000000E-02 0. -1.
         -2   -1    0    0    0  501 -0.00000000000E+00 -0.00000000000E+00 -0.13607777417E+03  0.13607777419E+03  0.26000000000E-02 0.  1.
        -13    1    1    2    0    0  0.11022180052E+02  0.12979053541E+02 -0.51638483585E+02  0.54373600611E+02  0.10570000000E+00 0. -1.
         13    1    1    2    0    0 -0.11022180052E+02 -0.12979053541E+02 -0.82199127180E+02  0.83944338496E+02  0.10570000000E+00 0.  1.
<mgrwt>
<rscale>  0 0.34919138E+02</rscale>
<asrwt>0</asrwt>
<pdfrwt beam="1">  1        2 0.34464075E-03 0.34919138E+02</pdfrwt>
<pdfrwt beam="2">  1       -2 0.20935036E-01 0.34919138E+02</pdfrwt>
<totfact> 0.76862057E+05</totfact>
</mgrwt>
</event>
<event>
 4    1  0.3704929E-001  0.2465859E+02  0.7818608E-02  0.1665955E+00
          2   -1    0    0  501    0  0.00000000000E+00  0.00000000000E+00  0.26825967713E+02  0.26825967839E+02  0.26000000000E-02 0.  1.
         -2   -1    0    0    0  501 -0.00000000000E+00 -0.00000000000E+00 -0.56665820011E+01  0.56665825975E+01  0.26000000000E-02 0. -1.
        -13    1    1    2    0    0  0.28527844997E+01 -0.10115721132E+02  0.19071857054E+02  0.21776434451E+02  0.10570000000E+00 0.  1.
         13    1    1    2    0    0 -0.28527844997E+01  0.10115721132E+02  0.20875286574E+01  0.10716115985E+02  0.10570000000E+00 0. -1.
<mgrwt>
<rscale>  0 0.24658593E+02</rscale>
<asrwt>0</asrwt>
<pdfrwt beam="1">  1        2 0.41270721E-02 0.24658593E+02</pdfrwt>
<pdfrwt beam="2">  1       -2 0.87178189E-03 0.24658593E+02</pdfrwt>
<totfact> 0.26541103E+06</totfact>
</mgrwt>
</event>
<event>
 4    1  0.3704929E-001  0.2491585E+02  0.7818608E-02  0.1662214E+00
         -2   -1    0    0    0  501 -0.00000000000E+00  0.00000000000E+00  0.88445981189E+01  0.88445985011E+01  0.26000000000E-02 0.  1.
          2   -1    0    0  501    0  0.00000000000E+00 -0.00000000000E+00 -0.17547414157E+02  0.17547414350E+02  0.26000000000E-02 0. -1.
        -13    1    1    2    0    0  0.72619237006E+01 -0.91790098332E+01 -0.88701704495E+01  0.14686076864E+02  0.10570000000E+00 0. -1.
         13    1    1    2    0    0 -0.72619237006E+01  0.91790098332E+01  0.16735441111E+00  0.11705935987E+02  0.10570000000E+00 0.  1.
<mgrwt>
<rscale>  0 0.24915845E+02</rscale>
<asrwt>0</asrwt>
<pdfrwt beam="2">  1        2 0.26996022E-02 0.24915845E+02</pdfrwt>
<pdfrwt beam="1">  1       -2 0.13607074E-02 0.24915845E+02</pdfrwt>
<totfact> 0.24819363E+06</totfact>
</mgrwt>
</event>
<event>
 4    1  0.3704929E-001  0.2268144E+02  0.7818608E-02  0.1696727E+00
         -2   -1    0    0    0  501 -0.00000000000E+00  0.00000000000E+00  0.17835057079E+02  0.17835057269E+02  0.26000000000E-02 0. -1.
          2   -1    0    0  501    0  0.00000000000E+00 -0.00000000000E+00 -0.72111859792E+01  0.72111864479E+01  0.26000000000E-02 0.  1.
        -13    1    1    2    0    0 -0.63699625817E+01 -0.88050414664E+01  0.88893975029E+01  0.14040574738E+02  0.10570000000E+00 0.  1.
         13    1    1    2    0    0  0.63699625817E+01  0.88050414664E+01  0.17344735969E+01  0.11005668979E+02  0.10570000000E+00 0. -1.
<mgrwt>
<rscale>  0 0.22681439E+02</rscale>
<asrwt>0</asrwt>
<pdfrwt beam="2">  1        2 0.11094133E-02 0.22681439E+02</pdfrwt>
<pdfrwt beam="1">  1       -2 0.27438549E-02 0.22681439E+02</pdfrwt>
<totfact> 0.28700420E+06</totfact>
</mgrwt>
</event>
<event>
 4    1  0.3704929E-001  0.3036856E+02  0.7818608E-02  0.1594050E+00
         -2   -1    0    0    0  501 -0.00000000000E+00  0.00000000000E+00  0.65955493448E+01  0.65955498572E+01  0.26000000000E-02 0. -1.
          2   -1    0    0  501    0  0.00000000000E+00 -0.00000000000E+00 -0.34957259611E+02  0.34957259707E+02  0.26000000000E-02 0.  1.
        -13    1    1    2    0    0 -0.12180197043E+02 -0.89058106164E+01 -0.11858595551E+02  0.19191355441E+02  0.10570000000E+00 0. -1.
         13    1    1    2    0    0  0.12180197043E+02  0.89058106164E+01 -0.16503114715E+02  0.22361454124E+02  0.10570000000E+00 0.  1.
<mgrwt>
<rscale>  0 0.30368559E+02</rscale>
<asrwt>0</asrwt>
<pdfrwt beam="2">  1        2 0.53780399E-02 0.30368559E+02</pdfrwt>
<pdfrwt beam="1">  1       -2 0.10147000E-02 0.30368559E+02</pdfrwt>
<totfact> 0.16744377E+06</totfact>
</mgrwt>
</event>
<event>
 4    1  0.3704929E-001  0.4165948E+02  0.7818608E-02  0.1496343E+00
         -2   -1    0    0    0  501 -0.00000000000E+00  0.00000000000E+00  0.63339548307E+01  0.63339553643E+01  0.26000000000E-02 0.  1.
          2   -1    0    0  501    0  0.00000000000E+00 -0.00000000000E+00 -0.68500339740E+02  0.68500339789E+02  0.26000000000E-02 0. -1.
        -13    1    1    2    0    0 -0.12989940566E+02  0.14659040878E+02 -0.43815742896E+02  0.47994338556E+02  0.10570000000E+00 0. -1.
         13    1    1    2    0    0  0.12989940566E+02 -0.14659040878E+02 -0.18350642013E+02  0.26839956597E+02  0.10570000000E+00 0.  1.
<mgrwt>
<rscale>  0 0.41659481E+02</rscale>
<asrwt>0</asrwt>
<pdfrwt beam="2">  1        2 0.10538513E-01 0.41659481E+02</pdfrwt>
<pdfrwt beam="1">  1       -2 0.97445468E-03 0.41659481E+02</pdfrwt>
<totfact> 0.86639779E+05</totfact>
</mgrwt>
</event>
<event>
 4    1  0.3704929E-001  0.3190716E+02  0.7818608E-02  0.1577916E+00
         -2   -1    0    0    0  501 -0.00000000000E+00  0.00000000000E+00  0.31935905573E+02  0.31935905679E+02  0.26000000000E-02 0.  1.
          2   -1    0    0  501    0  0.00000000000E+00 -0.00000000000E+00 -0.79696096772E+01  0.79696101013E+01  0.26000000000E-02 0. -1.
        -13    1    1    2    0    0  0.13139204403E+02 -0.43232739200E+01  0.20423474092E+01  0.13982551454E+02  0.10570000000E+00 0. -1.
         13    1    1    2    0    0 -0.13139204403E+02  0.43232739200E+01  0.21923948486E+02  0.25922964326E+02  0.10570000000E+00 0.  1.
<mgrwt>
<rscale>  0 0.31907160E+02</rscale>
<asrwt>0</asrwt>
<pdfrwt beam="2">  1        2 0.12260938E-02 0.31907160E+02</pdfrwt>
<pdfrwt beam="1">  1       -2 0.49132163E-02 0.31907160E+02</pdfrwt>
<totfact> 0.12534676E+06</totfact>
</mgrwt>
</event>
<event>
 4    1  0.3704929E-001  0.3646344E+02  0.7818608E-02  0.1535976E+00
         -2   -1    0    0    0  501 -0.00000000000E+00  0.00000000000E+00  0.28448134053E+02  0.28448134172E+02  0.26000000000E-02 0. -1.
          2   -1    0    0  501    0  0.00000000000E+00 -0.00000000000E+00 -0.11684267590E+02  0.11684267879E+02  0.26000000000E-02 0.  1.
        -13    1    1    2    0    0  0.12810290713E+02 -0.12461975398E+02  0.44166337993E+01  0.18409839911E+02  0.10570000000E+00 0. -1.
         13    1    1    2    0    0 -0.12810290713E+02  0.12461975398E+02  0.12347232665E+02  0.21722562140E+02  0.10570000000E+00 0.  1.
<mgrwt>
<rscale>  0 0.36463440E+02</rscale>
<asrwt>0</asrwt>
<pdfrwt beam="2">  1        2 0.17975797E-02 0.36463440E+02</pdfrwt>
<pdfrwt beam="1">  1       -2 0.43766360E-02 0.36463440E+02</pdfrwt>
<totfact> 0.93376172E+05</totfact>
</mgrwt>
</event>
<event>
 4    1  0.3704929E-001  0.3484994E+02  0.7818608E-02  0.1549937E+00
          2   -1    0    0  501    0  0.00000000000E+00  0.00000000000E+00  0.55735746554E+02  0.55735746614E+02  0.26000000000E-02 0. -1.
         -2   -1    0    0    0  501 -0.00000000000E+00 -0.00000000000E+00 -0.54476631559E+01  0.54476637763E+01  0.26000000000E-02 0.  1.
        -13    1    1    2    0    0  0.77364314951E+01  0.15496200127E+02  0.21797363316E+02  0.27840991554E+02  0.10570000000E+00 0.  1.
         13    1    1    2    0    0 -0.77364314951E+01 -0.15496200127E+02  0.28490720082E+02  0.33342418837E+02  0.10570000000E+00 0. -1.
<mgrwt>
<rscale>  0 0.34849941E+02</rscale>
<asrwt>0</asrwt>
<pdfrwt beam="1">  1        2 0.85747302E-02 0.34849941E+02</pdfrwt>
<pdfrwt beam="2">  1       -2 0.83810209E-03 0.34849941E+02</pdfrwt>
<totfact> 0.12913458E+06</totfact>
</mgrwt>
</event>
<event>
 4    1  0.3704929E-001  0.2588889E+02  0.7818608E-02  0.1648553E+00
         -2   -1    0    0    0  501 -0.00000000000E+00  0.00000000000E+00  0.29772219422E+02  0.29772219536E+02  0.26000000000E-02 0.  1.
          2   -1    0    0  501    0  0.00000000000E+00 -0.00000000000E+00 -0.56280191948E+01  0.56280197954E+01  0.26000000000E-02 0. -1.
        -13    1    1    2    0    0  0.12827599096E+02  0.42458634136E+00  0.14368295874E+02  0.19266205411E+02  0.10570000000E+00 0.  1.
         13    1    1    2    0    0 -0.12827599096E+02 -0.42458634136E+00  0.97759043530E+01  0.16134033920E+02  0.10570000000E+00 0. -1.
<mgrwt>
<rscale>  0 0.25888888E+02</rscale>
<asrwt>0</asrwt>
<pdfrwt beam="2">  1        2 0.86584916E-03 0.25888888E+02</pdfrwt>
<pdfrwt beam="1">  1       -2 0.45803415E-02 0.25888888E+02</pdfrwt>
<totfact> 0.20352038E+06</totfact>
</mgrwt>
</event>
<event>
 4    1  0.3704929E-001  0.3158070E+02  0.7818608E-02  0.1581246E+00
          2   -1    0    0  501    0  0.00000000000E+00  0.00000000000E+00  0.32030384756E+01  0.32030395308E+01  0.26000000000E-02 0.  1.
         -2   -1    0    0    0  501 -0.00000000000E+00 -0.00000000000E+00 -0.77843316094E+02  0.77843316137E+02  0.26000000000E-02 0. -1.
        -13    1    1    2    0    0  0.10675274901E+02  0.48864427532E+01 -0.64417082380E+02  0.65478320777E+02  0.10570000000E+00 0. -1.
         13    1    1    2    0    0 -0.10675274901E+02 -0.48864427532E+01 -0.10223195238E+02  0.15568034891E+02  0.10570000000E+00 0.  1.
<mgrwt>
<rscale>  0 0.31580702E+02</rscale>
<asrwt>0</asrwt>
<pdfrwt beam="1">  1        2 0.49277529E-03 0.31580702E+02</pdfrwt>
<pdfrwt beam="2">  1       -2 0.11975893E-01 0.31580702E+02</pdfrwt>
<totfact> 0.11189116E+06</totfact>
</mgrwt>
</event>
<event>
 4    1  0.3704929E-001  0.2567650E+02  0.7818608E-02  0.1651471E+00
          2   -1    0    0  501    0  0.00000000000E+00  0.00000000000E+00  0.32374393793E+01  0.32374404234E+01  0.26000000000E-02 0.  1.
         -2   -1    0    0    0  501 -0.00000000000E+00 -0.00000000000E+00 -0.50910786156E+02  0.50910786223E+02  0.26000000000E-02 0. -1.
        -13    1    1    2    0    0 -0.10242661481E+02  0.61979876901E+01 -0.14062306797E+02  0.18468535691E+02  0.10570000000E+00 0.  1.
         13    1    1    2    0    0  0.10242661481E+02 -0.61979876901E+01 -0.33611039980E+02  0.35679690955E+02  0.10570000000E+00 0. -1.
<mgrwt>
<rscale>  0 0.25676496E+02</rscale>
<asrwt>0</asrwt>
<pdfrwt beam="1">  1        2 0.49806772E-03 0.25676496E+02</pdfrwt>
<pdfrwt beam="2">  1       -2 0.78324282E-02 0.25676496E+02</pdfrwt>
<totfact> 0.19379920E+06</totfact>
</mgrwt>
</event>
<event>
 4    1  0.3704929E-001  0.2750782E+02  0.7818608E-02  0.1627392E+00
          2   -1    0    0  501    0  0.00000000000E+00  0.00000000000E+00  0.10750443364E+03  0.10750443367E+03  0.26000000000E-02 0. -1.
         -2   -1    0    0    0  501 -0.00000000000E+00 -0.00000000000E+00 -0.17596483779E+01  0.17596502987E+01  0.26000000000E-02 0.  1.
        -13    1    1    2    0    0  0.63292462153E+01 -0.12069342331E+02  0.45515348915E+02  0.47511962087E+02  0.10570000000E+00 0. -1.
         13    1    1    2    0    0 -0.63292462153E+01  0.12069342331E+02  0.60229436343E+02  0.61752121880E+02  0.10570000000E+00 0.  1.
<mgrwt>
<rscale>  0 0.27507825E+02</rscale>
<asrwt>0</asrwt>
<pdfrwt beam="1">  1        2 0.16539145E-01 0.27507825E+02</pdfrwt>
<pdfrwt beam="2">  1       -2 0.27071526E-03 0.27507825E+02</pdfrwt>
<totfact> 0.26055221E+06</totfact>
</mgrwt>
</event>
<event>
 4    1  0.3704929E-001  0.2490615E+02  0.7818608E-02  0.1662354E+00
         -2   -1    0    0    0  501 -0.00000000000E+00  0.00000000000E+00  0.19687851954E+01  0.19687869122E+01  0.26000000000E-02 0. -1.
          2   -1    0    0  501    0  0.00000000000E+00 -0.00000000000E+00 -0.78768879884E+02  0.78768879927E+02  0.26000000000E-02 0.  1.
        -13    1    1    2    0    0  0.12324013212E+02  0.13864607619E+01 -0.42045063688E+02  0.43836082491E+02  0.10570000000E+00 0.  1.
         13    1    1    2    0    0 -0.12324013212E+02 -0.13864607619E+01 -0.34755031000E+02  0.36901584348E+02  0.10570000000E+00 0. -1.
<mgrwt>
<rscale>  0 0.24906150E+02</rscale>
<asrwt>0</asrwt>
<pdfrwt beam="2">  1        2 0.12118287E-01 0.24906150E+02</pdfrwt>
<pdfrwt beam="1">  1       -2 0.30289023E-03 0.24906150E+02</pdfrwt>
<totfact> 0.30560820E+06</totfact>
</mgrwt>
</event>
<event>
 4    1  0.3704929E-001  0.3505622E+02  0.7818608E-02  0.1548102E+00
          2   -1    0    0  501    0  0.00000000000E+00  0.00000000000E+00  0.29171652296E+02  0.29171652412E+02  0.26000000000E-02 0.  1.
         -2   -1    0    0    0  501 -0.00000000000E+00 -0.00000000000E+00 -0.10531956721E+02  0.10531957042E+02  0.26000000000E-02 0. -1.
        -13    1    1    2    0    0  0.16150139212E+02  0.27823932519E+01  0.16361363188E+02  0.23157592419E+02  0.10570000000E+00 0.  1.
         13    1    1    2    0    0 -0.16150139212E+02 -0.27823932519E+01  0.22783323870E+01  0.16546017035E+02  0.10570000000E+00 0. -1.
<mgrwt>
<rscale>  0 0.35056217E+02</rscale>
<asrwt>0</asrwt>
<pdfrwt beam="1">  1        2 0.44879466E-02 0.35056217E+02</pdfrwt>
<pdfrwt beam="2">  1       -2 0.16203011E-02 0.35056217E+02</pdfrwt>
<totfact> 0.11526883E+06</totfact>
</mgrwt>
</event>
<event>
 4    1  0.3704929E-001  0.5799513E+02  0.7818608E-02  0.1406443E+00
         -2   -1    0    0    0  501 -0.00000000000E+00  0.00000000000E+00  0.25019834444E+01  0.25019847954E+01  0.26000000000E-02 0. -1.
          2   -1    0    0  501    0  0.00000000000E+00 -0.00000000000E+00 -0.33607683377E+03  0.33607683378E+03  0.26000000000E-02 0.  1.
        -13    1    1    2    0    0  0.22711506728E+02 -0.18006969043E+02 -0.16161733301E+03  0.16419572764E+03  0.10570000000E+00 0. -1.
         13    1    1    2    0    0 -0.22711506728E+02  0.18006969043E+02 -0.17195751732E+03  0.17438309094E+03  0.10570000000E+00 0.  1.
<mgrwt>
<rscale>  0 0.57995134E+02</rscale>
<asrwt>0</asrwt>
<pdfrwt beam="2">  1        2 0.51704093E-01 0.57995134E+02</pdfrwt>
<pdfrwt beam="1">  1       -2 0.38492090E-03 0.57995134E+02</pdfrwt>
<totfact> 0.60659406E+05</totfact>
</mgrwt>
</event>
<event>
 4    1  0.3704929E-001  0.3311913E+02  0.7818608E-02  0.1565967E+00
         -2   -1    0    0    0  501 -0.00000000000E+00  0.00000000000E+00  0.48118512009E+02  0.48118512080E+02  0.26000000000E-02 0.  1.
          2   -1    0    0  501    0  0.00000000000E+00 -0.00000000000E+00 -0.56988295654E+01  0.56988301585E+01  0.26000000000E-02 0. -1.
        -13    1    1    2    0    0 -0.12831810442E+02 -0.69704440947E+01  0.33897623367E+02  0.36909382175E+02  0.10570000000E+00 0.  1.
         13    1    1    2    0    0  0.12831810442E+02  0.69704440947E+01  0.85220590771E+01  0.16907960063E+02  0.10570000000E+00 0. -1.
<mgrwt>
<rscale>  0 0.33119131E+02</rscale>
<asrwt>0</asrwt>
<pdfrwt beam="2">  1        2 0.87674303E-03 0.33119131E+02</pdfrwt>
<pdfrwt beam="1">  1       -2 0.74028483E-02 0.33119131E+02</pdfrwt>
<totfact> 0.10883727E+06</totfact>
</mgrwt>
</event>
<event>
 4    1  0.3704929E-001  0.7614446E+02  0.7818608E-02  0.1340363E+00
         -2   -1    0    0    0  501 -0.00000000000E+00  0.00000000000E+00  0.56188718679E+02  0.56188718739E+02  0.26000000000E-02 0. -1.
          2   -1    0    0  501    0  0.00000000000E+00 -0.00000000000E+00 -0.25796896985E+02  0.25796897116E+02  0.26000000000E-02 0.  1.
        -13    1    1    2    0    0  0.14921661377E+02 -0.23463661864E+02 -0.12804469401E+02  0.30613151021E+02  0.10570000000E+00 0.  1.
         13    1    1    2    0    0 -0.14921661377E+02  0.23463661864E+02  0.43196291095E+02  0.51372464834E+02  0.10570000000E+00 0. -1.
<mgrwt>
<rscale>  0 0.76144457E+02</rscale>
<asrwt>0</asrwt>
<pdfrwt beam="2">  1        2 0.39687534E-02 0.76144457E+02</pdfrwt>
<pdfrwt beam="1">  1       -2 0.86444183E-02 0.76144457E+02</pdfrwt>
<totfact> 0.14425916E+05</totfact>
</mgrwt>
</event>
<event>
 4    1  0.3704929E-001  0.5250091E+02  0.7818608E-02  0.1432301E+00
          2   -1    0    0  501    0  0.00000000000E+00  0.00000000000E+00  0.57671038460E+02  0.57671038519E+02  0.26000000000E-02 0.  1.
         -2   -1    0    0    0  501 -0.00000000000E+00 -0.00000000000E+00 -0.11948569328E+02  0.11948569611E+02  0.26000000000E-02 0. -1.
        -13    1    1    2    0    0  0.17478215573E+02 -0.41530251435E+01  0.48242114266E+02  0.51478620793E+02  0.10570000000E+00 0.  1.
         13    1    1    2    0    0 -0.17478215573E+02  0.41530251435E+01 -0.25196451333E+01  0.18140987336E+02  0.10570000000E+00 0. -1.
<mgrwt>
<rscale>  0 0.52500911E+02</rscale>
<asrwt>0</asrwt>
<pdfrwt beam="1">  1        2 0.88724674E-02 0.52500911E+02</pdfrwt>
<pdfrwt beam="2">  1       -2 0.18382415E-02 0.52500911E+02</pdfrwt>
<totfact> 0.46530243E+05</totfact>
</mgrwt>
</event>
<event>
 4    1  0.3704929E-001  0.2383292E+02  0.7818608E-02  0.1678354E+00
         -2   -1    0    0    0  501 -0.00000000000E+00  0.00000000000E+00  0.10553212352E+02  0.10553212672E+02  0.26000000000E-02 0. -1.
          2   -1    0    0  501    0  0.00000000000E+00 -0.00000000000E+00 -0.13455810074E+02  0.13455810325E+02  0.26000000000E-02 0.  1.
        -13    1    1    2    0    0 -0.48201435189E+01 -0.10754811055E+02 -0.32224455171E+01  0.12218636257E+02  0.10570000000E+00 0. -1.
         13    1    1    2    0    0  0.48201435189E+01  0.10754811055E+02  0.31984779540E+00  0.11790386740E+02  0.10570000000E+00 0.  1.
<mgrwt>
<rscale>  0 0.23832921E+02</rscale>
<asrwt>0</asrwt>
<pdfrwt beam="2">  1        2 0.20701247E-02 0.23832921E+02</pdfrwt>
<pdfrwt beam="1">  1       -2 0.16235712E-02 0.23832921E+02</pdfrwt>
<totfact> 0.26907740E+06</totfact>
</mgrwt>
</event>
<event>
 4    1  0.3704929E-001  0.1459615E+03  0.7818608E-02  0.1205525E+00
         -2   -1    0    0    0  501 -0.00000000000E+00  0.00000000000E+00  0.37666638682E+02  0.37666638772E+02  0.26000000000E-02 0.  1.
          2   -1    0    0  501    0  0.00000000000E+00 -0.00000000000E+00 -0.14140336891E+03  0.14140336894E+03  0.26000000000E-02 0. -1.
        -13    1    1    2    0    0  0.52365753547E+02 -0.15269056888E+02  0.76153563501E+01  0.55075594119E+02  0.10570000000E+00 0.  1.
         13    1    1    2    0    0 -0.52365753547E+02  0.15269056888E+02 -0.11135208658E+03  0.12399441359E+03  0.10570000000E+00 0. -1.
<mgrwt>
<rscale>  0 0.14596150E+03</rscale>
<asrwt>0</asrwt>
<pdfrwt beam="2">  1        2 0.21754364E-01 0.14596150E+03</pdfrwt>
<pdfrwt beam="1">  1       -2 0.57948676E-02 0.14596150E+03</pdfrwt>
<totfact> 0.36440146E+04</totfact>
</mgrwt>
</event>
<event>
 4    1  0.3704929E-001  0.3566666E+02  0.7818608E-02  0.1542759E+00
          2   -1    0    0  501    0  0.00000000000E+00  0.00000000000E+00  0.18951500429E+03  0.18951500431E+03  0.26000000000E-02 0.  1.
         -2   -1    0    0    0  501 -0.00000000000E+00 -0.00000000000E+00 -0.16781121652E+01  0.16781141794E+01  0.26000000000E-02 0. -1.
        -13    1    1    2    0    0 -0.66412484573E+01 -0.16474921021E+02  0.10237259218E+03  0.10390230030E+03  0.10570000000E+00 0.  1.
         13    1    1    2    0    0  0.66412484573E+01  0.16474921021E+02  0.85464299943E+02  0.87290818194E+02  0.10570000000E+00 0. -1.
<mgrwt>
<rscale>  0 0.35666658E+02</rscale>
<asrwt>0</asrwt>
<pdfrwt beam="1">  1        2 0.29156136E-01 0.35666658E+02</pdfrwt>
<pdfrwt beam="2">  1       -2 0.25817142E-03 0.35666658E+02</pdfrwt>
<totfact> 0.16557606E+06</totfact>
</mgrwt>
</event>
<event>
 4    1  0.3704929E-001  0.3840813E+02  0.7818608E-02  0.1520264E+00
         -2   -1    0    0    0  501 -0.00000000000E+00  0.00000000000E+00  0.20864737362E+01  0.20864753561E+01  0.26000000000E-02 0.  1.
          2   -1    0    0  501    0  0.00000000000E+00 -0.00000000000E+00 -0.17675565138E+03  0.17675565140E+03  0.26000000000E-02 0. -1.
        -13    1    1    2    0    0  0.59015041806E+01 -0.18274476869E+02 -0.87461424838E+02  0.89544939911E+02  0.10570000000E+00 0. -1.
         13    1    1    2    0    0 -0.59015041806E+01  0.18274476869E+02 -0.87207752802E+02  0.89297186841E+02  0.10570000000E+00 0.  1.
<mgrwt>
<rscale>  0 0.38408133E+02</rscale>
<asrwt>0</asrwt>
<pdfrwt beam="2">  1        2 0.27193166E-01 0.38408133E+02</pdfrwt>
<pdfrwt beam="1">  1       -2 0.32099622E-03 0.38408133E+02</pdfrwt>
<totfact> 0.13549920E+06</totfact>
</mgrwt>
</event>
<event>
 4    1  0.3704929E-001  0.3096544E+02  0.7818608E-02  0.1587656E+00
         -2   -1    0    0    0  501 -0.00000000000E+00  0.00000000000E+00  0.57077673602E+02  0.57077673661E+02  0.26000000000E-02 0.  1.
          2   -1    0    0  501    0  0.00000000000E+00 -0.00000000000E+00 -0.41997968456E+01  0.41997976504E+01  0.26000000000E-02 0. -1.
        -13    1    1    2    0    0 -0.75866379744E+01 -0.84905680058E+01  0.56787294474E+01  0.12724227342E+02  0.10570000000E+00 0. -1.
         13    1    1    2    0    0  0.75866379744E+01  0.84905680058E+01  0.47199147309E+02  0.48553243970E+02  0.10570000000E+00 0.  1.
<mgrwt>
<rscale>  0 0.30965443E+02</rscale>
<asrwt>0</asrwt>
<pdfrwt beam="2">  1        2 0.64612268E-03 0.30965443E+02</pdfrwt>
<pdfrwt beam="1">  1       -2 0.87811804E-02 0.30965443E+02</pdfrwt>
<totfact> 0.12391851E+06</totfact>
</mgrwt>
</event>
<event>
 4    1  0.3704929E-001  0.4495339E+02  0.7818608E-02  0.1474633E+00
          2   -1    0    0  501    0  0.00000000000E+00  0.00000000000E+00  0.72759045769E+01  0.72759050415E+01  0.26000000000E-02 0. -1.
         -2   -1    0    0    0  501 -0.00000000000E+00 -0.00000000000E+00 -0.69434927024E+02  0.69434927073E+02  0.26000000000E-02 0.  1.
        -13    1    1    2    0    0 -0.54255789448E+01 -0.18708090485E+02 -0.11942790159E+02  0.22848872308E+02  0.10570000000E+00 0. -1.
         13    1    1    2    0    0  0.54255789448E+01  0.18708090485E+02 -0.50216232289E+02  0.53861959807E+02  0.10570000000E+00 0.  1.
<mgrwt>
<rscale>  0 0.44953395E+02</rscale>
<asrwt>0</asrwt>
<pdfrwt beam="1">  1        2 0.11193700E-02 0.44953395E+02</pdfrwt>
<pdfrwt beam="2">  1       -2 0.10682296E-01 0.44953395E+02</pdfrwt>
<totfact> 0.49557099E+05</totfact>
</mgrwt>
</event>
<event>
 4    1  0.3704929E-001  0.5453121E+02  0.7818608E-02  0.1422329E+00
          2   -1    0    0  501    0  0.00000000000E+00  0.00000000000E+00  0.10826753135E+03  0.10826753138E+03  0.26000000000E-02 0. -1.
         -2   -1    0    0    0  501 -0.00000000000E+00 -0.00000000000E+00 -0.68664457757E+01  0.68664462680E+01  0.26000000000E-02 0.  1.
        -13    1    1    2    0    0  0.86863424899E+01  0.24886922706E+02  0.35983038263E+02  0.44604951326E+02  0.10570000000E+00 0. -1.
         13    1    1    2    0    0 -0.86863424899E+01 -0.24886922706E+02  0.65418047307E+02  0.70529026319E+02  0.10570000000E+00 0.  1.
<mgrwt>
<rscale>  0 0.54531208E+02</rscale>
<asrwt>0</asrwt>
<pdfrwt beam="1">  1        2 0.16656543E-01 0.54531208E+02</pdfrwt>
<pdfrwt beam="2">  1       -2 0.10563763E-02 0.54531208E+02</pdfrwt>
<totfact> 0.49037841E+05</totfact>
</mgrwt>
</event>
<event>
 4    1  0.3704929E-001  0.2847712E+02  0.7818608E-02  0.1615559E+00
          2   -1    0    0  501    0  0.00000000000E+00  0.00000000000E+00  0.42104195711E+02  0.42104195792E+02  0.26000000000E-02 0.  1.
         -2   -1    0    0    0  501 -0.00000000000E+00 -0.00000000000E+00 -0.48151162477E+01  0.48151169497E+01  0.26000000000E-02 0. -1.
        -13    1    1    2    0    0 -0.10383940962E+02 -0.30846113611E+01  0.33869100763E+02  0.35559361863E+02  0.10570000000E+00 0.  1.
         13    1    1    2    0    0  0.10383940962E+02  0.30846113611E+01  0.34199787006E+01  0.11359950878E+02  0.10570000000E+00 0. -1.
<mgrwt>
<rscale>  0 0.28477122E+02</rscale>
<asrwt>0</asrwt>
<pdfrwt beam="1">  1        2 0.64775689E-02 0.28477122E+02</pdfrwt>
<pdfrwt beam="2">  1       -2 0.74078714E-03 0.28477122E+02</pdfrwt>
<totfact> 0.20037211E+06</totfact>
</mgrwt>
</event>
<event>
 4    1  0.3704929E-001  0.4229070E+02  0.7818608E-02  0.1492001E+00
          2   -1    0    0  501    0  0.00000000000E+00  0.00000000000E+00  0.13723548472E+03  0.13723548475E+03  0.26000000000E-02 0.  1.
         -2   -1    0    0    0  501 -0.00000000000E+00 -0.00000000000E+00 -0.32580917010E+01  0.32580927385E+01  0.26000000000E-02 0. -1.
        -13    1    1    2    0    0 -0.12942467623E+02 -0.13520660172E+02  0.99673581387E+02  0.10141572718E+03  0.10570000000E+00 0.  1.
         13    1    1    2    0    0  0.12942467623E+02  0.13520660172E+02  0.34303811636E+02  0.39077850311E+02  0.10570000000E+00 0. -1.
<mgrwt>
<rscale>  0 0.42290702E+02</rscale>
<asrwt>0</asrwt>
<pdfrwt beam="1">  1        2 0.21113154E-01 0.42290702E+02</pdfrwt>
<pdfrwt beam="2">  1       -2 0.50124490E-03 0.42290702E+02</pdfrwt>
<totfact> 0.99240068E+05</totfact>
</mgrwt>
</event>
<event>
 4    1  0.3704929E-001  0.2310852E+02  0.7818608E-02  0.1689757E+00
         -2   -1    0    0    0  501 -0.00000000000E+00  0.00000000000E+00  0.64454177827E+02  0.64454177880E+02  0.26000000000E-02 0.  1.
          2   -1    0    0  501    0  0.00000000000E+00 -0.00000000000E+00 -0.20712517951E+01  0.20712534270E+01  0.26000000000E-02 0. -1.
        -13    1    1    2    0    0 -0.74384214102E+01 -0.74149941154E+01  0.17331930340E+02  0.20266209133E+02  0.10570000000E+00 0. -1.
         13    1    1    2    0    0  0.74384214102E+01  0.74149941154E+01  0.45050995692E+02  0.46259222174E+02  0.10570000000E+00 0.  1.
<mgrwt>
<rscale>  0 0.23108517E+02</rscale>
<asrwt>0</asrwt>
<pdfrwt beam="2">  1        2 0.31865424E-03 0.23108517E+02</pdfrwt>
<pdfrwt beam="1">  1       -2 0.99160279E-02 0.23108517E+02</pdfrwt>
<totfact> 0.23658537E+06</totfact>
</mgrwt>
</event>
<event>
 4    1  0.3704929E-001  0.2271539E+02  0.7818608E-02  0.1696165E+00
         -2   -1    0    0    0  501 -0.00000000000E+00  0.00000000000E+00  0.20366022960E+01  0.20366039556E+01  0.26000000000E-02 0. -1.
          2   -1    0    0  501    0  0.00000000000E+00 -0.00000000000E+00 -0.63339421974E+02  0.63339422027E+02  0.26000000000E-02 0.  1.
        -13    1    1    2    0    0  0.19583478280E+01  0.10187646317E+02 -0.43953738636E+02  0.45161549755E+02  0.10570000000E+00 0.  1.
         13    1    1    2    0    0 -0.19583478280E+01 -0.10187646317E+02 -0.17349081042E+02  0.20214476228E+02  0.10570000000E+00 0. -1.
<mgrwt>
<rscale>  0 0.22715393E+02</rscale>
<asrwt>0</asrwt>
<pdfrwt beam="2">  1        2 0.97445251E-02 0.22715393E+02</pdfrwt>
<pdfrwt beam="1">  1       -2 0.31332361E-03 0.22715393E+02</pdfrwt>
<totfact> 0.36168090E+06</totfact>
</mgrwt>
</event>
<event>
 4    1  0.3704929E-001  0.3886113E+02  0.7818608E-02  0.1516764E+00
          2   -1    0    0  501    0  0.00000000000E+00  0.00000000000E+00  0.14047418268E+03  0.14047418271E+03  0.26000000000E-02 0. -1.
         -2   -1    0    0    0  501 -0.00000000000E+00 -0.00000000000E+00 -0.26876595830E+01  0.26876608406E+01  0.26000000000E-02 0.  1.
        -13    1    1    2    0    0  0.16918470839E+02 -0.54380397614E+01  0.97837068993E+02  0.99437971488E+02  0.10570000000E+00 0. -1.
         13    1    1    2    0    0 -0.16918470839E+02  0.54380397614E+01  0.39949454105E+02  0.43723872058E+02  0.10570000000E+00 0.  1.
<mgrwt>
<rscale>  0 0.38861131E+02</rscale>
<asrwt>0</asrwt>
<pdfrwt beam="1">  1        2 0.21611412E-01 0.38861131E+02</pdfrwt>
<pdfrwt beam="2">  1       -2 0.41348621E-03 0.38861131E+02</pdfrwt>
<totfact> 0.12290843E+06</totfact>
</mgrwt>
</event>
<event>
 4    1  0.3704929E-001  0.2116883E+02  0.7818608E-02  0.1723036E+00
          2   -1    0    0  501    0  0.00000000000E+00  0.00000000000E+00  0.32659033215E+02  0.32659033318E+02  0.26000000000E-02 0.  1.
         -2   -1    0    0    0  501 -0.00000000000E+00 -0.00000000000E+00 -0.34302864117E+01  0.34302873970E+01  0.26000000000E-02 0. -1.
        -13    1    1    2    0    0 -0.64315791196E+01  0.84055466375E+01  0.14586843341E+02  0.18022363757E+02  0.10570000000E+00 0. -1.
         13    1    1    2    0    0  0.64315791196E+01 -0.84055466375E+01  0.14641903462E+02  0.18066956958E+02  0.10570000000E+00 0.  1.
<mgrwt>
<rscale>  0 0.21168832E+02</rscale>
<asrwt>0</asrwt>
<pdfrwt beam="1">  1        2 0.50244666E-02 0.21168832E+02</pdfrwt>
<pdfrwt beam="2">  1       -2 0.52773646E-03 0.21168832E+02</pdfrwt>
<totfact> 0.38529852E+06</totfact>
</mgrwt>
</event>
<event>
 4    1  0.3704929E-001  0.2744112E+02  0.7818608E-02  0.1628228E+00
         -2   -1    0    0    0  501 -0.00000000000E+00  0.00000000000E+00  0.39560854481E+01  0.39560863025E+01  0.26000000000E-02 0.  1.
          2   -1    0    0  501    0  0.00000000000E+00 -0.00000000000E+00 -0.47585846883E+02  0.47585846954E+02  0.26000000000E-02 0. -1.
        -13    1    1    2    0    0  0.12342626331E+02  0.31754833653E+01 -0.31358732391E+02  0.33849747252E+02  0.10570000000E+00 0. -1.
         13    1    1    2    0    0 -0.12342626331E+02 -0.31754833653E+01 -0.12271029044E+02  0.17692186004E+02  0.10570000000E+00 0.  1.
<mgrwt>
<rscale>  0 0.27441115E+02</rscale>
<asrwt>0</asrwt>
<pdfrwt beam="2">  1        2 0.73208992E-02 0.27441115E+02</pdfrwt>
<pdfrwt beam="1">  1       -2 0.60862863E-03 0.27441115E+02</pdfrwt>
<totfact> 0.22276511E+06</totfact>
</mgrwt>
</event>
<event>
 4    1  0.3704929E-001  0.2409796E+02  0.7818608E-02  0.1674307E+00
          2   -1    0    0  501    0  0.00000000000E+00  0.00000000000E+00  0.12719018884E+02  0.12719019149E+02  0.26000000000E-02 0.  1.
         -2   -1    0    0    0  501 -0.00000000000E+00 -0.00000000000E+00 -0.11414233860E+02  0.11414234156E+02  0.26000000000E-02 0. -1.
        -13    1    1    2    0    0  0.82098637841E+01 -0.86467366877E+01 -0.10818401895E+01  0.11972863876E+02  0.10570000000E+00 0. -1.
         13    1    1    2    0    0 -0.82098637841E+01  0.86467366877E+01  0.23866252128E+01  0.12160389430E+02  0.10570000000E+00 0.  1.
<mgrwt>
<rscale>  0 0.24097955E+02</rscale>
<asrwt>0</asrwt>
<pdfrwt beam="1">  1        2 0.19567722E-02 0.24097955E+02</pdfrwt>
<pdfrwt beam="2">  1       -2 0.17560360E-02 0.24097955E+02</pdfrwt>
<totfact> 0.26090921E+06</totfact>
</mgrwt>
</event>
<event>
 4    1  0.3704929E-001  0.3683833E+02  0.7818608E-02  0.1532856E+00
          2   -1    0    0  501    0  0.00000000000E+00  0.00000000000E+00  0.15438084022E+02  0.15438084241E+02  0.26000000000E-02 0.  1.
         -2   -1    0    0    0  501 -0.00000000000E+00 -0.00000000000E+00 -0.21975895287E+02  0.21975895441E+02  0.26000000000E-02 0. -1.
        -13    1    1    2    0    0  0.83089737546E+01  0.14789164496E+02 -0.10557120634E+02  0.19980550541E+02  0.10570000000E+00 0. -1.
         13    1    1    2    0    0 -0.83089737546E+01 -0.14789164496E+02  0.40193093694E+01  0.17433429142E+02  0.10570000000E+00 0.  1.
<mgrwt>
<rscale>  0 0.36838335E+02</rscale>
<asrwt>0</asrwt>
<pdfrwt beam="1">  1        2 0.23750899E-02 0.36838335E+02</pdfrwt>
<pdfrwt beam="2">  1       -2 0.33809070E-02 0.36838335E+02</pdfrwt>
<totfact> 0.94126609E+05</totfact>
</mgrwt>
</event>
<event>
 4    1  0.3704929E-001  0.3711091E+02  0.7818608E-02  0.1530616E+00
          2   -1    0    0  501    0  0.00000000000E+00  0.00000000000E+00  0.38419979498E+01  0.38419988296E+01  0.26000000000E-02 0. -1.
         -2   -1    0    0    0  501 -0.00000000000E+00 -0.00000000000E+00 -0.89616082881E+02  0.89616082918E+02  0.26000000000E-02 0.  1.
        -13    1    1    2    0    0  0.15561475151E+02 -0.96704737982E+01 -0.35494892285E+02  0.39944663262E+02  0.10570000000E+00 0. -1.
         13    1    1    2    0    0 -0.15561475151E+02  0.96704737982E+01 -0.50279192646E+02  0.53513418485E+02  0.10570000000E+00 0.  1.
<mgrwt>
<rscale>  0 0.37110907E+02</rscale>
<asrwt>0</asrwt>
<pdfrwt beam="1">  1        2 0.59107674E-03 0.37110907E+02</pdfrwt>
<pdfrwt beam="2">  1       -2 0.13787088E-01 0.37110907E+02</pdfrwt>
<totfact> 0.74283355E+05</totfact>
</mgrwt>
</event>
<event>
 4    1  0.3704929E-001  0.3095837E+02  0.7818608E-02  0.1587730E+00
          2   -1    0    0  501    0  0.00000000000E+00  0.00000000000E+00  0.40196731101E+01  0.40196739509E+01  0.26000000000E-02 0.  1.
         -2   -1    0    0    0  501 -0.00000000000E+00 -0.00000000000E+00 -0.59608121741E+02  0.59608121798E+02  0.26000000000E-02 0. -1.
        -13    1    1    2    0    0  0.12944555585E+02 -0.58214326980E+01 -0.15100805861E+02  0.20724287879E+02  0.10570000000E+00 0.  1.
         13    1    1    2    0    0 -0.12944555585E+02  0.58214326980E+01 -0.40487642770E+02  0.42903507870E+02  0.10570000000E+00 0. -1.
<mgrwt>
<rscale>  0 0.30958372E+02</rscale>
<asrwt>0</asrwt>
<pdfrwt beam="1">  1        2 0.61841136E-03 0.30958372E+02</pdfrwt>
<pdfrwt beam="2">  1       -2 0.91704797E-02 0.30958372E+02</pdfrwt>
<totfact> 0.12309717E+06</totfact>
</mgrwt>
</event>
<event>
 4    1  0.3704929E-001  0.2110321E+02  0.7818608E-02  0.1724240E+00
          2   -1    0    0  501    0  0.00000000000E+00  0.00000000000E+00  0.77990973303E+02  0.77990973346E+02  0.26000000000E-02 0. -1.
         -2   -1    0    0    0  501 -0.00000000000E+00 -0.00000000000E+00 -0.14275527482E+01  0.14275551159E+01  0.26000000000E-02 0.  1.
        -13    1    1    2    0    0  0.88294160389E+01 -0.51900938834E+01  0.28739221807E+02  0.30509829640E+02  0.10570000000E+00 0.  1.
         13    1    1    2    0    0 -0.88294160389E+01  0.51900938834E+01  0.47824198748E+02  0.48908698822E+02  0.10570000000E+00 0. -1.
<mgrwt>
<rscale>  0 0.21103206E+02</rscale>
<asrwt>0</asrwt>
<pdfrwt beam="1">  1        2 0.11998615E-01 0.21103206E+02</pdfrwt>
<pdfrwt beam="2">  1       -2 0.21962361E-03 0.21103206E+02</pdfrwt>
<totfact> 0.44409391E+06</totfact>
</mgrwt>
</event>
<event>
 4    1  0.3704929E-001  0.2710280E+02  0.7818608E-02  0.1632515E+00
          2   -1    0    0  501    0  0.00000000000E+00  0.00000000000E+00  0.25888599775E+01  0.25888612831E+01  0.26000000000E-02 0.  1.
         -2   -1    0    0    0  501 -0.00000000000E+00 -0.00000000000E+00 -0.70934839066E+02  0.70934839114E+02  0.26000000000E-02 0. -1.
        -13    1    1    2    0    0 -0.12001277669E+02  0.44844381144E+01 -0.22197280569E+02  0.25629500347E+02  0.10570000000E+00 0.  1.
         13    1    1    2    0    0  0.12001277669E+02 -0.44844381144E+01 -0.46148698520E+02  0.47894200051E+02  0.10570000000E+00 0. -1.
<mgrwt>
<rscale>  0 0.27102798E+02</rscale>
<asrwt>0</asrwt>
<pdfrwt beam="1">  1        2 0.39828631E-03 0.27102798E+02</pdfrwt>
<pdfrwt beam="2">  1       -2 0.10913051E-01 0.27102798E+02</pdfrwt>
<totfact> 0.16215260E+06</totfact>
</mgrwt>
</event>
<event>
 4    1  0.3704929E-001  0.2448817E+02  0.7818608E-02  0.1668464E+00
         -2   -1    0    0    0  501 -0.00000000000E+00  0.00000000000E+00  0.33228392217E+01  0.33228402389E+01  0.26000000000E-02 0.  1.
          2   -1    0    0  501    0  0.00000000000E+00 -0.00000000000E+00 -0.45117319678E+02  0.45117319753E+02  0.26000000000E-02 0. -1.
        -13    1    1    2    0    0  0.20951165477E+01 -0.11818621970E+02 -0.16118115768E+02  0.20096620786E+02  0.10570000000E+00 0. -1.
         13    1    1    2    0    0 -0.20951165477E+01  0.11818621970E+02 -0.25676364689E+02  0.28343539206E+02  0.10570000000E+00 0.  1.
<mgrwt>
<rscale>  0 0.24488171E+02</rscale>
<asrwt>0</asrwt>
<pdfrwt beam="2">  1        2 0.69411257E-02 0.24488171E+02</pdfrwt>
<pdfrwt beam="1">  1       -2 0.51120615E-03 0.24488171E+02</pdfrwt>
<totfact> 0.28816306E+06</totfact>
</mgrwt>
</event>
<event>
 4    1  0.3704929E-001  0.2558448E+02  0.7818608E-02  0.1652746E+00
         -2   -1    0    0    0  501 -0.00000000000E+00  0.00000000000E+00  0.43270563353E+01  0.43270571164E+01  0.26000000000E-02 0.  1.
          2   -1    0    0  501    0  0.00000000000E+00 -0.00000000000E+00 -0.37818189659E+02  0.37818189749E+02  0.26000000000E-02 0. -1.
        -13    1    1    2    0    0  0.56554828785E+01 -0.10686134061E+02 -0.98638194918E+01  0.15603975622E+02  0.10570000000E+00 0.  1.
         13    1    1    2    0    0 -0.56554828785E+01  0.10686134061E+02 -0.23627313832E+02  0.26541271243E+02  0.10570000000E+00 0. -1.
<mgrwt>
<rscale>  0 0.25584484E+02</rscale>
<asrwt>0</asrwt>
<pdfrwt beam="2">  1        2 0.58181829E-02 0.25584484E+02</pdfrwt>
<pdfrwt beam="1">  1       -2 0.66570107E-03 0.25584484E+02</pdfrwt>
<totfact> 0.25390455E+06</totfact>
</mgrwt>
</event>
<event>
 4    1  0.3704929E-001  0.2256926E+02  0.7818608E-02  0.1698589E+00
         -2   -1    0    0    0  501 -0.00000000000E+00  0.00000000000E+00  0.63745815346E+02  0.63745815399E+02  0.26000000000E-02 0. -1.
          2   -1    0    0  501    0  0.00000000000E+00 -0.00000000000E+00 -0.19976647462E+01  0.19976664382E+01  0.26000000000E-02 0.  1.
        -13    1    1    2    0    0 -0.57817638498E+01 -0.81878480741E+01  0.45971562363E+02  0.47051730764E+02  0.10570000000E+00 0. -1.
         13    1    1    2    0    0  0.57817638498E+01  0.81878480741E+01  0.15776588236E+02  0.18691751073E+02  0.10570000000E+00 0.  1.
<mgrwt>
<rscale>  0 0.22569256E+02</rscale>
<asrwt>0</asrwt>
<pdfrwt beam="2">  1        2 0.30733325E-03 0.22569256E+02</pdfrwt>
<pdfrwt beam="1">  1       -2 0.98070461E-02 0.22569256E+02</pdfrwt>
<totfact> 0.24985996E+06</totfact>
</mgrwt>
</event>
<event>
 4    1  0.3704929E-001  0.9074653E+02  0.7818608E-02  0.1301054E+00
          2   -1    0    0  501    0  0.00000000000E+00  0.00000000000E+00  0.19757806565E+03  0.19757806567E+03  0.26000000000E-02 0. -1.
         -2   -1    0    0    0  501 -0.00000000000E+00 -0.00000000000E+00 -0.10419847163E+02  0.10419847488E+02  0.26000000000E-02 0.  1.
        -13    1    1    2    0    0 -0.12122100951E+02  0.39181472642E+02  0.13805890076E+03  0.14402223572E+03  0.10570000000E+00 0. -1.
         13    1    1    2    0    0  0.12122100951E+02 -0.39181472642E+02  0.49099317732E+02  0.63975677441E+02  0.10570000000E+00 0.  1.
<mgrwt>
<rscale>  0 0.90746532E+02</rscale>
<asrwt>0</asrwt>
<pdfrwt beam="1">  1        2 0.30396625E-01 0.90746532E+02</pdfrwt>
<pdfrwt beam="2">  1       -2 0.16030535E-02 0.90746532E+02</pdfrwt>
<totfact> 0.15597379E+05</totfact>
</mgrwt>
</event>
<event>
 4    1  0.3704929E-001  0.2795606E+02  0.7818608E-02  0.1621847E+00
         -2   -1    0    0    0  501 -0.00000000000E+00  0.00000000000E+00  0.40137044776E+01  0.40137053197E+01  0.26000000000E-02 0.  1.
          2   -1    0    0  501    0  0.00000000000E+00 -0.00000000000E+00 -0.48679552882E+02  0.48679552952E+02  0.26000000000E-02 0. -1.
        -13    1    1    2    0    0  0.11297105350E+02  0.37841498114E+01 -0.85554100123E+01  0.14668012546E+02  0.10570000000E+00 0.  1.
         13    1    1    2    0    0 -0.11297105350E+02 -0.37841498114E+01 -0.36110438392E+02  0.38025245725E+02  0.10570000000E+00 0. -1.
<mgrwt>
<rscale>  0 0.27956063E+02</rscale>
<asrwt>0</asrwt>
<pdfrwt beam="2">  1        2 0.74891616E-02 0.27956063E+02</pdfrwt>
<pdfrwt beam="1">  1       -2 0.61749310E-03 0.27956063E+02</pdfrwt>
<totfact> 0.21399130E+06</totfact>
</mgrwt>
</event>
<event>
 4    1  0.3704929E-001  0.2173364E+02  0.7818608E-02  0.1712900E+00
         -2   -1    0    0    0  501 -0.00000000000E+00  0.00000000000E+00  0.54884972185E+01  0.54884978343E+01  0.26000000000E-02 0. -1.
          2   -1    0    0  501    0  0.00000000000E+00 -0.00000000000E+00 -0.21515503808E+02  0.21515503965E+02  0.26000000000E-02 0.  1.
        -13    1    1    2    0    0 -0.68315157888E+01  0.82321758578E+01 -0.56435243373E+01  0.12095406846E+02  0.10570000000E+00 0.  1.
         13    1    1    2    0    0  0.68315157888E+01 -0.82321758578E+01 -0.10383482253E+02  0.14908594954E+02  0.10570000000E+00 0. -1.
<mgrwt>
<rscale>  0 0.21733642E+02</rscale>
<asrwt>0</asrwt>
<pdfrwt beam="2">  1        2 0.33100775E-02 0.21733642E+02</pdfrwt>
<pdfrwt beam="1">  1       -2 0.84438426E-03 0.21733642E+02</pdfrwt>
<totfact> 0.34732887E+06</totfact>
</mgrwt>
</event>
<event>
 4    1  0.3704929E-001  0.3165079E+02  0.7818608E-02  0.1580527E+00
         -2   -1    0    0    0  501 -0.00000000000E+00  0.00000000000E+00  0.29110088181E+02  0.29110088298E+02  0.26000000000E-02 0.  1.
          2   -1    0    0  501    0  0.00000000000E+00 -0.00000000000E+00 -0.86033109998E+01  0.86033113927E+01  0.26000000000E-02 0. -1.
        -13    1    1    2    0    0 -0.24136984332E+01 -0.11016593201E+02  0.23481206545E+02  0.26049366579E+02  0.10570000000E+00 0.  1.
         13    1    1    2    0    0  0.24136984332E+01  0.11016593201E+02 -0.29744293635E+01  0.11664033111E+02  0.10570000000E+00 0. -1.
<mgrwt>
<rscale>  0 0.31650792E+02</rscale>
<asrwt>0</asrwt>
<pdfrwt beam="2">  1        2 0.13235863E-02 0.31650792E+02</pdfrwt>
<pdfrwt beam="1">  1       -2 0.44784752E-02 0.31650792E+02</pdfrwt>
<totfact> 0.12910893E+06</totfact>
</mgrwt>
</event>
<event>
 4    1  0.3704929E-001  0.2082016E+02  0.7818608E-02  0.1729493E+00
          2   -1    0    0  501    0  0.00000000000E+00  0.00000000000E+00  0.40375760530E+02  0.40375760614E+02  0.26000000000E-02 0.  1.
         -2   -1    0    0    0  501 -0.00000000000E+00 -0.00000000000E+00 -0.26840289768E+01  0.26840302361E+01  0.26000000000E-02 0. -1.
        -13    1    1    2    0    0 -0.86306329381E+01  0.58168571002E+01  0.18459408513E+02  0.21191615950E+02  0.10570000000E+00 0.  1.
         13    1    1    2    0    0  0.86306329381E+01 -0.58168571002E+01  0.19232323040E+02  0.21868174900E+02  0.10570000000E+00 0. -1.
<mgrwt>
<rscale>  0 0.20820158E+02</rscale>
<asrwt>0</asrwt>
<pdfrwt beam="1">  1        2 0.62116553E-02 0.20820158E+02</pdfrwt>
<pdfrwt beam="2">  1       -2 0.41292765E-03 0.20820158E+02</pdfrwt>
<totfact> 0.41076085E+06</totfact>
</mgrwt>
</event>
<event>
 4    1  0.3704929E-001  0.4538187E+02  0.7818608E-02  0.1471972E+00
          2   -1    0    0  501    0  0.00000000000E+00  0.00000000000E+00  0.15404350442E+02  0.15404350662E+02  0.26000000000E-02 0.  1.
         -2   -1    0    0    0  501 -0.00000000000E+00 -0.00000000000E+00 -0.33424223908E+02  0.33424224009E+02  0.26000000000E-02 0. -1.
        -13    1    1    2    0    0 -0.18164906307E+02 -0.13378302123E+02 -0.63910439635E+01  0.23447801694E+02  0.10570000000E+00 0.  1.
         13    1    1    2    0    0  0.18164906307E+02  0.13378302123E+02 -0.11628829502E+02  0.25380772977E+02  0.10570000000E+00 0. -1.
<mgrwt>
<rscale>  0 0.45381867E+02</rscale>
<asrwt>0</asrwt>
<pdfrwt beam="1">  1        2 0.23699001E-02 0.45381867E+02</pdfrwt>
<pdfrwt beam="2">  1       -2 0.51421883E-02 0.45381867E+02</pdfrwt>
<totfact> 0.54758145E+05</totfact>
</mgrwt>
</event>
<event>
 4    1  0.3704929E-001  0.2345578E+02  0.7818608E-02  0.1684227E+00
          2   -1    0    0  501    0  0.00000000000E+00  0.00000000000E+00  0.16017719174E+02  0.16017719385E+02  0.26000000000E-02 0.  1.
         -2   -1    0    0    0  501 -0.00000000000E+00 -0.00000000000E+00 -0.85869495411E+01  0.85869499348E+01  0.26000000000E-02 0. -1.
        -13    1    1    2    0    0 -0.49350675511E+01  0.91878708083E+01 -0.19101599571E+01  0.10603383671E+02  0.10570000000E+00 0. -1.
         13    1    1    2    0    0  0.49350675511E+01 -0.91878708083E+01  0.93409295901E+01  0.14001285649E+02  0.10570000000E+00 0.  1.
<mgrwt>
<rscale>  0 0.23455776E+02</rscale>
<asrwt>0</asrwt>
<pdfrwt beam="1">  1        2 0.24642645E-02 0.23455776E+02</pdfrwt>
<pdfrwt beam="2">  1       -2 0.13210692E-02 0.23455776E+02</pdfrwt>
<totfact> 0.28355578E+06</totfact>
</mgrwt>
</event>
<event>
 4    1  0.3704929E-001  0.3299578E+02  0.7818608E-02  0.1567154E+00
         -2   -1    0    0    0  501 -0.00000000000E+00  0.00000000000E+00  0.57554255027E+01  0.57554260900E+01  0.26000000000E-02 0.  1.
          2   -1    0    0  501    0  0.00000000000E+00 -0.00000000000E+00 -0.47291085805E+02  0.47291085876E+02  0.26000000000E-02 0. -1.
        -13    1    1    2    0    0 -0.50371656981E+01  0.10751370912E+02 -0.23528078049E+01  0.12104209673E+02  0.10570000000E+00 0.  1.
         13    1    1    2    0    0  0.50371656981E+01 -0.10751370912E+02 -0.39182852497E+02  0.40942302293E+02  0.10570000000E+00 0. -1.
<mgrwt>
<rscale>  0 0.32995778E+02</rscale>
<asrwt>0</asrwt>
<pdfrwt beam="2">  1        2 0.72755515E-02 0.32995778E+02</pdfrwt>
<pdfrwt beam="1">  1       -2 0.88545016E-03 0.32995778E+02</pdfrwt>
<totfact> 0.14335714E+06</totfact>
</mgrwt>
</event>
<event>
 4    1  0.3704929E-001  0.2801521E+02  0.7818608E-02  0.1621124E+00
         -2   -1    0    0    0  501 -0.00000000000E+00  0.00000000000E+00  0.11608681588E+03  0.11608681591E+03  0.26000000000E-02 0. -1.
          2   -1    0    0  501    0  0.00000000000E+00 -0.00000000000E+00 -0.16902255056E+01  0.16902275053E+01  0.26000000000E-02 0.  1.
        -13    1    1    2    0    0 -0.13285505159E+02 -0.24902865378E+01  0.41754146828E+02  0.43887653437E+02  0.10570000000E+00 0.  1.
         13    1    1    2    0    0  0.13285505159E+02  0.24902865378E+01  0.72642443547E+02  0.73889389978E+02  0.10570000000E+00 0. -1.
<mgrwt>
<rscale>  0 0.28015211E+02</rscale>
<asrwt>0</asrwt>
<pdfrwt beam="2">  1        2 0.26003470E-03 0.28015211E+02</pdfrwt>
<pdfrwt beam="1">  1       -2 0.17859521E-01 0.28015211E+02</pdfrwt>
<totfact> 0.13445311E+06</totfact>
</mgrwt>
</event>
<event>
 4    1  0.3704929E-001  0.3601361E+02  0.7818608E-02  0.1539779E+00
          2   -1    0    0  501    0  0.00000000000E+00  0.00000000000E+00  0.51241683054E+02  0.51241683120E+02  0.26000000000E-02 0.  1.
         -2   -1    0    0    0  501 -0.00000000000E+00 -0.00000000000E+00 -0.63277602404E+01  0.63277607746E+01  0.26000000000E-02 0. -1.
        -13    1    1    2    0    0 -0.15791544332E+02 -0.86480726391E+01  0.22885588749E+02  0.29119123916E+02  0.10570000000E+00 0. -1.
         13    1    1    2    0    0  0.15791544332E+02  0.86480726391E+01  0.22028334065E+02  0.28450319979E+02  0.10570000000E+00 0.  1.
<mgrwt>
<rscale>  0 0.36013614E+02</rscale>
<asrwt>0</asrwt>
<pdfrwt beam="1">  1        2 0.78833358E-02 0.36013614E+02</pdfrwt>
<pdfrwt beam="2">  1       -2 0.97350163E-03 0.36013614E+02</pdfrwt>
<totfact> 0.11743180E+06</totfact>
</mgrwt>
</event>
<event>
 4    1  0.3704929E-001  0.5037222E+02  0.7818608E-02  0.1443344E+00
          2   -1    0    0  501    0  0.00000000000E+00  0.00000000000E+00  0.12693762123E+03  0.12693762125E+03  0.26000000000E-02 0. -1.
         -2   -1    0    0    0  501 -0.00000000000E+00 -0.00000000000E+00 -0.49972577509E+01  0.49972584273E+01  0.26000000000E-02 0.  1.
        -13    1    1    2    0    0  0.33857591372E+01  0.24625278117E+02  0.50343460644E+02  0.56145729039E+02  0.10570000000E+00 0. -1.
         13    1    1    2    0    0 -0.33857591372E+01 -0.24625278117E+02  0.71596902832E+02  0.75789150641E+02  0.10570000000E+00 0.  1.
<mgrwt>
<rscale>  0 0.50372217E+02</rscale>
<asrwt>0</asrwt>
<pdfrwt beam="1">  1        2 0.19528863E-01 0.50372217E+02</pdfrwt>
<pdfrwt beam="2">  1       -2 0.76880902E-03 0.50372217E+02</pdfrwt>
<totfact> 0.62728776E+05</totfact>
</mgrwt>
</event>
<event>
 4    1  0.3704929E-001  0.2431004E+02  0.7818608E-02  0.1671114E+00
          2   -1    0    0  501    0  0.00000000000E+00  0.00000000000E+00  0.26154067206E+01  0.26154080130E+01  0.26000000000E-02 0.  1.
         -2   -1    0    0    0  501 -0.00000000000E+00 -0.00000000000E+00 -0.56490045090E+02  0.56490045150E+02  0.26000000000E-02 0. -1.
        -13    1    1    2    0    0 -0.84767385821E+01 -0.86828915468E+01 -0.28631598597E+02  0.31097062777E+02  0.10570000000E+00 0.  1.
         13    1    1    2    0    0  0.84767385821E+01  0.86828915468E+01 -0.25243039772E+02  0.28008390386E+02  0.10570000000E+00 0. -1.
<mgrwt>
<rscale>  0 0.24310038E+02</rscale>
<asrwt>0</asrwt>
<pdfrwt beam="1">  1        2 0.40237041E-03 0.24310038E+02</pdfrwt>
<pdfrwt beam="2">  1       -2 0.86907754E-02 0.24310038E+02</pdfrwt>
<totfact> 0.21583915E+06</totfact>
</mgrwt>
</event>
<event>
 4    1  0.3704929E-001  0.2499463E+03  0.7818608E-02  0.1113339E+00
          2   -1    0    0  501    0  0.00000000000E+00  0.00000000000E+00  0.90890392578E+02  0.90890392615E+02  0.26000000000E-02 0.  1.
         -2   -1    0    0    0  501 -0.00000000000E+00 -0.00000000000E+00 -0.17183650627E+03  0.17183650628E+03  0.26000000000E-02 0. -1.
        -13    1    1    2    0    0 -0.38958861092E+02 -0.72881793694E+02 -0.13901493607E+03  0.16172418599E+03  0.10570000000E+00 0. -1.
         13    1    1    2    0    0  0.38958861092E+02  0.72881793694E+02  0.58068822386E+02  0.10100271291E+03  0.10570000000E+00 0.  1.
<mgrwt>
<rscale>  0 0.24994629E+03</rscale>
<asrwt>0</asrwt>
<pdfrwt beam="1">  1        2 0.13983137E-01 0.24994629E+03</pdfrwt>
<pdfrwt beam="2">  1       -2 0.26436385E-01 0.24994629E+03</pdfrwt>
<totfact> 0.53886695E+03</totfact>
</mgrwt>
</event>
<event>
 4    1  0.3704929E-001  0.8995604E+02  0.7818608E-02  0.1302958E+00
          2   -1    0    0  501    0  0.00000000000E+00  0.00000000000E+00  0.74243424181E+02  0.74243424226E+02  0.26000000000E-02 0. -1.
         -2   -1    0    0    0  501 -0.00000000000E+00 -0.00000000000E+00 -0.27248505387E+02  0.27248505511E+02  0.26000000000E-02 0.  1.
        -13    1    1    2    0    0  0.15360387238E+02 -0.19701249613E+02 -0.18701256450E+02  0.31206231713E+02  0.10570000000E+00 0.  1.
         13    1    1    2    0    0 -0.15360387238E+02  0.19701249613E+02  0.65696175244E+02  0.70285698024E+02  0.10570000000E+00 0. -1.
<mgrwt>
<rscale>  0 0.89956042E+02</rscale>
<asrwt>0</asrwt>
<pdfrwt beam="1">  1        2 0.11422065E-01 0.89956042E+02</pdfrwt>
<pdfrwt beam="2">  1       -2 0.41920778E-02 0.89956042E+02</pdfrwt>
<totfact> 0.11675116E+05</totfact>
</mgrwt>
</event>
<event>
 4    1  0.3704929E-001  0.5751765E+02  0.7818608E-02  0.1408554E+00
          2   -1    0    0  501    0  0.00000000000E+00  0.00000000000E+00  0.37306960870E+01  0.37306969930E+01  0.26000000000E-02 0. -1.
         -2   -1    0    0    0  501 -0.00000000000E+00 -0.00000000000E+00 -0.22169316009E+03  0.22169316010E+03  0.26000000000E-02 0.  1.
        -13    1    1    2    0    0  0.21815646219E+02  0.18689568717E+02 -0.10367024776E+03  0.10757673466E+03  0.10570000000E+00 0. -1.
         13    1    1    2    0    0 -0.21815646219E+02 -0.18689568717E+02 -0.11429221625E+03  0.11784712243E+03  0.10570000000E+00 0.  1.
<mgrwt>
<rscale>  0 0.57517646E+02</rscale>
<asrwt>0</asrwt>
<pdfrwt beam="1">  1        2 0.57395349E-03 0.57517646E+02</pdfrwt>
<pdfrwt beam="2">  1       -2 0.34106630E-01 0.57517646E+02</pdfrwt>
<totfact> 0.19078577E+05</totfact>
</mgrwt>
</event>
<event>
 4    1  0.3704929E-001  0.2134201E+02  0.7818608E-02  0.1719886E+00
         -2   -1    0    0    0  501 -0.00000000000E+00  0.00000000000E+00  0.11958399392E+02  0.11958399674E+02  0.26000000000E-02 0. -1.
          2   -1    0    0  501    0  0.00000000000E+00 -0.00000000000E+00 -0.95222076613E+01  0.95222080163E+01  0.26000000000E-02 0.  1.
        -13    1    1    2    0    0  0.10935127718E+01 -0.10329336157E+02 -0.12407674108E+01  0.10461435460E+02  0.10570000000E+00 0.  1.
         13    1    1    2    0    0 -0.10935127718E+01  0.10329336157E+02  0.36769591412E+01  0.11019172231E+02  0.10570000000E+00 0. -1.
<mgrwt>
<rscale>  0 0.21342012E+02</rscale>
<asrwt>0</asrwt>
<pdfrwt beam="2">  1        2 0.14649551E-02 0.21342012E+02</pdfrwt>
<pdfrwt beam="1">  1       -2 0.18397538E-02 0.21342012E+02</pdfrwt>
<totfact> 0.33853251E+06</totfact>
</mgrwt>
</event>
<event>
 4    1  0.3704929E-001  0.5834906E+02  0.7818608E-02  0.1404894E+00
         -2   -1    0    0    0  501 -0.00000000000E+00  0.00000000000E+00  0.76007794327E+01  0.76007798774E+01  0.26000000000E-02 0.  1.
          2   -1    0    0  501    0  0.00000000000E+00 -0.00000000000E+00 -0.11198236064E+03  0.11198236067E+03  0.26000000000E-02 0. -1.
        -13    1    1    2    0    0 -0.51080293253E+01 -0.28713139802E+02 -0.53785830462E+02  0.61183846658E+02  0.10570000000E+00 0. -1.
         13    1    1    2    0    0  0.51080293253E+01  0.28713139802E+02 -0.50595750750E+02  0.58399293895E+02  0.10570000000E+00 0.  1.
<mgrwt>
<rscale>  0 0.58349062E+02</rscale>
<asrwt>0</asrwt>
<pdfrwt beam="2">  1        2 0.17228054E-01 0.58349062E+02</pdfrwt>
<pdfrwt beam="1">  1       -2 0.11693508E-02 0.58349062E+02</pdfrwt>
<totfact> 0.41600320E+05</totfact>
</mgrwt>
</event>
<event>
 4    1  0.3704929E-001  0.2135968E+02  0.7818608E-02  0.1719567E+00
          2   -1    0    0  501    0  0.00000000000E+00  0.00000000000E+00  0.29042952739E+02  0.29042952856E+02  0.26000000000E-02 0. -1.
         -2   -1    0    0    0  501 -0.00000000000E+00 -0.00000000000E+00 -0.39272507746E+01  0.39272516352E+01  0.26000000000E-02 0.  1.
        -13    1    1    2    0    0  0.10081596520E+02  0.33801270813E+01  0.11026712461E+02  0.15318727351E+02  0.10570000000E+00 0. -1.
         13    1    1    2    0    0 -0.10081596520E+02 -0.33801270813E+01  0.14088989504E+02  0.17651477140E+02  0.10570000000E+00 0.  1.
<mgrwt>
<rscale>  0 0.21359679E+02</rscale>
<asrwt>0</asrwt>
<pdfrwt beam="1">  1        2 0.44681467E-02 0.21359679E+02</pdfrwt>
<pdfrwt beam="2">  1       -2 0.60419249E-03 0.21359679E+02</pdfrwt>
<totfact> 0.37254327E+06</totfact>
</mgrwt>
</event>
<event>
 4    1  0.3704929E-001  0.2770886E+02  0.7818608E-02  0.1624889E+00
          2   -1    0    0  501    0  0.00000000000E+00  0.00000000000E+00  0.22073299485E+02  0.22073299638E+02  0.26000000000E-02 0.  1.
         -2   -1    0    0    0  501 -0.00000000000E+00 -0.00000000000E+00 -0.86958094336E+01  0.86958098223E+01  0.26000000000E-02 0. -1.
        -13    1    1    2    0    0  0.11944088953E+02 -0.61950612809E+01  0.30236106372E+01  0.13791063736E+02  0.10570000000E+00 0.  1.
         13    1    1    2    0    0 -0.11944088953E+02  0.61950612809E+01  0.10353879414E+02  0.16978045724E+02  0.10570000000E+00 0. -1.
<mgrwt>
<rscale>  0 0.27708859E+02</rscale>
<asrwt>0</asrwt>
<pdfrwt beam="1">  1        2 0.33958922E-02 0.27708859E+02</pdfrwt>
<pdfrwt beam="2">  1       -2 0.13378169E-02 0.27708859E+02</pdfrwt>
<totfact> 0.19737596E+06</totfact>
</mgrwt>
</event>
<event>
 4    1  0.3704929E-001  0.3065524E+02  0.7818608E-02  0.1590957E+00
         -2   -1    0    0    0  501 -0.00000000000E+00  0.00000000000E+00  0.93794465318E+01  0.93794468922E+01  0.26000000000E-02 0.  1.
          2   -1    0    0  501    0  0.00000000000E+00 -0.00000000000E+00 -0.25047944830E+02  0.25047944964E+02  0.26000000000E-02 0. -1.
        -13    1    1    2    0    0 -0.11813544221E+02  0.36131672251E+01  0.23546080869E+01  0.12576571719E+02  0.10570000000E+00 0.  1.
         13    1    1    2    0    0  0.11813544221E+02 -0.36131672251E+01 -0.18023106385E+02  0.21850820138E+02  0.10570000000E+00 0. -1.
<mgrwt>
<rscale>  0 0.30655236E+02</rscale>
<asrwt>0</asrwt>
<pdfrwt beam="2">  1        2 0.38535300E-02 0.30655236E+02</pdfrwt>
<pdfrwt beam="1">  1       -2 0.14429918E-02 0.30655236E+02</pdfrwt>
<totfact> 0.15700308E+06</totfact>
</mgrwt>
</event>
<event>
 4    1  0.3704929E-001  0.2357940E+02  0.7818608E-02  0.1682287E+00
         -2   -1    0    0    0  501 -0.00000000000E+00  0.00000000000E+00  0.18913263499E+02  0.18913263678E+02  0.26000000000E-02 0.  1.
          2   -1    0    0  501    0  0.00000000000E+00 -0.00000000000E+00 -0.73491816716E+01  0.73491821315E+01  0.26000000000E-02 0. -1.
        -13    1    1    2    0    0  0.93961532864E+01  0.65123268706E+01  0.89884629748E+01  0.14543099291E+02  0.10570000000E+00 0. -1.
         13    1    1    2    0    0 -0.93961532864E+01 -0.65123268706E+01  0.25756188529E+01  0.11719346518E+02  0.10570000000E+00 0.  1.
<mgrwt>
<rscale>  0 0.23579399E+02</rscale>
<asrwt>0</asrwt>
<pdfrwt beam="2">  1        2 0.11306434E-02 0.23579399E+02</pdfrwt>
<pdfrwt beam="1">  1       -2 0.29097329E-02 0.23579399E+02</pdfrwt>
<totfact> 0.26211207E+06</totfact>
</mgrwt>
</event>
<event>
 4    1  0.3704929E-001  0.4361612E+02  0.7818608E-02  0.1483171E+00
         -2   -1    0    0    0  501 -0.00000000000E+00  0.00000000000E+00  0.21290928137E+02  0.21290928296E+02  0.26000000000E-02 0.  1.
          2   -1    0    0  501    0  0.00000000000E+00 -0.00000000000E+00 -0.22337751988E+02  0.22337752139E+02  0.26000000000E-02 0. -1.
        -13    1    1    2    0    0 -0.42154437407E+01  0.19809586790E+02 -0.86121868348E+01  0.22008421781E+02  0.10570000000E+00 0. -1.
         13    1    1    2    0    0  0.42154437407E+01 -0.19809586790E+02  0.75653629845E+01  0.21620258654E+02  0.10570000000E+00 0.  1.
<mgrwt>
<rscale>  0 0.43616120E+02</rscale>
<asrwt>0</asrwt>
<pdfrwt beam="2">  1        2 0.34365773E-02 0.43616120E+02</pdfrwt>
<pdfrwt beam="1">  1       -2 0.32755274E-02 0.43616120E+02</pdfrwt>
<totfact> 0.64068737E+05</totfact>
</mgrwt>
</event>
<event>
 4    1  0.3704929E-001  0.2054765E+02  0.7818608E-02  0.1734652E+00
          2   -1    0    0  501    0  0.00000000000E+00  0.00000000000E+00  0.11957871887E+01  0.11957900153E+01  0.26000000000E-02 0. -1.
         -2   -1    0    0    0  501 -0.00000000000E+00 -0.00000000000E+00 -0.88269348079E+02  0.88269348117E+02  0.26000000000E-02 0.  1.
        -13    1    1    2    0    0 -0.94409949627E+01 -0.40419071583E+01 -0.44696228261E+02  0.45861022586E+02  0.10570000000E+00 0.  1.
         13    1    1    2    0    0  0.94409949627E+01  0.40419071583E+01 -0.42377332629E+02  0.43604115546E+02  0.10570000000E+00 0. -1.
<mgrwt>
<rscale>  0 0.20547650E+02</rscale>
<asrwt>0</asrwt>
<pdfrwt beam="1">  1        2 0.18396755E-03 0.20547650E+02</pdfrwt>
<pdfrwt beam="2">  1       -2 0.13579895E-01 0.20547650E+02</pdfrwt>
<totfact> 0.28851387E+06</totfact>
</mgrwt>
</event>
<event>
 4    1  0.3704929E-001  0.4164542E+02  0.7818608E-02  0.1496441E+00
          2   -1    0    0  501    0  0.00000000000E+00  0.00000000000E+00  0.72118726090E+01  0.72118730777E+01  0.26000000000E-02 0. -1.
         -2   -1    0    0    0  501 -0.00000000000E+00 -0.00000000000E+00 -0.60121025317E+02  0.60121025373E+02  0.26000000000E-02 0.  1.
        -13    1    1    2    0    0 -0.16269659553E+02  0.31636181333E+00 -0.54501687265E+01  0.17161509793E+02  0.10570000000E+00 0. -1.
         13    1    1    2    0    0  0.16269659553E+02 -0.31636181333E+00 -0.47458983981E+02  0.50171388657E+02  0.10570000000E+00 0.  1.
<mgrwt>
<rscale>  0 0.41645417E+02</rscale>
<asrwt>0</asrwt>
<pdfrwt beam="1">  1        2 0.11095189E-02 0.41645417E+02</pdfrwt>
<pdfrwt beam="2">  1       -2 0.92493882E-02 0.41645417E+02</pdfrwt>
<totfact> 0.61149834E+05</totfact>
</mgrwt>
</event>
<event>
 4    1  0.3704929E-001  0.2065978E+02  0.7818608E-02  0.1732517E+00
          2   -1    0    0  501    0  0.00000000000E+00  0.00000000000E+00  0.80169159651E+02  0.80169159693E+02  0.26000000000E-02 0.  1.
         -2   -1    0    0    0  501 -0.00000000000E+00 -0.00000000000E+00 -0.13310166908E+01  0.13310192302E+01  0.26000000000E-02 0. -1.
        -13    1    1    2    0    0  0.49404797071E+01 -0.90702914101E+01  0.39931848616E+02  0.41246117785E+02  0.10570000000E+00 0. -1.
         13    1    1    2    0    0 -0.49404797071E+01  0.90702914101E+01  0.38906294344E+02  0.40254061138E+02  0.10570000000E+00 0.  1.
<mgrwt>
<rscale>  0 0.20659777E+02</rscale>
<asrwt>0</asrwt>
<pdfrwt beam="1">  1        2 0.12333719E-01 0.20659777E+02</pdfrwt>
<pdfrwt beam="2">  1       -2 0.20477197E-03 0.20659777E+02</pdfrwt>
<totfact> 0.46822640E+06</totfact>
</mgrwt>
</event>
<event>
 4    1  0.3704929E-001  0.2157090E+02  0.7818608E-02  0.1715780E+00
          2   -1    0    0  501    0  0.00000000000E+00  0.00000000000E+00  0.32103182615E+02  0.32103182720E+02  0.26000000000E-02 0.  1.
         -2   -1    0    0    0  501 -0.00000000000E+00 -0.00000000000E+00 -0.36235015766E+01  0.36235025094E+01  0.26000000000E-02 0. -1.
        -13    1    1    2    0    0  0.60067216279E+01 -0.87531706081E+01  0.17389353076E+02  0.20373990117E+02  0.10570000000E+00 0.  1.
         13    1    1    2    0    0 -0.60067216279E+01  0.87531706081E+01  0.11090327963E+02  0.15352695113E+02  0.10570000000E+00 0. -1.
<mgrwt>
<rscale>  0 0.21570902E+02</rscale>
<asrwt>0</asrwt>
<pdfrwt beam="1">  1        2 0.49389515E-02 0.21570902E+02</pdfrwt>
<pdfrwt beam="2">  1       -2 0.55746184E-03 0.21570902E+02</pdfrwt>
<totfact> 0.36845832E+06</totfact>
</mgrwt>
</event>
<event>
 4    1  0.3704929E-001  0.3010120E+02  0.7818608E-02  0.1596973E+00
          2   -1    0    0  501    0  0.00000000000E+00  0.00000000000E+00  0.58335419291E+01  0.58335425085E+01  0.26000000000E-02 0. -1.
         -2   -1    0    0    0  501 -0.00000000000E+00 -0.00000000000E+00 -0.38830705343E+02  0.38830705430E+02  0.26000000000E-02 0.  1.
        -13    1    1    2    0    0  0.14149347373E+02  0.19149845768E+01 -0.94387053605E+01  0.17116411084E+02  0.10570000000E+00 0. -1.
         13    1    1    2    0    0 -0.14149347373E+02 -0.19149845768E+01 -0.23558458053E+02  0.27547836854E+02  0.10570000000E+00 0.  1.
<mgrwt>
<rscale>  0 0.30101200E+02</rscale>
<asrwt>0</asrwt>
<pdfrwt beam="1">  1        2 0.89746807E-03 0.30101200E+02</pdfrwt>
<pdfrwt beam="2">  1       -2 0.59739545E-02 0.30101200E+02</pdfrwt>
<totfact> 0.13990387E+06</totfact>
</mgrwt>
</event>
<event>
 4    1  0.3704929E-001  0.3515157E+02  0.7818608E-02  0.1547259E+00
          2   -1    0    0  501    0  0.00000000000E+00  0.00000000000E+00  0.54710458002E+01  0.54710464180E+01  0.26000000000E-02 0. -1.
         -2   -1    0    0    0  501 -0.00000000000E+00 -0.00000000000E+00 -0.56462354412E+02  0.56462354472E+02  0.26000000000E-02 0.  1.
        -13    1    1    2    0    0  0.12931199390E+02 -0.65573156864E+01 -0.79931298071E+01  0.16556436914E+02  0.10570000000E+00 0. -1.
         13    1    1    2    0    0 -0.12931199390E+02  0.65573156864E+01 -0.42998178805E+02  0.45376963976E+02  0.10570000000E+00 0.  1.
<mgrwt>
<rscale>  0 0.35151566E+02</rscale>
<asrwt>0</asrwt>
<pdfrwt beam="1">  1        2 0.84169945E-03 0.35151566E+02</pdfrwt>
<pdfrwt beam="2">  1       -2 0.86865157E-02 0.35151566E+02</pdfrwt>
<totfact> 0.92343268E+05</totfact>
</mgrwt>
</event>
<event>
 4    1  0.3704929E-001  0.3085040E+02  0.7818608E-02  0.1588874E+00
         -2   -1    0    0    0  501 -0.00000000000E+00  0.00000000000E+00  0.52435050084E+02  0.52435050149E+02  0.26000000000E-02 0.  1.
          2   -1    0    0  501    0  0.00000000000E+00 -0.00000000000E+00 -0.45377421626E+01  0.45377429074E+01  0.26000000000E-02 0. -1.
        -13    1    1    2    0    0  0.14926013950E+02 -0.32190036994E-02  0.31134289197E+02  0.34527395487E+02  0.10570000000E+00 0.  1.
         13    1    1    2    0    0 -0.14926013950E+02  0.32190036994E-02  0.16763018725E+02  0.22445397569E+02  0.10570000000E+00 0. -1.
<mgrwt>
<rscale>  0 0.30850398E+02</rscale>
<asrwt>0</asrwt>
<pdfrwt beam="2">  1        2 0.69811430E-03 0.30850398E+02</pdfrwt>
<pdfrwt beam="1">  1       -2 0.80669302E-02 0.30850398E+02</pdfrwt>
<totfact> 0.12668609E+06</totfact>
</mgrwt>
</event>
<event>
 4    1  0.3704929E-001  0.2604802E+02  0.7818608E-02  0.1646390E+00
          2   -1    0    0  501    0  0.00000000000E+00  0.00000000000E+00  0.89530484763E+01  0.89530488538E+01  0.26000000000E-02 0.  1.
         -2   -1    0    0    0  501 -0.00000000000E+00 -0.00000000000E+00 -0.18946040930E+02  0.18946041108E+02  0.26000000000E-02 0. -1.
        -13    1    1    2    0    0 -0.10851051174E+02  0.45027336879E+01 -0.11016764157E+02  0.16105905352E+02  0.10570000000E+00 0. -1.
         13    1    1    2    0    0  0.10851051174E+02 -0.45027336879E+01  0.10237717030E+01  0.11793184610E+02  0.10570000000E+00 0.  1.
<mgrwt>
<rscale>  0 0.26048020E+02</rscale>
<asrwt>0</asrwt>
<pdfrwt beam="1">  1        2 0.13773921E-02 0.26048020E+02</pdfrwt>
<pdfrwt beam="2">  1       -2 0.29147756E-02 0.26048020E+02</pdfrwt>
<totfact> 0.20999615E+06</totfact>
</mgrwt>
</event>
<event>
 4    1  0.3704929E-001  0.2603046E+02  0.7818608E-02  0.1646627E+00
          2   -1    0    0  501    0  0.00000000000E+00  0.00000000000E+00  0.78010687062E+02  0.78010687105E+02  0.26000000000E-02 0.  1.
         -2   -1    0    0    0  501 -0.00000000000E+00 -0.00000000000E+00 -0.21714471454E+01  0.21714487020E+01  0.26000000000E-02 0. -1.
        -13    1    1    2    0    0 -0.71861979228E+01  0.87484522921E+01  0.18145951592E+02  0.21388398485E+02  0.10570000000E+00 0. -1.
         13    1    1    2    0    0  0.71861979228E+01 -0.87484522921E+01  0.57693288325E+02  0.58793737322E+02  0.10570000000E+00 0.  1.
<mgrwt>
<rscale>  0 0.26030455E+02</rscale>
<asrwt>0</asrwt>
<pdfrwt beam="1">  1        2 0.12001644E-01 0.26030455E+02</pdfrwt>
<pdfrwt beam="2">  1       -2 0.33406891E-03 0.26030455E+02</pdfrwt>
<totfact> 0.27544367E+06</totfact>
</mgrwt>
</event>
<event>
 4    1  0.3704929E-001  0.1086016E+03  0.7818608E-02  0.1263182E+00
          2   -1    0    0  501    0  0.00000000000E+00  0.00000000000E+00  0.82657312181E+01  0.82657316270E+01  0.26000000000E-02 0. -1.
         -2   -1    0    0    0  501 -0.00000000000E+00 -0.00000000000E+00 -0.35672292989E+03  0.35672292989E+03  0.26000000000E-02 0.  1.
        -13    1    1    2    0    0 -0.52703677523E+02  0.12965082745E+02 -0.16861116139E+03  0.17713132392E+03  0.10570000000E+00 0.  1.
         13    1    1    2    0    0  0.52703677523E+02 -0.12965082745E+02 -0.17984603727E+03  0.18785733760E+03  0.10570000000E+00 0. -1.
<mgrwt>
<rscale>  0 0.10860158E+03</rscale>
<asrwt>0</asrwt>
<pdfrwt beam="1">  1        2 0.12716513E-02 0.10860158E+03</pdfrwt>
<pdfrwt beam="2">  1       -2 0.54880439E-01 0.10860158E+03</pdfrwt>
<totfact> 0.29232877E+04</totfact>
</mgrwt>
</event>
<event>
 4    1  0.3704929E-001  0.3903465E+02  0.7818608E-02  0.1515438E+00
         -2   -1    0    0    0  501 -0.00000000000E+00  0.00000000000E+00  0.10323943135E+03  0.10323943138E+03  0.26000000000E-02 0.  1.
          2   -1    0    0  501    0  0.00000000000E+00 -0.00000000000E+00 -0.36897329962E+01  0.36897339123E+01  0.26000000000E-02 0. -1.
        -13    1    1    2    0    0 -0.18536450869E+02  0.58839233430E+01  0.54271247878E+02  0.57650672880E+02  0.10570000000E+00 0.  1.
         13    1    1    2    0    0  0.18536450869E+02 -0.58839233430E+01  0.45278450471E+02  0.49278492411E+02  0.10570000000E+00 0. -1.
<mgrwt>
<rscale>  0 0.39034651E+02</rscale>
<asrwt>0</asrwt>
<pdfrwt beam="2">  1        2 0.56765135E-03 0.39034651E+02</pdfrwt>
<pdfrwt beam="1">  1       -2 0.15882988E-01 0.39034651E+02</pdfrwt>
<totfact> 0.63673758E+05</totfact>
</mgrwt>
</event>
<event>
 4    1  0.3704929E-001  0.2676841E+02  0.7818608E-02  0.1636828E+00
          2   -1    0    0  501    0  0.00000000000E+00  0.00000000000E+00  0.27430953256E+02  0.27430953379E+02  0.26000000000E-02 0. -1.
         -2   -1    0    0    0  501 -0.00000000000E+00 -0.00000000000E+00 -0.65304675750E+01  0.65304680925E+01  0.26000000000E-02 0.  1.
        -13    1    1    2    0    0 -0.63413234710E+01 -0.94033738304E+01  0.19465244332E+02  0.22528709065E+02  0.10570000000E+00 0. -1.
         13    1    1    2    0    0  0.63413234710E+01  0.94033738304E+01  0.14352413496E+01  0.11432712407E+02  0.10570000000E+00 0.  1.
<mgrwt>
<rscale>  0 0.26768411E+02</rscale>
<asrwt>0</asrwt>
<pdfrwt beam="1">  1        2 0.42201466E-02 0.26768411E+02</pdfrwt>
<pdfrwt beam="2">  1       -2 0.10046874E-02 0.26768411E+02</pdfrwt>
<totfact> 0.21942553E+06</totfact>
</mgrwt>
</event>
<event>
 4    1  0.3704929E-001  0.5110021E+02  0.7818608E-02  0.1439496E+00
          2   -1    0    0  501    0  0.00000000000E+00  0.00000000000E+00  0.29099281525E+02  0.29099281642E+02  0.26000000000E-02 0.  1.
         -2   -1    0    0    0  501 -0.00000000000E+00 -0.00000000000E+00 -0.22433817631E+02  0.22433817782E+02  0.26000000000E-02 0. -1.
        -13    1    1    2    0    0 -0.10783977299E+02  0.66026041681E+01  0.25722345027E+02  0.28662497350E+02  0.10570000000E+00 0.  1.
         13    1    1    2    0    0  0.10783977299E+02 -0.66026041681E+01 -0.19056881132E+02  0.22870602073E+02  0.10570000000E+00 0. -1.
<mgrwt>
<rscale>  0 0.51100215E+02</rscale>
<asrwt>0</asrwt>
<pdfrwt beam="1">  1        2 0.44768126E-02 0.51100215E+02</pdfrwt>
<pdfrwt beam="2">  1       -2 0.34513566E-02 0.51100215E+02</pdfrwt>
<totfact> 0.44121454E+05</totfact>
</mgrwt>
</event>
<event>
 4    1  0.3704929E-001  0.2939977E+02  0.7818608E-02  0.1604820E+00
          2   -1    0    0  501    0  0.00000000000E+00  0.00000000000E+00  0.62553010764E+02  0.62553010818E+02  0.26000000000E-02 0. -1.
         -2   -1    0    0    0  501 -0.00000000000E+00 -0.00000000000E+00 -0.34544550484E+01  0.34544560269E+01  0.26000000000E-02 0.  1.
        -13    1    1    2    0    0  0.10509790095E+02 -0.73321613361E+01  0.45717484162E+02  0.47479635722E+02  0.10570000000E+00 0. -1.
         13    1    1    2    0    0 -0.10509790095E+02  0.73321613361E+01  0.13381071553E+02  0.18527831123E+02  0.10570000000E+00 0.  1.
<mgrwt>
<rscale>  0 0.29399769E+02</rscale>
<asrwt>0</asrwt>
<pdfrwt beam="1">  1        2 0.96235389E-02 0.29399769E+02</pdfrwt>
<pdfrwt beam="2">  1       -2 0.53145477E-03 0.29399769E+02</pdfrwt>
<totfact> 0.19837720E+06</totfact>
</mgrwt>
</event>
<event>
 4    1  0.3704929E-001  0.6890581E+02  0.7818608E-02  0.1363854E+00
         -2   -1    0    0    0  501 -0.00000000000E+00  0.00000000000E+00  0.74678091518E+02  0.74678091563E+02  0.26000000000E-02 0. -1.
          2   -1    0    0  501    0  0.00000000000E+00 -0.00000000000E+00 -0.15894925756E+02  0.15894925969E+02  0.26000000000E-02 0.  1.
        -13    1    1    2    0    0 -0.29031737844E+01  0.32107761419E+02  0.13419308430E+02  0.34920277385E+02  0.10570000000E+00 0.  1.
         13    1    1    2    0    0  0.29031737844E+01 -0.32107761419E+02  0.45363857331E+02  0.55652740147E+02  0.10570000000E+00 0. -1.
<mgrwt>
<rscale>  0 0.68905812E+02</rscale>
<asrwt>0</asrwt>
<pdfrwt beam="2">  1        2 0.24453733E-02 0.68905812E+02</pdfrwt>
<pdfrwt beam="1">  1       -2 0.11488937E-01 0.68905812E+02</pdfrwt>
<totfact> 0.17238767E+05</totfact>
</mgrwt>
</event>
<event>
 4    1  0.3704929E-001  0.2555667E+02  0.7818608E-02  0.1653133E+00
          2   -1    0    0  501    0  0.00000000000E+00  0.00000000000E+00  0.75301991600E+02  0.75301991645E+02  0.26000000000E-02 0.  1.
         -2   -1    0    0    0  501 -0.00000000000E+00 -0.00000000000E+00 -0.21684121337E+01  0.21684136924E+01  0.26000000000E-02 0. -1.
        -13    1    1    2    0    0 -0.96361455582E+01  0.67232017113E+01  0.21344287076E+02  0.24364862113E+02  0.10570000000E+00 0. -1.
         13    1    1    2    0    0  0.96361455582E+01 -0.67232017113E+01  0.51789292390E+02  0.53105543225E+02  0.10570000000E+00 0.  1.
<mgrwt>
<rscale>  0 0.25556668E+02</rscale>
<asrwt>0</asrwt>
<pdfrwt beam="1">  1        2 0.11584922E-01 0.25556668E+02</pdfrwt>
<pdfrwt beam="2">  1       -2 0.33360199E-03 0.25556668E+02</pdfrwt>
<totfact> 0.28533896E+06</totfact>
</mgrwt>
</event>
<event>
 4    1  0.3704929E-001  0.4485040E+02  0.7818608E-02  0.1475278E+00
          2   -1    0    0  501    0  0.00000000000E+00  0.00000000000E+00  0.85832400631E+01  0.85832404569E+01  0.26000000000E-02 0. -1.
         -2   -1    0    0    0  501 -0.00000000000E+00 -0.00000000000E+00 -0.58589709983E+02  0.58589710041E+02  0.26000000000E-02 0.  1.
        -13    1    1    2    0    0  0.82993879177E+01  0.11587724994E+02  0.92591522570E+00  0.14283686564E+02  0.10570000000E+00 0. -1.
         13    1    1    2    0    0 -0.82993879177E+01 -0.11587724994E+02 -0.50932385146E+02  0.52889263934E+02  0.10570000000E+00 0.  1.
<mgrwt>
<rscale>  0 0.44850398E+02</rscale>
<asrwt>0</asrwt>
<pdfrwt beam="1">  1        2 0.13204985E-02 0.44850398E+02</pdfrwt>
<pdfrwt beam="2">  1       -2 0.90138013E-02 0.44850398E+02</pdfrwt>
<totfact> 0.51452565E+05</totfact>
</mgrwt>
</event>
<event>
 4    1  0.3704929E-001  0.3273511E+02  0.7818608E-02  0.1569685E+00
          2   -1    0    0  501    0  0.00000000000E+00  0.00000000000E+00  0.11151726719E+02  0.11151727022E+02  0.26000000000E-02 0. -1.
         -2   -1    0    0    0  501 -0.00000000000E+00 -0.00000000000E+00 -0.24022898401E+02  0.24022898542E+02  0.26000000000E-02 0.  1.
        -13    1    1    2    0    0 -0.17331443199E+01 -0.11219149921E+02  0.62334240844E+01  0.12951442487E+02  0.10570000000E+00 0. -1.
         13    1    1    2    0    0  0.17331443199E+01  0.11219149921E+02 -0.19104595766E+02  0.22223183077E+02  0.10570000000E+00 0.  1.
<mgrwt>
<rscale>  0 0.32735107E+02</rscale>
<asrwt>0</asrwt>
<pdfrwt beam="1">  1        2 0.17156503E-02 0.32735107E+02</pdfrwt>
<pdfrwt beam="2">  1       -2 0.36958306E-02 0.32735107E+02</pdfrwt>
<totfact> 0.12215663E+06</totfact>
</mgrwt>
</event>
<event>
 4    1  0.3704929E-001  0.3538914E+02  0.7818608E-02  0.1545172E+00
          2   -1    0    0  501    0  0.00000000000E+00  0.00000000000E+00  0.43716617982E+02  0.43716618060E+02  0.26000000000E-02 0. -1.
         -2   -1    0    0    0  501 -0.00000000000E+00 -0.00000000000E+00 -0.71619875312E+01  0.71619880031E+01  0.26000000000E-02 0.  1.
        -13    1    1    2    0    0  0.15718546815E+02 -0.74899847641E+01  0.22804126777E+02  0.28691670503E+02  0.10570000000E+00 0. -1.
         13    1    1    2    0    0 -0.15718546815E+02  0.74899847641E+01  0.13750503674E+02  0.22186935559E+02  0.10570000000E+00 0.  1.
<mgrwt>
<rscale>  0 0.35389144E+02</rscale>
<asrwt>0</asrwt>
<pdfrwt beam="1">  1        2 0.67256336E-02 0.35389144E+02</pdfrwt>
<pdfrwt beam="2">  1       -2 0.11018443E-02 0.35389144E+02</pdfrwt>
<totfact> 0.11938580E+06</totfact>
</mgrwt>
</event>
<event>
 4    1  0.3704929E-001  0.7836776E+02  0.7818608E-02  0.1333748E+00
         -2   -1    0    0    0  501 -0.00000000000E+00  0.00000000000E+00  0.38662911200E+02  0.38662911288E+02  0.26000000000E-02 0.  1.
          2   -1    0    0  501    0  0.00000000000E+00 -0.00000000000E+00 -0.39711872667E+02  0.39711872753E+02  0.26000000000E-02 0. -1.
        -13    1    1    2    0    0  0.22904206302E+00  0.33162211656E+02 -0.21396920405E+02  0.39466746984E+02  0.10570000000E+00 0. -1.
         13    1    1    2    0    0 -0.22904206302E+00 -0.33162211656E+02  0.20347958938E+02  0.38908037057E+02  0.10570000000E+00 0.  1.
<mgrwt>
<rscale>  0 0.78367764E+02</rscale>
<asrwt>0</asrwt>
<pdfrwt beam="2">  1        2 0.61095189E-02 0.78367764E+02</pdfrwt>
<pdfrwt beam="1">  1       -2 0.59481402E-02 0.78367764E+02</pdfrwt>
<totfact> 0.14660213E+05</totfact>
</mgrwt>
</event>
<event>
 4    1  0.3704929E-001  0.2828928E+02  0.7818608E-02  0.1617806E+00
         -2   -1    0    0    0  501 -0.00000000000E+00  0.00000000000E+00  0.80780702150E+02  0.80780702192E+02  0.26000000000E-02 0.  1.
          2   -1    0    0  501    0  0.00000000000E+00 -0.00000000000E+00 -0.24767159200E+01  0.24767172847E+01  0.26000000000E-02 0. -1.
        -13    1    1    2    0    0 -0.13236575011E+02 -0.97519230929E+00  0.24763462202E+02  0.28096230188E+02  0.10570000000E+00 0. -1.
         13    1    1    2    0    0  0.13236575011E+02  0.97519230929E+00  0.53540524029E+02  0.55161189289E+02  0.10570000000E+00 0.  1.
<mgrwt>
<rscale>  0 0.28289285E+02</rscale>
<asrwt>0</asrwt>
<pdfrwt beam="2">  1        2 0.38103328E-03 0.28289285E+02</pdfrwt>
<pdfrwt beam="1">  1       -2 0.12427802E-01 0.28289285E+02</pdfrwt>
<totfact> 0.14328186E+06</totfact>
</mgrwt>
</event>
<event>
 4    1  0.3704929E-001  0.3280945E+02  0.7818608E-02  0.1568960E+00
         -2   -1    0    0    0  501 -0.00000000000E+00  0.00000000000E+00  0.41710121586E+01  0.41710129690E+01  0.26000000000E-02 0. -1.
          2   -1    0    0  501    0  0.00000000000E+00 -0.00000000000E+00 -0.64520301102E+02  0.64520301154E+02  0.26000000000E-02 0.  1.
        -13    1    1    2    0    0 -0.12073931536E+02 -0.10920827390E+02 -0.34392973341E+02  0.38051702739E+02  0.10570000000E+00 0.  1.
         13    1    1    2    0    0  0.12073931536E+02  0.10920827390E+02 -0.25956315602E+02  0.30639611384E+02  0.10570000000E+00 0. -1.
<mgrwt>
<rscale>  0 0.32809449E+02</rscale>
<asrwt>0</asrwt>
<pdfrwt beam="2">  1        2 0.99261995E-02 0.32809449E+02</pdfrwt>
<pdfrwt beam="1">  1       -2 0.64169429E-03 0.32809449E+02</pdfrwt>
<totfact> 0.15355040E+06</totfact>
</mgrwt>
</event>
<event>
 4    1  0.3704929E-001  0.3184624E+02  0.7818608E-02  0.1578534E+00
         -2   -1    0    0    0  501 -0.00000000000E+00  0.00000000000E+00  0.11315139185E+03  0.11315139188E+03  0.26000000000E-02 0. -1.
          2   -1    0    0  501    0  0.00000000000E+00 -0.00000000000E+00 -0.22407646870E+01  0.22407661955E+01  0.26000000000E-02 0.  1.
        -13    1    1    2    0    0 -0.10009962348E+02 -0.11384462171E+02  0.73105935402E+02  0.74661196672E+02  0.10570000000E+00 0. -1.
         13    1    1    2    0    0  0.10009962348E+02  0.11384462171E+02  0.37804691760E+02  0.40730961401E+02  0.10570000000E+00 0.  1.
<mgrwt>
<rscale>  0 0.31846239E+02</rscale>
<asrwt>0</asrwt>
<pdfrwt beam="2">  1        2 0.34473318E-03 0.31846239E+02</pdfrwt>
<pdfrwt beam="1">  1       -2 0.17407905E-01 0.31846239E+02</pdfrwt>
<totfact> 0.10059719E+06</totfact>
</mgrwt>
</event>
<event>
 4    1  0.3704929E-001  0.2234002E+02  0.7818608E-02  0.1702437E+00
         -2   -1    0    0    0  501 -0.00000000000E+00  0.00000000000E+00  0.26921297443E+02  0.26921297569E+02  0.26000000000E-02 0. -1.
          2   -1    0    0  501    0  0.00000000000E+00 -0.00000000000E+00 -0.46345888623E+01  0.46345895916E+01  0.26000000000E-02 0.  1.
        -13    1    1    2    0    0 -0.10736643360E+02 -0.27796299751E+01  0.13015223314E+02  0.17099972627E+02  0.10570000000E+00 0. -1.
         13    1    1    2    0    0  0.10736643360E+02  0.27796299751E+01  0.92714852675E+01  0.14455914534E+02  0.10570000000E+00 0.  1.
<mgrwt>
<rscale>  0 0.22340023E+02</rscale>
<asrwt>0</asrwt>
<pdfrwt beam="2">  1        2 0.71301374E-03 0.22340023E+02</pdfrwt>
<pdfrwt beam="1">  1       -2 0.41417381E-02 0.22340023E+02</pdfrwt>
<totfact> 0.28586558E+06</totfact>
</mgrwt>
</event>
<event>
 4    1  0.3704929E-001  0.2150351E+02  0.7818608E-02  0.1716983E+00
         -2   -1    0    0    0  501 -0.00000000000E+00  0.00000000000E+00  0.11923641749E+02  0.11923642032E+02  0.26000000000E-02 0. -1.
          2   -1    0    0  501    0  0.00000000000E+00 -0.00000000000E+00 -0.96950468131E+01  0.96950471617E+01  0.26000000000E-02 0.  1.
        -13    1    1    2    0    0  0.10287443532E+02  0.11781449539E+01 -0.17942204909E+01  0.10509515670E+02  0.10570000000E+00 0.  1.
         13    1    1    2    0    0 -0.10287443532E+02 -0.11781449539E+01  0.40228154265E+01  0.11109173524E+02  0.10570000000E+00 0. -1.
<mgrwt>
<rscale>  0 0.21503513E+02</rscale>
<asrwt>0</asrwt>
<pdfrwt beam="2">  1        2 0.14915457E-02 0.21503513E+02</pdfrwt>
<pdfrwt beam="1">  1       -2 0.18344065E-02 0.21503513E+02</pdfrwt>
<totfact> 0.33312071E+06</totfact>
</mgrwt>
</event>
<event>
 4    1  0.3704929E-001  0.4335383E+02  0.7818608E-02  0.1484888E+00
         -2   -1    0    0    0  501 -0.00000000000E+00  0.00000000000E+00  0.40668182550E+01  0.40668190862E+01  0.26000000000E-02 0.  1.
          2   -1    0    0  501    0  0.00000000000E+00 -0.00000000000E+00 -0.11554206528E+03  0.11554206531E+03  0.26000000000E-02 0. -1.
        -13    1    1    2    0    0  0.13208670429E+02 -0.16840588321E+02 -0.65215989234E+02  0.68638260568E+02  0.10570000000E+00 0. -1.
         13    1    1    2    0    0 -0.13208670429E+02  0.16840588321E+02 -0.46259257791E+02  0.50970623828E+02  0.10570000000E+00 0.  1.
<mgrwt>
<rscale>  0 0.43353829E+02</rscale>
<asrwt>0</asrwt>
<pdfrwt beam="2">  1        2 0.17775700E-01 0.43353829E+02</pdfrwt>
<pdfrwt beam="1">  1       -2 0.62566450E-03 0.43353829E+02</pdfrwt>
<totfact> 0.88940990E+05</totfact>
</mgrwt>
</event>
<event>
 4    1  0.3704929E-001  0.3639249E+02  0.7818608E-02  0.1536571E+00
         -2   -1    0    0    0  501 -0.00000000000E+00  0.00000000000E+00  0.14000333948E+02  0.14000334190E+02  0.26000000000E-02 0. -1.
          2   -1    0    0  501    0  0.00000000000E+00 -0.00000000000E+00 -0.23649678907E+02  0.23649679050E+02  0.26000000000E-02 0.  1.
        -13    1    1    2    0    0 -0.12926677657E+02  0.92670301284E+01  0.43190203146E+01  0.16481563992E+02  0.10570000000E+00 0. -1.
         13    1    1    2    0    0  0.12926677657E+02 -0.92670301284E+01 -0.13968365273E+02  0.21168449247E+02  0.10570000000E+00 0.  1.
<mgrwt>
<rscale>  0 0.36392494E+02</rscale>
<asrwt>0</asrwt>
<pdfrwt beam="2">  1        2 0.36384121E-02 0.36392494E+02</pdfrwt>
<pdfrwt beam="1">  1       -2 0.21538976E-02 0.36392494E+02</pdfrwt>
<totfact> 0.10225461E+06</totfact>
</mgrwt>
</event>
<event>
 4    1  0.3704929E-001  0.4932949E+02  0.7818608E-02  0.1448992E+00
          2   -1    0    0  501    0  0.00000000000E+00  0.00000000000E+00  0.54685921395E+01  0.54685927576E+01  0.26000000000E-02 0. -1.
         -2   -1    0    0    0  501 -0.00000000000E+00 -0.00000000000E+00 -0.11124428780E+03  0.11124428783E+03  0.26000000000E-02 0.  1.
        -13    1    1    2    0    0 -0.42744126788E+01 -0.18244531322E+02 -0.14943085639E+02  0.23967488559E+02  0.10570000000E+00 0. -1.
         13    1    1    2    0    0  0.42744126788E+01  0.18244531322E+02 -0.90832610024E+02  0.92745392032E+02  0.10570000000E+00 0.  1.
<mgrwt>
<rscale>  0 0.49329491E+02</rscale>
<asrwt>0</asrwt>
<pdfrwt beam="1">  1        2 0.84132200E-03 0.49329491E+02</pdfrwt>
<pdfrwt beam="2">  1       -2 0.17114504E-01 0.49329491E+02</pdfrwt>
<totfact> 0.35477877E+05</totfact>
</mgrwt>
</event>
<event>
 4    1  0.3704929E-001  0.4336925E+02  0.7818608E-02  0.1484787E+00
          2   -1    0    0  501    0  0.00000000000E+00  0.00000000000E+00  0.63969231759E+01  0.63969237043E+01  0.26000000000E-02 0.  1.
         -2   -1    0    0    0  501 -0.00000000000E+00 -0.00000000000E+00 -0.73507658083E+02  0.73507658129E+02  0.26000000000E-02 0. -1.
        -13    1    1    2    0    0  0.18827350962E+02 -0.10559855357E+02 -0.29765161738E+02  0.36768950422E+02  0.10570000000E+00 0.  1.
         13    1    1    2    0    0 -0.18827350962E+02  0.10559855357E+02 -0.37345573169E+02  0.43135631411E+02  0.10570000000E+00 0. -1.
<mgrwt>
<rscale>  0 0.43369246E+02</rscale>
<asrwt>0</asrwt>
<pdfrwt beam="1">  1        2 0.98414213E-03 0.43369246E+02</pdfrwt>
<pdfrwt beam="2">  1       -2 0.11308870E-01 0.43369246E+02</pdfrwt>
<totfact> 0.53411787E+05</totfact>
</mgrwt>
</event>
<event>
 4    1  0.3704929E-001  0.3241280E+02  0.7818608E-02  0.1572854E+00
         -2   -1    0    0    0  501 -0.00000000000E+00  0.00000000000E+00  0.75672341820E+01  0.75672346287E+01  0.26000000000E-02 0. -1.
          2   -1    0    0  501    0  0.00000000000E+00 -0.00000000000E+00 -0.34708502317E+02  0.34708502414E+02  0.26000000000E-02 0.  1.
        -13    1    1    2    0    0 -0.12194498378E+02 -0.71083624164E+01 -0.23956070646E+02  0.27805378980E+02  0.10570000000E+00 0.  1.
         13    1    1    2    0    0  0.12194498378E+02  0.71083624164E+01 -0.31851974886E+01  0.14470358063E+02  0.10570000000E+00 0. -1.
<mgrwt>
<rscale>  0 0.32412798E+02</rscale>
<asrwt>0</asrwt>
<pdfrwt beam="2">  1        2 0.53397695E-02 0.32412798E+02</pdfrwt>
<pdfrwt beam="1">  1       -2 0.11641899E-02 0.32412798E+02</pdfrwt>
<totfact> 0.14292561E+06</totfact>
</mgrwt>
</event>
<event>
 4    1  0.3704929E-001  0.6545380E+02  0.7818608E-02  0.1376273E+00
          2   -1    0    0  501    0  0.00000000000E+00  0.00000000000E+00  0.91467686737E+01  0.91467690432E+01  0.26000000000E-02 0. -1.
         -2   -1    0    0    0  501 -0.00000000000E+00 -0.00000000000E+00 -0.11709600416E+03  0.11709600419E+03  0.26000000000E-02 0.  1.
        -13    1    1    2    0    0 -0.26000860538E+02 -0.86484032445E+01 -0.19461688508E+02  0.33609643251E+02  0.10570000000E+00 0. -1.
         13    1    1    2    0    0  0.26000860538E+02  0.86484032445E+01 -0.88487546978E+02  0.92633129981E+02  0.10570000000E+00 0.  1.
<mgrwt>
<rscale>  0 0.65453803E+02</rscale>
<asrwt>0</asrwt>
<pdfrwt beam="1">  1        2 0.14071953E-02 0.65453803E+02</pdfrwt>
<pdfrwt beam="2">  1       -2 0.18014769E-01 0.65453803E+02</pdfrwt>
<totfact> 0.17411396E+05</totfact>
</mgrwt>
</event>
<event>
 4    1  0.3704929E-001  0.2416112E+02  0.7818608E-02  0.1673352E+00
         -2   -1    0    0    0  501 -0.00000000000E+00  0.00000000000E+00  0.48983369074E+02  0.48983369143E+02  0.26000000000E-02 0.  1.
          2   -1    0    0  501    0  0.00000000000E+00 -0.00000000000E+00 -0.29793759280E+01  0.29793770624E+01  0.26000000000E-02 0. -1.
        -13    1    1    2    0    0 -0.22568594811E+01 -0.98535736418E+01  0.87778445754E+01  0.13388355243E+02  0.10570000000E+00 0.  1.
         13    1    1    2    0    0  0.22568594811E+01  0.98535736418E+01  0.37226148571E+02  0.38574390962E+02  0.10570000000E+00 0. -1.
<mgrwt>
<rscale>  0 0.24161118E+02</rscale>
<asrwt>0</asrwt>
<pdfrwt beam="2">  1        2 0.45836567E-03 0.24161118E+02</pdfrwt>
<pdfrwt beam="1">  1       -2 0.75359023E-02 0.24161118E+02</pdfrwt>
<totfact> 0.22358208E+06</totfact>
</mgrwt>
</event>
<event>
 4    1  0.3704929E-001  0.6028174E+02  0.7818608E-02  0.1396653E+00
         -2   -1    0    0    0  501 -0.00000000000E+00  0.00000000000E+00  0.30249905281E+02  0.30249905393E+02  0.26000000000E-02 0. -1.
          2   -1    0    0  501    0  0.00000000000E+00 -0.00000000000E+00 -0.30032223535E+02  0.30032223647E+02  0.26000000000E-02 0.  1.
        -13    1    1    2    0    0  0.12101775288E+02 -0.20629112328E+02 -0.18233784300E+02  0.30074828394E+02  0.10570000000E+00 0.  1.
         13    1    1    2    0    0 -0.12101775288E+02  0.20629112328E+02  0.18451466047E+02  0.30207300646E+02  0.10570000000E+00 0. -1.
<mgrwt>
<rscale>  0 0.60281736E+02</rscale>
<asrwt>0</asrwt>
<pdfrwt beam="2">  1        2 0.46203421E-02 0.60281736E+02</pdfrwt>
<pdfrwt beam="1">  1       -2 0.46538316E-02 0.60281736E+02</pdfrwt>
<totfact> 0.28537456E+05</totfact>
</mgrwt>
</event>
<event>
 4    1  0.3704929E-001  0.4526780E+02  0.7818608E-02  0.1472677E+00
         -2   -1    0    0    0  501 -0.00000000000E+00  0.00000000000E+00  0.28981716257E+01  0.28981727919E+01  0.26000000000E-02 0. -1.
          2   -1    0    0  501    0  0.00000000000E+00 -0.00000000000E+00 -0.17676435014E+03  0.17676435015E+03  0.26000000000E-02 0.  1.
        -13    1    1    2    0    0  0.15339193153E+02  0.14776138739E+02 -0.11732995867E+03  0.11924745488E+03  0.10570000000E+00 0. -1.
         13    1    1    2    0    0 -0.15339193153E+02 -0.14776138739E+02 -0.56536219844E+02  0.60415068065E+02  0.10570000000E+00 0.  1.
<mgrwt>
<rscale>  0 0.45267804E+02</rscale>
<asrwt>0</asrwt>
<pdfrwt beam="2">  1        2 0.27194507E-01 0.45267804E+02</pdfrwt>
<pdfrwt beam="1">  1       -2 0.44587279E-03 0.45267804E+02</pdfrwt>
<totfact> 0.90585111E+05</totfact>
</mgrwt>
</event>
<event>
 4    1  0.3704929E-001  0.2822308E+02  0.7818608E-02  0.1618604E+00
         -2   -1    0    0    0  501 -0.00000000000E+00  0.00000000000E+00  0.78656925909E+01  0.78656930206E+01  0.26000000000E-02 0. -1.
          2   -1    0    0  501    0  0.00000000000E+00 -0.00000000000E+00 -0.25316969786E+02  0.25316969920E+02  0.26000000000E-02 0.  1.
        -13    1    1    2    0    0 -0.62589082964E+01 -0.11738784543E+02 -0.14259227780E+02  0.19501531862E+02  0.10570000000E+00 0.  1.
         13    1    1    2    0    0  0.62589082964E+01  0.11738784543E+02 -0.31920494155E+01  0.13681131078E+02  0.10570000000E+00 0. -1.
<mgrwt>
<rscale>  0 0.28223076E+02</rscale>
<asrwt>0</asrwt>
<pdfrwt beam="2">  1        2 0.38949184E-02 0.28223076E+02</pdfrwt>
<pdfrwt beam="1">  1       -2 0.12101066E-02 0.28223076E+02</pdfrwt>
<totfact> 0.19176146E+06</totfact>
</mgrwt>
</event>
<event>
 4    1  0.3704929E-001  0.4398183E+02  0.7818608E-02  0.1480800E+00
         -2   -1    0    0    0  501 -0.00000000000E+00  0.00000000000E+00  0.10247928438E+02  0.10247928767E+02  0.26000000000E-02 0. -1.
          2   -1    0    0  501    0  0.00000000000E+00 -0.00000000000E+00 -0.47190060111E+02  0.47190060182E+02  0.26000000000E-02 0.  1.
        -13    1    1    2    0    0 -0.11915869341E+02  0.94504583133E+01 -0.39214278341E+02  0.42060312680E+02  0.10570000000E+00 0.  1.
         13    1    1    2    0    0  0.11915869341E+02 -0.94504583133E+01  0.22721466675E+01  0.15377676270E+02  0.10570000000E+00 0. -1.
<mgrwt>
<rscale>  0 0.43981831E+02</rscale>
<asrwt>0</asrwt>
<pdfrwt beam="2">  1        2 0.72600091E-02 0.43981831E+02</pdfrwt>
<pdfrwt beam="1">  1       -2 0.15766044E-02 0.43981831E+02</pdfrwt>
<totfact> 0.70399600E+05</totfact>
</mgrwt>
</event>
<event>
 4    1  0.3704929E-001  0.3084519E+02  0.7818608E-02  0.1588930E+00
          2   -1    0    0  501    0  0.00000000000E+00  0.00000000000E+00  0.16647986667E+02  0.16647986870E+02  0.26000000000E-02 0. -1.
         -2   -1    0    0    0  501 -0.00000000000E+00 -0.00000000000E+00 -0.14287395060E+02  0.14287395296E+02  0.26000000000E-02 0.  1.
        -13    1    1    2    0    0 -0.76287619690E+01  0.13023107536E+02  0.43590841202E+01  0.15710255438E+02  0.10570000000E+00 0. -1.
         13    1    1    2    0    0  0.76287619690E+01 -0.13023107536E+02 -0.19984925132E+01  0.15225126728E+02  0.10570000000E+00 0.  1.
<mgrwt>
<rscale>  0 0.30845186E+02</rscale>
<asrwt>0</asrwt>
<pdfrwt beam="1">  1        2 0.25612287E-02 0.30845186E+02</pdfrwt>
<pdfrwt beam="2">  1       -2 0.21980608E-02 0.30845186E+02</pdfrwt>
<totfact> 0.14785107E+06</totfact>
</mgrwt>
</event>
<event>
 4    1  0.3704929E-001  0.7106544E+02  0.7818608E-02  0.1356507E+00
          2   -1    0    0  501    0  0.00000000000E+00  0.00000000000E+00  0.32430396123E+02  0.32430396228E+02  0.26000000000E-02 0. -1.
         -2   -1    0    0    0  501 -0.00000000000E+00 -0.00000000000E+00 -0.38931817930E+02  0.38931818017E+02  0.26000000000E-02 0.  1.
        -13    1    1    2    0    0 -0.12065431356E+02 -0.16184821070E+01  0.30270859913E+02  0.32627139784E+02  0.10570000000E+00 0. -1.
         13    1    1    2    0    0  0.12065431356E+02  0.16184821070E+01 -0.36772281720E+02  0.38735074461E+02  0.10570000000E+00 0.  1.
<mgrwt>
<rscale>  0 0.71065443E+02</rscale>
<asrwt>0</asrwt>
<pdfrwt beam="1">  1        2 0.49892917E-02 0.71065443E+02</pdfrwt>
<pdfrwt beam="2">  1       -2 0.59895104E-02 0.71065443E+02</pdfrwt>
<totfact> 0.18433638E+05</totfact>
</mgrwt>
</event>
<event>
 4    1  0.3704929E-001  0.4750847E+02  0.7818608E-02  0.1459263E+00
          2   -1    0    0  501    0  0.00000000000E+00  0.00000000000E+00  0.36901393662E+02  0.36901393753E+02  0.26000000000E-02 0. -1.
         -2   -1    0    0    0  501 -0.00000000000E+00 -0.00000000000E+00 -0.15291121549E+02  0.15291121770E+02  0.26000000000E-02 0.  1.
        -13    1    1    2    0    0 -0.72294544746E+01 -0.17441853815E+02  0.26640491531E+02  0.32652874881E+02  0.10570000000E+00 0. -1.
         13    1    1    2    0    0  0.72294544746E+01  0.17441853815E+02 -0.50302194181E+01  0.19539640641E+02  0.10570000000E+00 0.  1.
<mgrwt>
<rscale>  0 0.47508471E+02</rscale>
<asrwt>0</asrwt>
<pdfrwt beam="1">  1        2 0.56771374E-02 0.47508471E+02</pdfrwt>
<pdfrwt beam="2">  1       -2 0.23524803E-02 0.47508471E+02</pdfrwt>
<totfact> 0.55443473E+05</totfact>
</mgrwt>
</event>
<event>
 4    1  0.3704929E-001  0.6145895E+02  0.7818608E-02  0.1391809E+00
          2   -1    0    0  501    0  0.00000000000E+00  0.00000000000E+00  0.61194340931E+02  0.61194340986E+02  0.26000000000E-02 0.  1.
         -2   -1    0    0    0  501 -0.00000000000E+00 -0.00000000000E+00 -0.15431174168E+02  0.15431174388E+02  0.26000000000E-02 0. -1.
        -13    1    1    2    0    0 -0.21565786412E+01  0.28169320165E+02  0.78101372494E+01  0.29311616235E+02  0.10570000000E+00 0. -1.
         13    1    1    2    0    0  0.21565786412E+01 -0.28169320165E+02  0.37953029513E+02  0.47313899138E+02  0.10570000000E+00 0.  1.
<mgrwt>
<rscale>  0 0.61458947E+02</rscale>
<asrwt>0</asrwt>
<pdfrwt beam="1">  1        2 0.94145138E-02 0.61458947E+02</pdfrwt>
<pdfrwt beam="2">  1       -2 0.23740269E-02 0.61458947E+02</pdfrwt>
<totfact> 0.31233602E+05</totfact>
</mgrwt>
</event>
<event>
 4    1  0.3704929E-001  0.2315612E+02  0.7818608E-02  0.1688992E+00
          2   -1    0    0  501    0  0.00000000000E+00  0.00000000000E+00  0.20759332612E+02  0.20759332775E+02  0.26000000000E-02 0.  1.
         -2   -1    0    0    0  501 -0.00000000000E+00 -0.00000000000E+00 -0.64574060781E+01  0.64574066015E+01  0.26000000000E-02 0. -1.
        -13    1    1    2    0    0  0.11279773144E+02 -0.12876520586E+01  0.98180035147E+01  0.15009853281E+02  0.10570000000E+00 0.  1.
         13    1    1    2    0    0 -0.11279773144E+02  0.12876520586E+01  0.44839230192E+01  0.12206886095E+02  0.10570000000E+00 0. -1.
<mgrwt>
<rscale>  0 0.23156118E+02</rscale>
<asrwt>0</asrwt>
<pdfrwt beam="1">  1        2 0.31937435E-02 0.23156118E+02</pdfrwt>
<pdfrwt beam="2">  1       -2 0.99344715E-03 0.23156118E+02</pdfrwt>
<totfact> 0.29915712E+06</totfact>
</mgrwt>
</event>
<event>
 4    1  0.3704929E-001  0.2799966E+02  0.7818608E-02  0.1621314E+00
         -2   -1    0    0    0  501 -0.00000000000E+00  0.00000000000E+00  0.16244090636E+02  0.16244090844E+02  0.26000000000E-02 0.  1.
          2   -1    0    0  501    0  0.00000000000E+00 -0.00000000000E+00 -0.12065629975E+02  0.12065630255E+02  0.26000000000E-02 0. -1.
        -13    1    1    2    0    0 -0.65850555109E+01  0.12330334624E+02  0.13166261304E+01  0.14040825648E+02  0.10570000000E+00 0. -1.
         13    1    1    2    0    0  0.65850555109E+01 -0.12330334624E+02  0.28618345308E+01  0.14268895451E+02  0.10570000000E+00 0.  1.
<mgrwt>
<rscale>  0 0.27999657E+02</rscale>
<asrwt>0</asrwt>
<pdfrwt beam="2">  1        2 0.18562508E-02 0.27999657E+02</pdfrwt>
<pdfrwt beam="1">  1       -2 0.24990909E-02 0.27999657E+02</pdfrwt>
<totfact> 0.18127765E+06</totfact>
</mgrwt>
</event>
<event>
 4    1  0.3704929E-001  0.2518166E+02  0.7818608E-02  0.1658406E+00
         -2   -1    0    0    0  501 -0.00000000000E+00  0.00000000000E+00  0.24039274790E+01  0.24039288850E+01  0.26000000000E-02 0.  1.
          2   -1    0    0  501    0  0.00000000000E+00 -0.00000000000E+00 -0.65945802510E+02  0.65945802562E+02  0.26000000000E-02 0. -1.
        -13    1    1    2    0    0 -0.11036081140E+02 -0.54855197234E+00 -0.48151667010E+02  0.49403342038E+02  0.10570000000E+00 0. -1.
         13    1    1    2    0    0  0.11036081140E+02  0.54855197234E+00 -0.15390208021E+02  0.18946389408E+02  0.10570000000E+00 0.  1.
<mgrwt>
<rscale>  0 0.25181658E+02</rscale>
<asrwt>0</asrwt>
<pdfrwt beam="2">  1        2 0.10145507E-01 0.25181658E+02</pdfrwt>
<pdfrwt beam="1">  1       -2 0.36983516E-03 0.25181658E+02</pdfrwt>
<totfact> 0.28775101E+06</totfact>
</mgrwt>
</event>
<event>
 4    1  0.3704929E-001  0.2625610E+02  0.7818608E-02  0.1643589E+00
          2   -1    0    0  501    0  0.00000000000E+00  0.00000000000E+00  0.32439889392E+02  0.32439889496E+02  0.26000000000E-02 0. -1.
         -2   -1    0    0    0  501 -0.00000000000E+00 -0.00000000000E+00 -0.53127712675E+01  0.53127719037E+01  0.26000000000E-02 0.  1.
        -13    1    1    2    0    0  0.56312856179E+01  0.10475941248E+02  0.55736707006E+01  0.13135208423E+02  0.10570000000E+00 0. -1.
         13    1    1    2    0    0 -0.56312856179E+01 -0.10475941248E+02  0.21553447424E+02  0.24617452977E+02  0.10570000000E+00 0.  1.
<mgrwt>
<rscale>  0 0.26256102E+02</rscale>
<asrwt>0</asrwt>
<pdfrwt beam="1">  1        2 0.49907522E-02 0.26256102E+02</pdfrwt>
<pdfrwt beam="2">  1       -2 0.81734949E-03 0.26256102E+02</pdfrwt>
<totfact> 0.23427819E+06</totfact>
</mgrwt>
</event>
<event>
 4    1  0.3704929E-001  0.3114459E+02  0.7818608E-02  0.1585771E+00
          2   -1    0    0  501    0  0.00000000000E+00  0.00000000000E+00  0.18876492424E+02  0.18876492603E+02  0.26000000000E-02 0.  1.
         -2   -1    0    0    0  501 -0.00000000000E+00 -0.00000000000E+00 -0.12846470713E+02  0.12846470976E+02  0.26000000000E-02 0. -1.
        -13    1    1    2    0    0 -0.12277763483E+02 -0.84126033505E+01 -0.16493057618E+01  0.14974870726E+02  0.10570000000E+00 0. -1.
         13    1    1    2    0    0  0.12277763483E+02  0.84126033505E+01  0.76793274732E+01  0.16748092853E+02  0.10570000000E+00 0.  1.
<mgrwt>
<rscale>  0 0.31144586E+02</rscale>
<asrwt>0</asrwt>
<pdfrwt beam="1">  1        2 0.29040758E-02 0.31144586E+02</pdfrwt>
<pdfrwt beam="2">  1       -2 0.19763802E-02 0.31144586E+02</pdfrwt>
<totfact> 0.14634926E+06</totfact>
</mgrwt>
</event>
<event>
 4    1  0.3704929E-001  0.2442670E+02  0.7818608E-02  0.1669376E+00
          2   -1    0    0  501    0  0.00000000000E+00  0.00000000000E+00  0.12965666049E+02  0.12965666310E+02  0.26000000000E-02 0.  1.
         -2   -1    0    0    0  501 -0.00000000000E+00 -0.00000000000E+00 -0.11504686366E+02  0.11504686659E+02  0.26000000000E-02 0. -1.
        -13    1    1    2    0    0  0.68069333825E+00 -0.10290907573E+02  0.72834817218E+01  0.12626416775E+02  0.10570000000E+00 0.  1.
         13    1    1    2    0    0 -0.68069333825E+00  0.10290907573E+02 -0.58225020383E+01  0.11843936194E+02  0.10570000000E+00 0. -1.
<mgrwt>
<rscale>  0 0.24426701E+02</rscale>
<asrwt>0</asrwt>
<pdfrwt beam="1">  1        2 0.19947179E-02 0.24426701E+02</pdfrwt>
<pdfrwt beam="2">  1       -2 0.17699518E-02 0.24426701E+02</pdfrwt>
<totfact> 0.25312710E+06</totfact>
</mgrwt>
</event>
<event>
 4    1  0.3704929E-001  0.9497672E+02  0.7818608E-02  0.1291229E+00
         -2   -1    0    0    0  501 -0.00000000000E+00  0.00000000000E+00  0.74764934863E+02  0.74764934908E+02  0.26000000000E-02 0.  1.
          2   -1    0    0  501    0  0.00000000000E+00 -0.00000000000E+00 -0.30163128537E+02  0.30163128649E+02  0.26000000000E-02 0. -1.
        -13    1    1    2    0    0  0.25532779397E+02 -0.40024414179E+02  0.21062457897E+02  0.51937605444E+02  0.10570000000E+00 0. -1.
         13    1    1    2    0    0 -0.25532779397E+02  0.40024414179E+02  0.23539348428E+02  0.52990458113E+02  0.10570000000E+00 0.  1.
<mgrwt>
<rscale>  0 0.94976720E+02</rscale>
<asrwt>0</asrwt>
<pdfrwt beam="2">  1        2 0.46404813E-02 0.94976720E+02</pdfrwt>
<pdfrwt beam="1">  1       -2 0.11502298E-01 0.94976720E+02</pdfrwt>
<totfact> 0.78431463E+04</totfact>
</mgrwt>
</event>
<event>
 4    1  0.3704929E-001  0.2640550E+02  0.7818608E-02  0.1641598E+00
          2   -1    0    0  501    0  0.00000000000E+00  0.00000000000E+00  0.10110785953E+02  0.10110786288E+02  0.26000000000E-02 0. -1.
         -2   -1    0    0    0  501 -0.00000000000E+00 -0.00000000000E+00 -0.17240260984E+02  0.17240261180E+02  0.26000000000E-02 0.  1.
        -13    1    1    2    0    0 -0.13077539494E+02  0.12075642636E+01 -0.21669049718E+01  0.13311156986E+02  0.10570000000E+00 0. -1.
         13    1    1    2    0    0  0.13077539494E+02 -0.12075642636E+01 -0.49625700591E+01  0.14039890482E+02  0.10570000000E+00 0.  1.
<mgrwt>
<rscale>  0 0.26405499E+02</rscale>
<asrwt>0</asrwt>
<pdfrwt beam="1">  1        2 0.15555056E-02 0.26405499E+02</pdfrwt>
<pdfrwt beam="2">  1       -2 0.26523479E-02 0.26405499E+02</pdfrwt>
<totfact> 0.20549167E+06</totfact>
</mgrwt>
</event>
<event>
 4    1  0.3704929E-001  0.5940810E+02  0.7818608E-02  0.1400333E+00
          2   -1    0    0  501    0  0.00000000000E+00  0.00000000000E+00  0.14232388483E+02  0.14232388720E+02  0.26000000000E-02 0. -1.
         -2   -1    0    0    0  501 -0.00000000000E+00 -0.00000000000E+00 -0.61994562341E+02  0.61994562395E+02  0.26000000000E-02 0.  1.
        -13    1    1    2    0    0 -0.11913226132E+02  0.24557570462E+02 -0.88451586878E+01  0.28692285175E+02  0.10570000000E+00 0. -1.
         13    1    1    2    0    0  0.11913226132E+02 -0.24557570462E+02 -0.38917015170E+02  0.47534665941E+02  0.10570000000E+00 0.  1.
<mgrwt>
<rscale>  0 0.59408104E+02</rscale>
<asrwt>0</asrwt>
<pdfrwt beam="1">  1        2 0.21895983E-02 0.59408104E+02</pdfrwt>
<pdfrwt beam="2">  1       -2 0.95376249E-02 0.59408104E+02</pdfrwt>
<totfact> 0.25806740E+05</totfact>
</mgrwt>
</event>
<event>
 4    1  0.3704929E-001  0.4990849E+02  0.7818608E-02  0.1445836E+00
          2   -1    0    0  501    0  0.00000000000E+00  0.00000000000E+00  0.47249450639E+02  0.47249450711E+02  0.26000000000E-02 0. -1.
         -2   -1    0    0    0  501 -0.00000000000E+00 -0.00000000000E+00 -0.13179293797E+02  0.13179294053E+02  0.26000000000E-02 0.  1.
        -13    1    1    2    0    0 -0.93856020642E+01 -0.22127986211E+02  0.25154234855E+02  0.34792010627E+02  0.10570000000E+00 0. -1.
         13    1    1    2    0    0  0.93856020642E+01  0.22127986211E+02  0.89159219879E+01  0.25636734137E+02  0.10570000000E+00 0.  1.
<mgrwt>
<rscale>  0 0.49908492E+02</rscale>
<asrwt>0</asrwt>
<pdfrwt beam="1">  1        2 0.72691462E-02 0.49908492E+02</pdfrwt>
<pdfrwt beam="2">  1       -2 0.20275837E-02 0.49908492E+02</pdfrwt>
<totfact> 0.50996818E+05</totfact>
</mgrwt>
</event>
<event>
 4    1  0.3704929E-001  0.5849761E+02  0.7818608E-02  0.1404247E+00
         -2   -1    0    0    0  501 -0.00000000000E+00  0.00000000000E+00  0.94674261328E+02  0.94674261364E+02  0.26000000000E-02 0. -1.
          2   -1    0    0  501    0  0.00000000000E+00 -0.00000000000E+00 -0.90361683019E+01  0.90361686760E+01  0.26000000000E-02 0.  1.
        -13    1    1    2    0    0  0.12748820474E+02 -0.23606348351E+02  0.22167284102E+02  0.34802180433E+02  0.10570000000E+00 0.  1.
         13    1    1    2    0    0 -0.12748820474E+02  0.23606348351E+02  0.63470808924E+02  0.68908249607E+02  0.10570000000E+00 0. -1.
<mgrwt>
<rscale>  0 0.58497610E+02</rscale>
<asrwt>0</asrwt>
<pdfrwt beam="2">  1        2 0.13901797E-02 0.58497610E+02</pdfrwt>
<pdfrwt beam="1">  1       -2 0.14565272E-01 0.58497610E+02</pdfrwt>
<totfact> 0.24356755E+05</totfact>
</mgrwt>
</event>
<event>
 4    1  0.3704929E-001  0.2644437E+02  0.7818608E-02  0.1641083E+00
         -2   -1    0    0    0  501 -0.00000000000E+00  0.00000000000E+00  0.70982385443E+01  0.70982390205E+01  0.26000000000E-02 0.  1.
          2   -1    0    0  501    0  0.00000000000E+00 -0.00000000000E+00 -0.24629513227E+02  0.24629513364E+02  0.26000000000E-02 0. -1.
        -13    1    1    2    0    0  0.11918742387E+02 -0.49135727340E+01 -0.12287264024E+02  0.17809762682E+02  0.10570000000E+00 0. -1.
         13    1    1    2    0    0 -0.11918742387E+02  0.49135727340E+01 -0.52440106587E+01  0.13917989703E+02  0.10570000000E+00 0.  1.
<mgrwt>
<rscale>  0 0.26444370E+02</rscale>
<asrwt>0</asrwt>
<pdfrwt beam="2">  1        2 0.37891559E-02 0.26444370E+02</pdfrwt>
<pdfrwt beam="1">  1       -2 0.10920368E-02 0.26444370E+02</pdfrwt>
<totfact> 0.22313231E+06</totfact>
</mgrwt>
</event>
<event>
 4    1  0.3704929E-001  0.2935337E+02  0.7818608E-02  0.1605348E+00
          2   -1    0    0  501    0  0.00000000000E+00  0.00000000000E+00  0.32836674919E+02  0.32836675022E+02  0.26000000000E-02 0.  1.
         -2   -1    0    0    0  501 -0.00000000000E+00 -0.00000000000E+00 -0.65598934536E+01  0.65598939688E+01  0.26000000000E-02 0. -1.
        -13    1    1    2    0    0 -0.63116451952E+01  0.12207574726E+02  0.62250668471E+01  0.15087225573E+02  0.10570000000E+00 0. -1.
         13    1    1    2    0    0  0.63116451952E+01 -0.12207574726E+02  0.20051714618E+02  0.24309343417E+02  0.10570000000E+00 0.  1.
<mgrwt>
<rscale>  0 0.29353371E+02</rscale>
<asrwt>0</asrwt>
<pdfrwt beam="1">  1        2 0.50517960E-02 0.29353371E+02</pdfrwt>
<pdfrwt beam="2">  1       -2 0.10092145E-02 0.29353371E+02</pdfrwt>
<totfact> 0.18017433E+06</totfact>
</mgrwt>
</event>
<event>
 4    1  0.3704929E-001  0.2240614E+02  0.7818608E-02  0.1701321E+00
          2   -1    0    0  501    0  0.00000000000E+00  0.00000000000E+00  0.52303814656E+02  0.52303814720E+02  0.26000000000E-02 0.  1.
         -2   -1    0    0    0  501 -0.00000000000E+00 -0.00000000000E+00 -0.23996092245E+01  0.23996106330E+01  0.26000000000E-02 0. -1.
        -13    1    1    2    0    0  0.97753319295E+01 -0.36255753353E+01  0.34957773721E+02  0.36479569992E+02  0.10570000000E+00 0.  1.
         13    1    1    2    0    0 -0.97753319295E+01  0.36255753353E+01  0.14946431711E+02  0.18223855361E+02  0.10570000000E+00 0. -1.
<mgrwt>
<rscale>  0 0.22406138E+02</rscale>
<asrwt>0</asrwt>
<pdfrwt beam="1">  1        2 0.80467400E-02 0.22406138E+02</pdfrwt>
<pdfrwt beam="2">  1       -2 0.36917080E-03 0.22406138E+02</pdfrwt>
<totfact> 0.36126656E+06</totfact>
</mgrwt>
</event>
<event>
 4    1  0.3704929E-001  0.7304409E+02  0.7818608E-02  0.1350037E+00
          2   -1    0    0  501    0  0.00000000000E+00  0.00000000000E+00  0.13471330128E+02  0.13471330379E+02  0.26000000000E-02 0. -1.
         -2   -1    0    0    0  501 -0.00000000000E+00 -0.00000000000E+00 -0.99014712949E+02  0.99014712984E+02  0.26000000000E-02 0.  1.
        -13    1    1    2    0    0  0.79422546436E+01 -0.34660531492E+02 -0.29941117796E+02  0.46485627451E+02  0.10570000000E+00 0. -1.
         13    1    1    2    0    0 -0.79422546436E+01  0.34660531492E+02 -0.55602265025E+02  0.66000415912E+02  0.10570000000E+00 0.  1.
<mgrwt>
<rscale>  0 0.73044094E+02</rscale>
<asrwt>0</asrwt>
<pdfrwt beam="1">  1        2 0.20725124E-02 0.73044094E+02</pdfrwt>
<pdfrwt beam="2">  1       -2 0.15233032E-01 0.73044094E+02</pdfrwt>
<totfact> 0.13895605E+05</totfact>
</mgrwt>
</event>
<event>
 4    1  0.3704929E-001  0.2234525E+02  0.7818608E-02  0.1702349E+00
          2   -1    0    0  501    0  0.00000000000E+00  0.00000000000E+00  0.24144246108E+01  0.24144260108E+01  0.26000000000E-02 0. -1.
         -2   -1    0    0    0  501 -0.00000000000E+00 -0.00000000000E+00 -0.51700739656E+02  0.51700739721E+02  0.26000000000E-02 0.  1.
        -13    1    1    2    0    0 -0.10722868792E+02 -0.29790614890E+01 -0.22268233773E+02  0.24894580341E+02  0.10570000000E+00 0.  1.
         13    1    1    2    0    0  0.10722868792E+02  0.29790614890E+01 -0.27018081272E+02  0.29220585391E+02  0.10570000000E+00 0. -1.
<mgrwt>
<rscale>  0 0.22345253E+02</rscale>
<asrwt>0</asrwt>
<pdfrwt beam="1">  1        2 0.37145009E-03 0.22345253E+02</pdfrwt>
<pdfrwt beam="2">  1       -2 0.79539593E-02 0.22345253E+02</pdfrwt>
<totfact> 0.26415152E+06</totfact>
</mgrwt>
</event>
<event>
 4    1  0.3704929E-001  0.3506092E+02  0.7818608E-02  0.1548060E+00
         -2   -1    0    0    0  501 -0.00000000000E+00  0.00000000000E+00  0.10759688158E+02  0.10759688472E+02  0.26000000000E-02 0. -1.
          2   -1    0    0  501    0  0.00000000000E+00 -0.00000000000E+00 -0.28561892328E+02  0.28561892446E+02  0.26000000000E-02 0.  1.
        -13    1    1    2    0    0  0.67899403222E+01 -0.10438651485E+02  0.49367272135E+01  0.13395939029E+02  0.10570000000E+00 0. -1.
         13    1    1    2    0    0 -0.67899403222E+01  0.10438651485E+02 -0.22738931384E+02  0.25925641889E+02  0.10570000000E+00 0.  1.
<mgrwt>
<rscale>  0 0.35060922E+02</rscale>
<asrwt>0</asrwt>
<pdfrwt beam="2">  1        2 0.43941373E-02 0.35060922E+02</pdfrwt>
<pdfrwt beam="1">  1       -2 0.16553367E-02 0.35060922E+02</pdfrwt>
<totfact> 0.11491214E+06</totfact>
</mgrwt>
</event>
<event>
 4    1  0.3704929E-001  0.2637438E+02  0.7818608E-02  0.1642011E+00
         -2   -1    0    0    0  501 -0.00000000000E+00  0.00000000000E+00  0.29335950713E+02  0.29335950828E+02  0.26000000000E-02 0. -1.
          2   -1    0    0  501    0  0.00000000000E+00 -0.00000000000E+00 -0.59279465015E+01  0.59279470717E+01  0.26000000000E-02 0.  1.
        -13    1    1    2    0    0  0.11794790932E+02  0.21998762182E+01  0.19019302813E+02  0.22487810042E+02  0.10570000000E+00 0.  1.
         13    1    1    2    0    0 -0.11794790932E+02 -0.21998762182E+01  0.43887013983E+01  0.12776087858E+02  0.10570000000E+00 0. -1.
<mgrwt>
<rscale>  0 0.26374378E+02</rscale>
<asrwt>0</asrwt>
<pdfrwt beam="2">  1        2 0.91199184E-03 0.26374378E+02</pdfrwt>
<pdfrwt beam="1">  1       -2 0.45132231E-02 0.26374378E+02</pdfrwt>
<totfact> 0.19547368E+06</totfact>
</mgrwt>
</event>
<event>
 4    1  0.3704929E-001  0.2409425E+02  0.7818608E-02  0.1674363E+00
          2   -1    0    0  501    0  0.00000000000E+00  0.00000000000E+00  0.74328284821E+01  0.74328289368E+01  0.26000000000E-02 0.  1.
         -2   -1    0    0    0  501 -0.00000000000E+00 -0.00000000000E+00 -0.19525979787E+02  0.19525979960E+02  0.26000000000E-02 0. -1.
        -13    1    1    2    0    0 -0.39535731004E+01  0.11159330440E+02 -0.85386364664E+01  0.14597290205E+02  0.10570000000E+00 0.  1.
         13    1    1    2    0    0  0.39535731004E+01 -0.11159330440E+02 -0.35545148384E+01  0.12361518692E+02  0.10570000000E+00 0. -1.
<mgrwt>
<rscale>  0 0.24094254E+02</rscale>
<asrwt>0</asrwt>
<pdfrwt beam="1">  1        2 0.11435121E-02 0.24094254E+02</pdfrwt>
<pdfrwt beam="2">  1       -2 0.30039969E-02 0.24094254E+02</pdfrwt>
<totfact> 0.24916272E+06</totfact>
</mgrwt>
</event>
<event>
 4    1  0.3704929E-001  0.2355550E+02  0.7818608E-02  0.1682661E+00
         -2   -1    0    0    0  501 -0.00000000000E+00  0.00000000000E+00  0.28005217033E+02  0.28005217154E+02  0.26000000000E-02 0.  1.
          2   -1    0    0  501    0  0.00000000000E+00 -0.00000000000E+00 -0.49531984278E+01  0.49531991102E+01  0.26000000000E-02 0. -1.
        -13    1    1    2    0    0 -0.11078234140E+02  0.17034882944E+01  0.64666399180E+01  0.12940546679E+02  0.10570000000E+00 0. -1.
         13    1    1    2    0    0  0.11078234140E+02 -0.17034882944E+01  0.16585378687E+02  0.20017869585E+02  0.10570000000E+00 0.  1.
<mgrwt>
<rscale>  0 0.23555501E+02</rscale>
<asrwt>0</asrwt>
<pdfrwt beam="2">  1        2 0.76203060E-03 0.23555501E+02</pdfrwt>
<pdfrwt beam="1">  1       -2 0.43084949E-02 0.23555501E+02</pdfrwt>
<totfact> 0.25314764E+06</totfact>
</mgrwt>
</event>
<event>
 4    1  0.3704929E-001  0.7004082E+02  0.7818608E-02  0.1359954E+00
          2   -1    0    0  501    0  0.00000000000E+00  0.00000000000E+00  0.34176574316E+02  0.34176574415E+02  0.26000000000E-02 0.  1.
         -2   -1    0    0    0  501 -0.00000000000E+00 -0.00000000000E+00 -0.35885083958E+02  0.35885084053E+02  0.26000000000E-02 0. -1.
        -13    1    1    2    0    0 -0.23454669444E+02 -0.21131691662E+02  0.14307699763E+02  0.34661092831E+02  0.10570000000E+00 0.  1.
         13    1    1    2    0    0  0.23454669444E+02  0.21131691662E+02 -0.16016209405E+02  0.35400565637E+02  0.10570000000E+00 0. -1.
<mgrwt>
<rscale>  0 0.70040824E+02</rscale>
<asrwt>0</asrwt>
<pdfrwt beam="1">  1        2 0.52579346E-02 0.70040824E+02</pdfrwt>
<pdfrwt beam="2">  1       -2 0.55207821E-02 0.70040824E+02</pdfrwt>
<totfact> 0.19404042E+05</totfact>
</mgrwt>
</event>
<event>
 4    1  0.3704929E-001  0.2188194E+02  0.7818608E-02  0.1710302E+00
         -2   -1    0    0    0  501 -0.00000000000E+00  0.00000000000E+00  0.48757238546E+02  0.48757238616E+02  0.26000000000E-02 0.  1.
          2   -1    0    0  501    0  0.00000000000E+00 -0.00000000000E+00 -0.24551193628E+01  0.24551207395E+01  0.26000000000E-02 0. -1.
        -13    1    1    2    0    0 -0.50698564362E+01  0.96621248740E+01  0.21288124665E+02  0.23921862921E+02  0.10570000000E+00 0. -1.
         13    1    1    2    0    0  0.50698564362E+01 -0.96621248740E+01  0.25013994518E+02  0.27290496434E+02  0.10570000000E+00 0.  1.
<mgrwt>
<rscale>  0 0.21881945E+02</rscale>
<asrwt>0</asrwt>
<pdfrwt beam="2">  1        2 0.37771079E-03 0.21881945E+02</pdfrwt>
<pdfrwt beam="1">  1       -2 0.75011136E-02 0.21881945E+02</pdfrwt>
<totfact> 0.27908520E+06</totfact>
</mgrwt>
</event>
<event>
 4    1  0.3704929E-001  0.3440731E+02  0.7818608E-02  0.1553928E+00
          2   -1    0    0  501    0  0.00000000000E+00  0.00000000000E+00  0.69230326535E+01  0.69230331418E+01  0.26000000000E-02 0. -1.
         -2   -1    0    0    0  501 -0.00000000000E+00 -0.00000000000E+00 -0.42750882550E+02  0.42750882629E+02  0.26000000000E-02 0.  1.
        -13    1    1    2    0    0  0.34257305523E+01 -0.13408083123E+02 -0.32668130138E+02  0.35478588219E+02  0.10570000000E+00 0.  1.
         13    1    1    2    0    0 -0.34257305523E+01  0.13408083123E+02 -0.31597197582E+01  0.14195327551E+02  0.10570000000E+00 0. -1.
<mgrwt>
<rscale>  0 0.34407311E+02</rscale>
<asrwt>0</asrwt>
<pdfrwt beam="1">  1        2 0.10650820E-02 0.34407311E+02</pdfrwt>
<pdfrwt beam="2">  1       -2 0.65770587E-02 0.34407311E+02</pdfrwt>
<totfact> 0.10130099E+06</totfact>
</mgrwt>
</event>
<event>
 4    1  0.3704929E-001  0.6561532E+02  0.7818608E-02  0.1375672E+00
          2   -1    0    0  501    0  0.00000000000E+00  0.00000000000E+00  0.11986844886E+02  0.11986845168E+02  0.26000000000E-02 0. -1.
         -2   -1    0    0    0  501 -0.00000000000E+00 -0.00000000000E+00 -0.89793643378E+02  0.89793643415E+02  0.26000000000E-02 0.  1.
        -13    1    1    2    0    0 -0.10001879277E+02  0.10577143356E+02  0.67025117697E+01  0.16026490170E+02  0.10570000000E+00 0. -1.
         13    1    1    2    0    0  0.10001879277E+02 -0.10577143356E+02 -0.84509310261E+02  0.85753998414E+02  0.10570000000E+00 0.  1.
<mgrwt>
<rscale>  0 0.65615318E+02</rscale>
<asrwt>0</asrwt>
<pdfrwt beam="1">  1        2 0.18441301E-02 0.65615318E+02</pdfrwt>
<pdfrwt beam="2">  1       -2 0.13814406E-01 0.65615318E+02</pdfrwt>
<totfact> 0.18596559E+05</totfact>
</mgrwt>
</event>
<event>
 4    1  0.3704929E-001  0.3807336E+02  0.7818608E-02  0.1522888E+00
          2   -1    0    0  501    0  0.00000000000E+00  0.00000000000E+00  0.26111142781E+02  0.26111142910E+02  0.26000000000E-02 0.  1.
         -2   -1    0    0    0  501 -0.00000000000E+00 -0.00000000000E+00 -0.13878945926E+02  0.13878946170E+02  0.26000000000E-02 0. -1.
        -13    1    1    2    0    0  0.85227069381E+01  0.57304382989E+01  0.22951414954E+02  0.25144643118E+02  0.10570000000E+00 0.  1.
         13    1    1    2    0    0 -0.85227069381E+01 -0.57304382989E+01 -0.10719218100E+02  0.14845445962E+02  0.10570000000E+00 0. -1.
<mgrwt>
<rscale>  0 0.38073358E+02</rscale>
<asrwt>0</asrwt>
<pdfrwt beam="1">  1        2 0.40170989E-02 0.38073358E+02</pdfrwt>
<pdfrwt beam="2">  1       -2 0.21352225E-02 0.38073358E+02</pdfrwt>
<totfact> 0.92491851E+05</totfact>
</mgrwt>
</event>
<event>
 4    1  0.3704929E-001  0.3283926E+02  0.7818608E-02  0.1568670E+00
         -2   -1    0    0    0  501 -0.00000000000E+00  0.00000000000E+00  0.11907978101E+02  0.11907978385E+02  0.26000000000E-02 0.  1.
          2   -1    0    0  501    0  0.00000000000E+00 -0.00000000000E+00 -0.22640646382E+02  0.22640646531E+02  0.26000000000E-02 0. -1.
        -13    1    1    2    0    0  0.33577071102E+01  0.10634012984E+02 -0.18045058703E+02  0.21213008869E+02  0.10570000000E+00 0. -1.
         13    1    1    2    0    0 -0.33577071102E+01 -0.10634012984E+02  0.73123904223E+01  0.13335616047E+02  0.10570000000E+00 0.  1.
<mgrwt>
<rscale>  0 0.32839265E+02</rscale>
<asrwt>0</asrwt>
<pdfrwt beam="2">  1        2 0.34831764E-02 0.32839265E+02</pdfrwt>
<pdfrwt beam="1">  1       -2 0.18319967E-02 0.32839265E+02</pdfrwt>
<totfact> 0.13117939E+06</totfact>
</mgrwt>
</event>
<event>
 4    1  0.3704929E-001  0.3895827E+02  0.7818608E-02  0.1516020E+00
          2   -1    0    0  501    0  0.00000000000E+00  0.00000000000E+00  0.18744388418E+03  0.18744388420E+03  0.26000000000E-02 0.  1.
         -2   -1    0    0    0  501 -0.00000000000E+00 -0.00000000000E+00 -0.20242671443E+01  0.20242688141E+01  0.26000000000E-02 0. -1.
        -13    1    1    2    0    0  0.17098269235E+02 -0.93211897204E+01  0.94830228292E+02  0.96809187369E+02  0.10570000000E+00 0.  1.
         13    1    1    2    0    0 -0.17098269235E+02  0.93211897204E+01  0.90589388744E+02  0.92658965644E+02  0.10570000000E+00 0. -1.
<mgrwt>
<rscale>  0 0.38958268E+02</rscale>
<asrwt>0</asrwt>
<pdfrwt beam="1">  1        2 0.28837521E-01 0.38958268E+02</pdfrwt>
<pdfrwt beam="2">  1       -2 0.31142584E-03 0.38958268E+02</pdfrwt>
<totfact> 0.13335256E+06</totfact>
</mgrwt>
</event>
<event>
 4    1  0.3704929E-001  0.3307541E+02  0.7818608E-02  0.1566387E+00
         -2   -1    0    0    0  501 -0.00000000000E+00  0.00000000000E+00  0.16625882970E+02  0.16625883173E+02  0.26000000000E-02 0. -1.
          2   -1    0    0  501    0  0.00000000000E+00 -0.00000000000E+00 -0.16449989965E+02  0.16449990170E+02  0.26000000000E-02 0.  1.
        -13    1    1    2    0    0 -0.10185613956E+02 -0.30789448846E+01 -0.12571529836E+02  0.16470615295E+02  0.10570000000E+00 0.  1.
         13    1    1    2    0    0  0.10185613956E+02  0.30789448846E+01  0.12747422842E+02  0.16605258049E+02  0.10570000000E+00 0. -1.
<mgrwt>
<rscale>  0 0.33075406E+02</rscale>
<asrwt>0</asrwt>
<pdfrwt beam="2">  1        2 0.25307677E-02 0.33075406E+02</pdfrwt>
<pdfrwt beam="1">  1       -2 0.25578282E-02 0.33075406E+02</pdfrwt>
<totfact> 0.12429293E+06</totfact>
</mgrwt>
</event>
<event>
 4    1  0.3704929E-001  0.3324295E+02  0.7818608E-02  0.1564781E+00
         -2   -1    0    0    0  501 -0.00000000000E+00  0.00000000000E+00  0.57787125581E+01  0.57787131430E+01  0.26000000000E-02 0.  1.
          2   -1    0    0  501    0  0.00000000000E+00 -0.00000000000E+00 -0.47808830369E+02  0.47808830440E+02  0.26000000000E-02 0. -1.
        -13    1    1    2    0    0  0.11366497297E+02  0.11764524835E+02 -0.25759105639E+02  0.30514652238E+02  0.10570000000E+00 0.  1.
         13    1    1    2    0    0 -0.11366497297E+02 -0.11764524835E+02 -0.16271012172E+02  0.23072891344E+02  0.10570000000E+00 0. -1.
<mgrwt>
<rscale>  0 0.33242955E+02</rscale>
<asrwt>0</asrwt>
<pdfrwt beam="2">  1        2 0.73552045E-02 0.33242955E+02</pdfrwt>
<pdfrwt beam="1">  1       -2 0.88903278E-03 0.33242955E+02</pdfrwt>
<totfact> 0.14104092E+06</totfact>
</mgrwt>
</event>
<event>
 4    1  0.3704929E-001  0.2261189E+02  0.7818608E-02  0.1697880E+00
          2   -1    0    0  501    0  0.00000000000E+00  0.00000000000E+00  0.42574532742E+01  0.42574540681E+01  0.26000000000E-02 0. -1.
         -2   -1    0    0    0  501 -0.00000000000E+00 -0.00000000000E+00 -0.30023676009E+02  0.30023676122E+02  0.26000000000E-02 0.  1.
        -13    1    1    2    0    0  0.10292160997E+01 -0.10965026780E+02 -0.16754915512E+02  0.20050672417E+02  0.10570000000E+00 0.  1.
         13    1    1    2    0    0 -0.10292160997E+01  0.10965026780E+02 -0.90113072228E+01  0.14230457773E+02  0.10570000000E+00 0. -1.
<mgrwt>
<rscale>  0 0.22611892E+02</rscale>
<asrwt>0</asrwt>
<pdfrwt beam="1">  1        2 0.65499290E-03 0.22611892E+02</pdfrwt>
<pdfrwt beam="2">  1       -2 0.46190270E-02 0.22611892E+02</pdfrwt>
<totfact> 0.27523418E+06</totfact>
</mgrwt>
</event>
<event>
 4    1  0.3704929E-001  0.1101672E+03  0.7818608E-02  0.1260261E+00
          2   -1    0    0  501    0  0.00000000000E+00  0.00000000000E+00  0.47955612903E+03  0.47955612904E+03  0.26000000000E-02 0. -1.
         -2   -1    0    0    0  501 -0.00000000000E+00 -0.00000000000E+00 -0.63271042561E+01  0.63271047903E+01  0.26000000000E-02 0.  1.
        -13    1    1    2    0    0  0.49913866477E+02  0.23237836579E+02  0.22923517304E+03  0.23575446305E+03  0.10570000000E+00 0.  1.
         13    1    1    2    0    0 -0.49913866477E+02 -0.23237836579E+02  0.24399385173E+03  0.25012877077E+03  0.10570000000E+00 0. -1.
<mgrwt>
<rscale>  0 0.11016718E+03</rscale>
<asrwt>0</asrwt>
<pdfrwt beam="1">  1        2 0.73777856E-01 0.11016718E+03</pdfrwt>
<pdfrwt beam="2">  1       -2 0.97340084E-03 0.11016718E+03</pdfrwt>
<totfact> 0.12814843E+05</totfact>
</mgrwt>
</event>
<event>
 4    1  0.3704929E-001  0.4437862E+02  0.7818608E-02  0.1478258E+00
          2   -1    0    0  501    0  0.00000000000E+00  0.00000000000E+00  0.12970798526E+02  0.12970798787E+02  0.26000000000E-02 0.  1.
         -2   -1    0    0    0  501 -0.00000000000E+00 -0.00000000000E+00 -0.37959532132E+02  0.37959532221E+02  0.26000000000E-02 0. -1.
        -13    1    1    2    0    0  0.17606751435E+02 -0.19858116065E+01 -0.27823448204E+02  0.32986309073E+02  0.10570000000E+00 0. -1.
         13    1    1    2    0    0 -0.17606751435E+02  0.19858116065E+01  0.28347145979E+01  0.17944021934E+02  0.10570000000E+00 0.  1.
<mgrwt>
<rscale>  0 0.44378619E+02</rscale>
<asrwt>0</asrwt>
<pdfrwt beam="1">  1        2 0.19955075E-02 0.44378619E+02</pdfrwt>
<pdfrwt beam="2">  1       -2 0.58399280E-02 0.44378619E+02</pdfrwt>
<totfact> 0.56644760E+05</totfact>
</mgrwt>
</event>
<event>
 4    1  0.3704929E-001  0.2100919E+02  0.7818608E-02  0.1725973E+00
         -2   -1    0    0    0  501 -0.00000000000E+00  0.00000000000E+00  0.50306205759E+02  0.50306205826E+02  0.26000000000E-02 0.  1.
          2   -1    0    0  501    0  0.00000000000E+00 -0.00000000000E+00 -0.21934970650E+01  0.21934986059E+01  0.26000000000E-02 0. -1.
        -13    1    1    2    0    0 -0.69096684040E+01 -0.75680957545E+01  0.18294907967E+02  0.20969845512E+02  0.10570000000E+00 0. -1.
         13    1    1    2    0    0  0.69096684040E+01  0.75680957545E+01  0.29817800727E+02  0.31529858919E+02  0.10570000000E+00 0.  1.
<mgrwt>
<rscale>  0 0.21009194E+02</rscale>
<asrwt>0</asrwt>
<pdfrwt beam="2">  1        2 0.33746124E-03 0.21009194E+02</pdfrwt>
<pdfrwt beam="1">  1       -2 0.77394157E-02 0.21009194E+02</pdfrwt>
<totfact> 0.30399511E+06</totfact>
</mgrwt>
</event>
<event>
 4    1  0.3704929E-001  0.3559605E+02  0.7818608E-02  0.1543370E+00
         -2   -1    0    0    0  501 -0.00000000000E+00  0.00000000000E+00  0.14664167585E+02  0.14664167815E+02  0.26000000000E-02 0. -1.
          2   -1    0    0  501    0  0.00000000000E+00 -0.00000000000E+00 -0.21601616860E+02  0.21601617017E+02  0.26000000000E-02 0.  1.
        -13    1    1    2    0    0 -0.15587195746E+02  0.16643929106E+01  0.51176352223E+01  0.16490368029E+02  0.10570000000E+00 0. -1.
         13    1    1    2    0    0  0.15587195746E+02 -0.16643929106E+01 -0.12055084498E+02  0.19775416803E+02  0.10570000000E+00 0.  1.
<mgrwt>
<rscale>  0 0.35596052E+02</rscale>
<asrwt>0</asrwt>
<pdfrwt beam="2">  1        2 0.33233257E-02 0.35596052E+02</pdfrwt>
<pdfrwt beam="1">  1       -2 0.22560258E-02 0.35596052E+02</pdfrwt>
<totfact> 0.10686609E+06</totfact>
</mgrwt>
</event>
<event>
 4    1  0.3704929E-001  0.2939405E+02  0.7818608E-02  0.1604885E+00
          2   -1    0    0  501    0  0.00000000000E+00  0.00000000000E+00  0.62250694040E+01  0.62250699470E+01  0.26000000000E-02 0.  1.
         -2   -1    0    0    0  501 -0.00000000000E+00 -0.00000000000E+00 -0.34698808152E+02  0.34698808250E+02  0.26000000000E-02 0. -1.
        -13    1    1    2    0    0  0.14443994620E+02 -0.26373661397E+01 -0.13349044756E+02  0.19844214500E+02  0.10570000000E+00 0.  1.
         13    1    1    2    0    0 -0.14443994620E+02  0.26373661397E+01 -0.15124693992E+02  0.21079663697E+02  0.10570000000E+00 0. -1.
<mgrwt>
<rscale>  0 0.29394047E+02</rscale>
<asrwt>0</asrwt>
<pdfrwt beam="1">  1        2 0.95770306E-03 0.29394047E+02</pdfrwt>
<pdfrwt beam="2">  1       -2 0.53382781E-02 0.29394047E+02</pdfrwt>
<totfact> 0.14985792E+06</totfact>
</mgrwt>
</event>
<event>
 4    1  0.3704929E-001  0.5015520E+02  0.7818608E-02  0.1444506E+00
         -2   -1    0    0    0  501 -0.00000000000E+00  0.00000000000E+00  0.80658836925E+01  0.80658841115E+01  0.26000000000E-02 0. -1.
          2   -1    0    0  501    0  0.00000000000E+00 -0.00000000000E+00 -0.77968627330E+02  0.77968627373E+02  0.26000000000E-02 0.  1.
        -13    1    1    2    0    0  0.21854794905E+02  0.51560885173E+01 -0.15799296710E+02  0.27456260819E+02  0.10570000000E+00 0.  1.
         13    1    1    2    0    0 -0.21854794905E+02 -0.51560885173E+01 -0.54103446927E+02  0.58578250665E+02  0.10570000000E+00 0. -1.
<mgrwt>
<rscale>  0 0.50155195E+02</rscale>
<asrwt>0</asrwt>
<pdfrwt beam="2">  1        2 0.11995173E-01 0.50155195E+02</pdfrwt>
<pdfrwt beam="1">  1       -2 0.12409053E-02 0.50155195E+02</pdfrwt>
<totfact> 0.55874831E+05</totfact>
</mgrwt>
</event>
<event>
 4    1  0.3704929E-001  0.3913420E+02  0.7818608E-02  0.1514681E+00
         -2   -1    0    0    0  501 -0.00000000000E+00  0.00000000000E+00  0.20027485955E+02  0.20027486124E+02  0.26000000000E-02 0. -1.
          2   -1    0    0  501    0  0.00000000000E+00 -0.00000000000E+00 -0.19117294064E+02  0.19117294241E+02  0.26000000000E-02 0.  1.
        -13    1    1    2    0    0  0.85504089274E+01 -0.16961526319E+02 -0.42426946572E+01  0.19463157461E+02  0.10570000000E+00 0.  1.
         13    1    1    2    0    0 -0.85504089274E+01  0.16961526319E+02  0.51528865478E+01  0.19681622904E+02  0.10570000000E+00 0. -1.
<mgrwt>
<rscale>  0 0.39134197E+02</rscale>
<asrwt>0</asrwt>
<pdfrwt beam="2">  1        2 0.29411222E-02 0.39134197E+02</pdfrwt>
<pdfrwt beam="1">  1       -2 0.30811517E-02 0.39134197E+02</pdfrwt>
<totfact> 0.82872594E+05</totfact>
</mgrwt>
</event>
<event>
 4    1  0.3704929E-001  0.4377779E+02  0.7818608E-02  0.1482119E+00
          2   -1    0    0  501    0  0.00000000000E+00  0.00000000000E+00  0.23601556873E+01  0.23601571194E+01  0.26000000000E-02 0.  1.
         -2   -1    0    0    0  501 -0.00000000000E+00 -0.00000000000E+00 -0.20300508094E+03  0.20300508096E+03  0.26000000000E-02 0. -1.
        -13    1    1    2    0    0 -0.99347364511E+01  0.19437173051E+02 -0.92743949130E+02  0.95278297409E+02  0.10570000000E+00 0.  1.
         13    1    1    2    0    0  0.99347364511E+01 -0.19437173051E+02 -0.10790097612E+03  0.11008694067E+03  0.10570000000E+00 0. -1.
<mgrwt>
<rscale>  0 0.43777791E+02</rscale>
<asrwt>0</asrwt>
<pdfrwt beam="1">  1        2 0.36310115E-03 0.43777791E+02</pdfrwt>
<pdfrwt beam="2">  1       -2 0.31231537E-01 0.43777791E+02</pdfrwt>
<totfact> 0.38760407E+05</totfact>
</mgrwt>
</event>
<event>
 4    1  0.3704929E-001  0.3852061E+02  0.7818608E-02  0.1519389E+00
          2   -1    0    0  501    0  0.00000000000E+00  0.00000000000E+00  0.40514742922E+01  0.40514751265E+01  0.26000000000E-02 0. -1.
         -2   -1    0    0    0  501 -0.00000000000E+00 -0.00000000000E+00 -0.91561574902E+02  0.91561574939E+02  0.26000000000E-02 0.  1.
        -13    1    1    2    0    0 -0.23158157273E+01 -0.17607073507E+02 -0.62259168362E+02  0.64742468733E+02  0.10570000000E+00 0.  1.
         13    1    1    2    0    0  0.23158157273E+01  0.17607073507E+02 -0.25250932247E+02  0.30870581333E+02  0.10570000000E+00 0. -1.
<mgrwt>
<rscale>  0 0.38520613E+02</rscale>
<asrwt>0</asrwt>
<pdfrwt beam="1">  1        2 0.62330387E-03 0.38520613E+02</pdfrwt>
<pdfrwt beam="2">  1       -2 0.14086395E-01 0.38520613E+02</pdfrwt>
<totfact> 0.67645058E+05</totfact>
</mgrwt>
</event>
<event>
 4    1  0.3704929E-001  0.2632906E+02  0.7818608E-02  0.1642615E+00
          2   -1    0    0  501    0  0.00000000000E+00  0.00000000000E+00  0.26252043747E+01  0.26252056623E+01  0.26000000000E-02 0. -1.
         -2   -1    0    0    0  501 -0.00000000000E+00 -0.00000000000E+00 -0.66015739043E+02  0.66015739094E+02  0.26000000000E-02 0.  1.
        -13    1    1    2    0    0  0.17897605052E+01  0.13012442326E+02 -0.33978152023E+02  0.36428737081E+02  0.10570000000E+00 0.  1.
         13    1    1    2    0    0 -0.17897605052E+01 -0.13012442326E+02 -0.29412382645E+02  0.32212207675E+02  0.10570000000E+00 0. -1.
<mgrwt>
<rscale>  0 0.26329060E+02</rscale>
<asrwt>0</asrwt>
<pdfrwt beam="1">  1        2 0.40387775E-03 0.26329060E+02</pdfrwt>
<pdfrwt beam="2">  1       -2 0.10156266E-01 0.26329060E+02</pdfrwt>
<totfact> 0.17551250E+06</totfact>
</mgrwt>
</event>
<event>
 4    1  0.3704929E-001  0.3930340E+02  0.7818608E-02  0.1513401E+00
          2   -1    0    0  501    0  0.00000000000E+00  0.00000000000E+00  0.82194579218E+02  0.82194579259E+02  0.26000000000E-02 0.  1.
         -2   -1    0    0    0  501 -0.00000000000E+00 -0.00000000000E+00 -0.46984773467E+01  0.46984780660E+01  0.26000000000E-02 0. -1.
        -13    1    1    2    0    0 -0.76482048466E+01  0.14159684225E+02  0.63681104708E+02  0.65683224373E+02  0.10570000000E+00 0.  1.
         13    1    1    2    0    0  0.76482048466E+01 -0.14159684225E+02  0.13814997163E+02  0.21209832952E+02  0.10570000000E+00 0. -1.
<mgrwt>
<rscale>  0 0.39303405E+02</rscale>
<asrwt>0</asrwt>
<pdfrwt beam="1">  1        2 0.12645319E-01 0.39303405E+02</pdfrwt>
<pdfrwt beam="2">  1       -2 0.72284277E-03 0.39303405E+02</pdfrwt>
<totfact> 0.10410376E+06</totfact>
</mgrwt>
</event>
<event>
 4    1  0.3704929E-001  0.3627661E+02  0.7818608E-02  0.1537548E+00
         -2   -1    0    0    0  501 -0.00000000000E+00  0.00000000000E+00  0.23415139995E+02  0.23415140140E+02  0.26000000000E-02 0. -1.
          2   -1    0    0  501    0  0.00000000000E+00 -0.00000000000E+00 -0.14050654106E+02  0.14050654346E+02  0.26000000000E-02 0.  1.
        -13    1    1    2    0    0 -0.31346531948E+01 -0.14442872126E+02  0.15541889249E+02  0.21447239911E+02  0.10570000000E+00 0. -1.
         13    1    1    2    0    0  0.31346531948E+01  0.14442872126E+02 -0.61774033597E+01  0.16018554574E+02  0.10570000000E+00 0.  1.
<mgrwt>
<rscale>  0 0.36276606E+02</rscale>
<asrwt>0</asrwt>
<pdfrwt beam="2">  1        2 0.21616391E-02 0.36276606E+02</pdfrwt>
<pdfrwt beam="1">  1       -2 0.36023293E-02 0.36276606E+02</pdfrwt>
<totfact> 0.96772877E+05</totfact>
</mgrwt>
</event>
<event>
 4    1  0.3704929E-001  0.2967031E+02  0.7818608E-02  0.1601762E+00
          2   -1    0    0  501    0  0.00000000000E+00  0.00000000000E+00  0.43831257539E+02  0.43831257616E+02  0.26000000000E-02 0.  1.
         -2   -1    0    0    0  501 -0.00000000000E+00 -0.00000000000E+00 -0.50211139771E+01  0.50211146503E+01  0.26000000000E-02 0. -1.
        -13    1    1    2    0    0  0.95883494450E+01  0.90593315926E+01  0.30579829260E+02  0.33303829570E+02  0.10570000000E+00 0.  1.
         13    1    1    2    0    0 -0.95883494450E+01 -0.90593315926E+01  0.82303143025E+01  0.15548542697E+02  0.10570000000E+00 0. -1.
<mgrwt>
<rscale>  0 0.29670306E+02</rscale>
<asrwt>0</asrwt>
<pdfrwt beam="1">  1        2 0.67432704E-02 0.29670306E+02</pdfrwt>
<pdfrwt beam="2">  1       -2 0.77247913E-03 0.29670306E+02</pdfrwt>
<totfact> 0.18285237E+06</totfact>
</mgrwt>
</event>
<event>
 4    1  0.3704929E-001  0.3144180E+02  0.7818608E-02  0.1582677E+00
          2   -1    0    0  501    0  0.00000000000E+00  0.00000000000E+00  0.23322660365E+02  0.23322660510E+02  0.26000000000E-02 0.  1.
         -2   -1    0    0    0  501 -0.00000000000E+00 -0.00000000000E+00 -0.10596845271E+02  0.10596845590E+02  0.26000000000E-02 0. -1.
        -13    1    1    2    0    0  0.10188974554E+02  0.10684027770E+02  0.53619168337E+00  0.14773703864E+02  0.10570000000E+00 0. -1.
         13    1    1    2    0    0 -0.10188974554E+02 -0.10684027770E+02  0.12189623411E+02  0.19145802236E+02  0.10570000000E+00 0.  1.
<mgrwt>
<rscale>  0 0.31441796E+02</rscale>
<asrwt>0</asrwt>
<pdfrwt beam="1">  1        2 0.35881016E-02 0.31441796E+02</pdfrwt>
<pdfrwt beam="2">  1       -2 0.16302839E-02 0.31441796E+02</pdfrwt>
<totfact> 0.14640971E+06</totfact>
</mgrwt>
</event>
<event>
 4    1  0.3704929E-001  0.2587016E+02  0.7818608E-02  0.1648809E+00
         -2   -1    0    0    0  501 -0.00000000000E+00  0.00000000000E+00  0.26613338400E+02  0.26613338527E+02  0.26000000000E-02 0. -1.
          2   -1    0    0  501    0  0.00000000000E+00 -0.00000000000E+00 -0.62869341689E+01  0.62869347065E+01  0.26000000000E-02 0.  1.
        -13    1    1    2    0    0  0.22512971024E+01  0.12412414433E+02  0.13797987793E+02  0.18695775200E+02  0.10570000000E+00 0. -1.
         13    1    1    2    0    0 -0.22512971024E+01 -0.12412414433E+02  0.65284164384E+01  0.14204498034E+02  0.10570000000E+00 0.  1.
<mgrwt>
<rscale>  0 0.25870162E+02</rscale>
<asrwt>0</asrwt>
<pdfrwt beam="2">  1        2 0.96722070E-03 0.25870162E+02</pdfrwt>
<pdfrwt beam="1">  1       -2 0.40943598E-02 0.25870162E+02</pdfrwt>
<totfact> 0.20628752E+06</totfact>
</mgrwt>
</event>
<event>
 4    1  0.3704929E-001  0.2349626E+02  0.7818608E-02  0.1683590E+00
          2   -1    0    0  501    0  0.00000000000E+00  0.00000000000E+00  0.64631357897E+02  0.64631357949E+02  0.26000000000E-02 0. -1.
         -2   -1    0    0    0  501 -0.00000000000E+00 -0.00000000000E+00 -0.21354727936E+01  0.21354743764E+01  0.26000000000E-02 0.  1.
        -13    1    1    2    0    0  0.13647962377E+01 -0.10841182276E+02  0.43507531085E+02  0.44858782145E+02  0.10570000000E+00 0. -1.
         13    1    1    2    0    0 -0.13647962377E+01  0.10841182276E+02  0.18988354018E+02  0.21908050181E+02  0.10570000000E+00 0.  1.
<mgrwt>
<rscale>  0 0.23496260E+02</rscale>
<asrwt>0</asrwt>
<pdfrwt beam="1">  1        2 0.99432838E-02 0.23496260E+02</pdfrwt>
<pdfrwt beam="2">  1       -2 0.32853447E-03 0.23496260E+02</pdfrwt>
<totfact> 0.33611587E+06</totfact>
</mgrwt>
</event>
<event>
 4    1  0.3704929E-001  0.3534743E+02  0.7818608E-02  0.1545537E+00
         -2   -1    0    0    0  501 -0.00000000000E+00  0.00000000000E+00  0.51557622054E+01  0.51557628609E+01  0.26000000000E-02 0.  1.
          2   -1    0    0  501    0  0.00000000000E+00 -0.00000000000E+00 -0.60584683076E+02  0.60584683132E+02  0.26000000000E-02 0. -1.
        -13    1    1    2    0    0 -0.44491179495E+01  0.11159121131E+02 -0.36061838054E+01  0.12543379491E+02  0.10570000000E+00 0.  1.
         13    1    1    2    0    0  0.44491179495E+01 -0.11159121131E+02 -0.51822737065E+02  0.53197066502E+02  0.10570000000E+00 0. -1.
<mgrwt>
<rscale>  0 0.35347432E+02</rscale>
<asrwt>0</asrwt>
<pdfrwt beam="2">  1        2 0.93207200E-02 0.35347432E+02</pdfrwt>
<pdfrwt beam="1">  1       -2 0.79319428E-03 0.35347432E+02</pdfrwt>
<totfact> 0.12669521E+06</totfact>
</mgrwt>
</event>
<event>
 4    1  0.3704929E-001  0.2304059E+02  0.7818608E-02  0.1690853E+00
          2   -1    0    0  501    0  0.00000000000E+00  0.00000000000E+00  0.32646216366E+01  0.32646226719E+01  0.26000000000E-02 0. -1.
         -2   -1    0    0    0  501 -0.00000000000E+00 -0.00000000000E+00 -0.40653169390E+02  0.40653169473E+02  0.26000000000E-02 0.  1.
        -13    1    1    2    0    0  0.46947459503E+01  0.10263108889E+02 -0.14292027465E+02  0.18211130255E+02  0.10570000000E+00 0.  1.
         13    1    1    2    0    0 -0.46947459503E+01 -0.10263108889E+02 -0.23096520288E+02  0.25706661890E+02  0.10570000000E+00 0. -1.
<mgrwt>
<rscale>  0 0.23040594E+02</rscale>
<asrwt>0</asrwt>
<pdfrwt beam="1">  1        2 0.50224960E-03 0.23040594E+02</pdfrwt>
<pdfrwt beam="2">  1       -2 0.62543335E-02 0.23040594E+02</pdfrwt>
<totfact> 0.25494987E+06</totfact>
</mgrwt>
</event>
<event>
 4    1  0.3704929E-001  0.3087728E+02  0.7818608E-02  0.1588589E+00
          2   -1    0    0  501    0  0.00000000000E+00  0.00000000000E+00  0.19365576682E+01  0.19365594136E+01  0.26000000000E-02 0.  1.
         -2   -1    0    0    0  501 -0.00000000000E+00 -0.00000000000E+00 -0.12307999246E+03  0.12307999249E+03  0.26000000000E-02 0. -1.
        -13    1    1    2    0    0 -0.27801059444E+01  0.14945627167E+02 -0.49677696872E+02  0.51951761274E+02  0.10570000000E+00 0.  1.
         13    1    1    2    0    0  0.27801059444E+01 -0.14945627167E+02 -0.71465737922E+02  0.73064790629E+02  0.10570000000E+00 0. -1.
<mgrwt>
<rscale>  0 0.30877281E+02</rscale>
<asrwt>0</asrwt>
<pdfrwt beam="1">  1        2 0.29793218E-03 0.30877281E+02</pdfrwt>
<pdfrwt beam="2">  1       -2 0.18935377E-01 0.30877281E+02</pdfrwt>
<totfact> 0.10564573E+06</totfact>
</mgrwt>
</event>
<event>
 4    1  0.3704929E-001  0.9716673E+02  0.7818608E-02  0.1286369E+00
          2   -1    0    0  501    0  0.00000000000E+00  0.00000000000E+00  0.47377530155E+02  0.47377530226E+02  0.26000000000E-02 0. -1.
         -2   -1    0    0    0  501 -0.00000000000E+00 -0.00000000000E+00 -0.49819890949E+02  0.49819891017E+02  0.26000000000E-02 0.  1.
        -13    1    1    2    0    0 -0.29169275809E+02  0.27175322641E+02 -0.28996610608E+02  0.49296647058E+02  0.10570000000E+00 0.  1.
         13    1    1    2    0    0  0.29169275809E+02 -0.27175322641E+02  0.26554249814E+02  0.47900774185E+02  0.10570000000E+00 0. -1.
<mgrwt>
<rscale>  0 0.97166731E+02</rscale>
<asrwt>0</asrwt>
<pdfrwt beam="1">  1        2 0.72888508E-02 0.97166731E+02</pdfrwt>
<pdfrwt beam="2">  1       -2 0.76645986E-02 0.97166731E+02</pdfrwt>
<totfact> 0.82961861E+04</totfact>
</mgrwt>
</event>
<event>
 4    1  0.3704929E-001  0.2626414E+02  0.7818608E-02  0.1643481E+00
         -2   -1    0    0    0  501 -0.00000000000E+00  0.00000000000E+00  0.20458852036E+01  0.20458868557E+01  0.26000000000E-02 0.  1.
          2   -1    0    0  501    0  0.00000000000E+00 -0.00000000000E+00 -0.84291719998E+02  0.84291720038E+02  0.26000000000E-02 0. -1.
        -13    1    1    2    0    0 -0.10708040701E+02 -0.42768057473E+01 -0.61779726767E+02  0.62846630896E+02  0.10570000000E+00 0. -1.
         13    1    1    2    0    0  0.10708040701E+02  0.42768057473E+01 -0.20466108027E+02  0.23490975997E+02  0.10570000000E+00 0.  1.
<mgrwt>
<rscale>  0 0.26264139E+02</rscale>
<asrwt>0</asrwt>
<pdfrwt beam="2">  1        2 0.12967954E-01 0.26264139E+02</pdfrwt>
<pdfrwt beam="1">  1       -2 0.31475176E-03 0.26264139E+02</pdfrwt>
<totfact> 0.27424225E+06</totfact>
</mgrwt>
</event>
<event>
 4    1  0.3704929E-001  0.2444075E+02  0.7818608E-02  0.1669167E+00
         -2   -1    0    0    0  501 -0.00000000000E+00  0.00000000000E+00  0.17974319449E+02  0.17974319637E+02  0.26000000000E-02 0. -1.
          2   -1    0    0  501    0  0.00000000000E+00 -0.00000000000E+00 -0.83083879037E+01  0.83083883106E+01  0.26000000000E-02 0.  1.
        -13    1    1    2    0    0  0.33542107609E+01  0.11660325910E+02  0.32699755512E+01  0.12566536626E+02  0.10570000000E+00 0.  1.
         13    1    1    2    0    0 -0.33542107609E+01 -0.11660325910E+02  0.63959559940E+01  0.13716171322E+02  0.10570000000E+00 0. -1.
<mgrwt>
<rscale>  0 0.24440755E+02</rscale>
<asrwt>0</asrwt>
<pdfrwt beam="2">  1        2 0.12782136E-02 0.24440755E+02</pdfrwt>
<pdfrwt beam="1">  1       -2 0.27652799E-02 0.24440755E+02</pdfrwt>
<totfact> 0.24319367E+06</totfact>
</mgrwt>
</event>
<event>
 4    1  0.3704929E-001  0.2377800E+02  0.7818608E-02  0.1679201E+00
          2   -1    0    0  501    0  0.00000000000E+00  0.00000000000E+00  0.30884821555E+02  0.30884821664E+02  0.26000000000E-02 0. -1.
         -2   -1    0    0    0  501 -0.00000000000E+00 -0.00000000000E+00 -0.45766278813E+01  0.45766286198E+01  0.26000000000E-02 0.  1.
        -13    1    1    2    0    0  0.47844068167E+01 -0.99704988058E+01  0.66473112290E+01  0.12903461322E+02  0.10570000000E+00 0.  1.
         13    1    1    2    0    0 -0.47844068167E+01  0.99704988058E+01  0.19660882445E+02  0.22557988962E+02  0.10570000000E+00 0. -1.
<mgrwt>
<rscale>  0 0.23778002E+02</rscale>
<asrwt>0</asrwt>
<pdfrwt beam="1">  1        2 0.47515110E-02 0.23778002E+02</pdfrwt>
<pdfrwt beam="2">  1       -2 0.70409667E-03 0.23778002E+02</pdfrwt>
<totfact> 0.29342711E+06</totfact>
</mgrwt>
</event>
<event>
 4    1  0.3704929E-001  0.2136079E+02  0.7818608E-02  0.1719547E+00
          2   -1    0    0  501    0  0.00000000000E+00  0.00000000000E+00  0.46577817994E+02  0.46577818066E+02  0.26000000000E-02 0. -1.
         -2   -1    0    0    0  501 -0.00000000000E+00 -0.00000000000E+00 -0.24490364017E+01  0.24490377819E+01  0.26000000000E-02 0.  1.
        -13    1    1    2    0    0  0.42605401238E+01  0.97932284833E+01  0.22088312199E+02  0.24534959436E+02  0.10570000000E+00 0. -1.
         13    1    1    2    0    0 -0.42605401238E+01 -0.97932284833E+01  0.22040469394E+02  0.24491896412E+02  0.10570000000E+00 0.  1.
<mgrwt>
<rscale>  0 0.21360787E+02</rscale>
<asrwt>0</asrwt>
<pdfrwt beam="1">  1        2 0.71658177E-02 0.21360787E+02</pdfrwt>
<pdfrwt beam="2">  1       -2 0.37677497E-03 0.21360787E+02</pdfrwt>
<totfact> 0.39549827E+06</totfact>
</mgrwt>
</event>
<event>
 4    1  0.3704929E-001  0.3043622E+02  0.7818608E-02  0.1593316E+00
          2   -1    0    0  501    0  0.00000000000E+00  0.00000000000E+00  0.19834517223E+02  0.19834517394E+02  0.26000000000E-02 0.  1.
         -2   -1    0    0    0  501 -0.00000000000E+00 -0.00000000000E+00 -0.11676155378E+02  0.11676155668E+02  0.26000000000E-02 0. -1.
        -13    1    1    2    0    0  0.14440712403E+02 -0.47700562159E+01  0.46387504199E+01  0.15900213488E+02  0.10570000000E+00 0. -1.
         13    1    1    2    0    0 -0.14440712403E+02  0.47700562159E+01  0.35196114251E+01  0.15610459573E+02  0.10570000000E+00 0.  1.
<mgrwt>
<rscale>  0 0.30436223E+02</rscale>
<asrwt>0</asrwt>
<pdfrwt beam="1">  1        2 0.30514642E-02 0.30436223E+02</pdfrwt>
<pdfrwt beam="2">  1       -2 0.17963316E-02 0.30436223E+02</pdfrwt>
<totfact> 0.15563528E+06</totfact>
</mgrwt>
</event>
<event>
 4    1  0.3704929E-001  0.3489262E+02  0.7818608E-02  0.1549556E+00
         -2   -1    0    0    0  501 -0.00000000000E+00  0.00000000000E+00  0.26674890281E+02  0.26674890407E+02  0.26000000000E-02 0. -1.
          2   -1    0    0  501    0  0.00000000000E+00 -0.00000000000E+00 -0.11410493252E+02  0.11410493548E+02  0.26000000000E-02 0.  1.
        -13    1    1    2    0    0  0.66877963687E+01  0.12196864678E+02 -0.38608822431E+01  0.14436333067E+02  0.10570000000E+00 0.  1.
         13    1    1    2    0    0 -0.66877963687E+01 -0.12196864678E+02  0.19125279272E+02  0.23649050889E+02  0.10570000000E+00 0. -1.
<mgrwt>
<rscale>  0 0.34892616E+02</rscale>
<asrwt>0</asrwt>
<pdfrwt beam="2">  1        2 0.17554606E-02 0.34892616E+02</pdfrwt>
<pdfrwt beam="1">  1       -2 0.41038293E-02 0.34892616E+02</pdfrwt>
<totfact> 0.10421183E+06</totfact>
</mgrwt>
</event>
<event>
 4    1  0.3704929E-001  0.3151869E+02  0.7818608E-02  0.1581884E+00
          2   -1    0    0  501    0  0.00000000000E+00  0.00000000000E+00  0.45867348910E+01  0.45867356279E+01  0.26000000000E-02 0.  1.
         -2   -1    0    0    0  501 -0.00000000000E+00 -0.00000000000E+00 -0.54146797358E+02  0.54146797420E+02  0.26000000000E-02 0. -1.
        -13    1    1    2    0    0 -0.81971161806E+01  0.57794881066E+01 -0.21292796623E+01  0.10253789584E+02  0.10570000000E+00 0.  1.
         13    1    1    2    0    0  0.81971161806E+01 -0.57794881066E+01 -0.47430782804E+02  0.48479743464E+02  0.10570000000E+00 0. -1.
<mgrwt>
<rscale>  0 0.31518695E+02</rscale>
<asrwt>0</asrwt>
<pdfrwt beam="1">  1        2 0.70565162E-03 0.31518695E+02</pdfrwt>
<pdfrwt beam="2">  1       -2 0.83302761E-02 0.31518695E+02</pdfrwt>
<totfact> 0.11993736E+06</totfact>
</mgrwt>
</event>
<event>
 4    1  0.3704929E-001  0.2486670E+02  0.7818608E-02  0.1662924E+00
         -2   -1    0    0    0  501 -0.00000000000E+00  0.00000000000E+00  0.33964980923E+01  0.33964990875E+01  0.26000000000E-02 0. -1.
          2   -1    0    0  501    0  0.00000000000E+00 -0.00000000000E+00 -0.45513993270E+02  0.45513993344E+02  0.26000000000E-02 0.  1.
        -13    1    1    2    0    0  0.26535292145E+01  0.12138003064E+02 -0.21948671024E+02  0.25221571479E+02  0.10570000000E+00 0. -1.
         13    1    1    2    0    0 -0.26535292145E+01 -0.12138003064E+02 -0.20168824154E+02  0.23688920953E+02  0.10570000000E+00 0.  1.
<mgrwt>
<rscale>  0 0.24866702E+02</rscale>
<asrwt>0</asrwt>
<pdfrwt beam="2">  1        2 0.70021525E-02 0.24866702E+02</pdfrwt>
<pdfrwt beam="1">  1       -2 0.52253828E-03 0.24866702E+02</pdfrwt>
<totfact> 0.27846965E+06</totfact>
</mgrwt>
</event>
<event>
 4    1  0.3704929E-001  0.2762608E+02  0.7818608E-02  0.1625916E+00
         -2   -1    0    0    0  501 -0.00000000000E+00  0.00000000000E+00  0.43805439317E+02  0.43805439394E+02  0.26000000000E-02 0. -1.
          2   -1    0    0  501    0  0.00000000000E+00 -0.00000000000E+00 -0.43556243744E+01  0.43556251504E+01  0.26000000000E-02 0.  1.
        -13    1    1    2    0    0 -0.10917910603E+02 -0.67921571794E+01  0.10929398850E+02  0.16875932649E+02  0.10570000000E+00 0.  1.
         13    1    1    2    0    0  0.10917910603E+02  0.67921571794E+01  0.28520416093E+02  0.31285131895E+02  0.10570000000E+00 0. -1.
<mgrwt>
<rscale>  0 0.27626079E+02</rscale>
<asrwt>0</asrwt>
<pdfrwt beam="2">  1        2 0.67009614E-03 0.27626079E+02</pdfrwt>
<pdfrwt beam="1">  1       -2 0.67392983E-02 0.27626079E+02</pdfrwt>
<totfact> 0.16760217E+06</totfact>
</mgrwt>
</event>
<event>
 4    1  0.3704929E-001  0.2367755E+02  0.7818608E-02  0.1680757E+00
          2   -1    0    0  501    0  0.00000000000E+00  0.00000000000E+00  0.56303844574E+02  0.56303844634E+02  0.26000000000E-02 0. -1.
         -2   -1    0    0    0  501 -0.00000000000E+00 -0.00000000000E+00 -0.24892901548E+01  0.24892915126E+01  0.26000000000E-02 0.  1.
        -13    1    1    2    0    0 -0.70500942164E+01 -0.88042670845E+01  0.35834794976E+02  0.37568106831E+02  0.10570000000E+00 0. -1.
         13    1    1    2    0    0  0.70500942164E+01  0.88042670845E+01  0.17979759443E+02  0.21225029316E+02  0.10570000000E+00 0.  1.
<mgrwt>
<rscale>  0 0.23677555E+02</rscale>
<asrwt>0</asrwt>
<pdfrwt beam="1">  1        2 0.86621298E-02 0.23677555E+02</pdfrwt>
<pdfrwt beam="2">  1       -2 0.38296784E-03 0.23677555E+02</pdfrwt>
<totfact> 0.32239047E+06</totfact>
</mgrwt>
</event>
<event>
 4    1  0.3704929E-001  0.2585562E+02  0.7818608E-02  0.1649008E+00
          2   -1    0    0  501    0  0.00000000000E+00  0.00000000000E+00  0.53966384098E+02  0.53966384160E+02  0.26000000000E-02 0.  1.
         -2   -1    0    0    0  501 -0.00000000000E+00 -0.00000000000E+00 -0.30968953335E+01  0.30968964249E+01  0.26000000000E-02 0. -1.
        -13    1    1    2    0    0  0.12704612105E+02  0.20357731149E+01  0.28196193159E+02  0.30993354482E+02  0.10570000000E+00 0.  1.
         13    1    1    2    0    0 -0.12704612105E+02 -0.20357731149E+01  0.22673295605E+02  0.26069926103E+02  0.10570000000E+00 0. -1.
<mgrwt>
<rscale>  0 0.25855620E+02</rscale>
<asrwt>0</asrwt>
<pdfrwt beam="1">  1        2 0.83025211E-02 0.25855620E+02</pdfrwt>
<pdfrwt beam="2">  1       -2 0.47644550E-03 0.25855620E+02</pdfrwt>
<totfact> 0.26126856E+06</totfact>
</mgrwt>
</event>
<event>
 4    1  0.3704929E-001  0.4215911E+02  0.7818608E-02  0.1492898E+00
         -2   -1    0    0    0  501 -0.00000000000E+00  0.00000000000E+00  0.25989932907E+02  0.25989933037E+02  0.26000000000E-02 0. -1.
          2   -1    0    0  501    0  0.00000000000E+00 -0.00000000000E+00 -0.17096913621E+02  0.17096913819E+02  0.26000000000E-02 0.  1.
        -13    1    1    2    0    0 -0.12852298611E+02  0.12530057813E+02 -0.68489662847E+01  0.19212064960E+02  0.10570000000E+00 0.  1.
         13    1    1    2    0    0  0.12852298611E+02 -0.12530057813E+02  0.15741985571E+02  0.23874781896E+02  0.10570000000E+00 0. -1.
<mgrwt>
<rscale>  0 0.42159110E+02</rscale>
<asrwt>0</asrwt>
<pdfrwt beam="2">  1        2 0.26302944E-02 0.42159110E+02</pdfrwt>
<pdfrwt beam="1">  1       -2 0.39984512E-02 0.42159110E+02</pdfrwt>
<totfact> 0.67432161E+05</totfact>
</mgrwt>
</event>
<event>
 4    1  0.3704929E-001  0.2371350E+02  0.7818608E-02  0.1680199E+00
          2   -1    0    0  501    0  0.00000000000E+00  0.00000000000E+00  0.16075814516E+01  0.16075835542E+01  0.26000000000E-02 0.  1.
         -2   -1    0    0    0  501 -0.00000000000E+00 -0.00000000000E+00 -0.87449650572E+02  0.87449650610E+02  0.26000000000E-02 0. -1.
        -13    1    1    2    0    0 -0.10363768312E+02  0.27657429533E+01 -0.23951109144E+02  0.26243548340E+02  0.10570000000E+00 0.  1.
         13    1    1    2    0    0  0.10363768312E+02 -0.27657429533E+01 -0.61890959976E+02  0.62813685825E+02  0.10570000000E+00 0. -1.
<mgrwt>
<rscale>  0 0.23713501E+02</rscale>
<asrwt>0</asrwt>
<pdfrwt beam="1">  1        2 0.24732046E-03 0.23713501E+02</pdfrwt>
<pdfrwt beam="2">  1       -2 0.13453789E-01 0.23713501E+02</pdfrwt>
<totfact> 0.21037629E+06</totfact>
</mgrwt>
</event>
<event>
 4    1  0.3704929E-001  0.3755608E+02  0.7818608E-02  0.1527007E+00
          2   -1    0    0  501    0  0.00000000000E+00  0.00000000000E+00  0.44999124130E+02  0.44999124205E+02  0.26000000000E-02 0.  1.
         -2   -1    0    0    0  501 -0.00000000000E+00 -0.00000000000E+00 -0.78360381849E+01  0.78360386162E+01  0.26000000000E-02 0. -1.
        -13    1    1    2    0    0  0.12027977867E+02  0.63850047601E+01  0.39236684531E+00  0.13623716878E+02  0.10570000000E+00 0. -1.
         13    1    1    2    0    0 -0.12027977867E+02 -0.63850047601E+01  0.36770719100E+02  0.39211445943E+02  0.10570000000E+00 0.  1.
<mgrwt>
<rscale>  0 0.37556084E+02</rscale>
<asrwt>0</asrwt>
<pdfrwt beam="1">  1        2 0.69229424E-02 0.37556084E+02</pdfrwt>
<pdfrwt beam="2">  1       -2 0.12055443E-02 0.37556084E+02</pdfrwt>
<totfact> 0.10361953E+06</totfact>
</mgrwt>
</event>
<event>
 4    1  0.3704929E-001  0.2432804E+02  0.7818608E-02  0.1670845E+00
         -2   -1    0    0    0  501 -0.00000000000E+00  0.00000000000E+00  0.50879525078E+02  0.50879525144E+02  0.26000000000E-02 0. -1.
          2   -1    0    0  501    0  0.00000000000E+00 -0.00000000000E+00 -0.29081115701E+01  0.29081127323E+01  0.26000000000E-02 0.  1.
        -13    1    1    2    0    0  0.11319071204E+02  0.12467076178E+00  0.14143885284E+02  0.18116224196E+02  0.10570000000E+00 0.  1.
         13    1    1    2    0    0 -0.11319071204E+02 -0.12467076178E+00  0.33827528224E+02  0.35671413680E+02  0.10570000000E+00 0. -1.
<mgrwt>
<rscale>  0 0.24328039E+02</rscale>
<asrwt>0</asrwt>
<pdfrwt beam="2">  1        2 0.44740191E-03 0.24328039E+02</pdfrwt>
<pdfrwt beam="1">  1       -2 0.78276187E-02 0.24328039E+02</pdfrwt>
<totfact> 0.21894141E+06</totfact>
</mgrwt>
</event>
<event>
 4    1  0.3704929E-001  0.3104606E+02  0.7818608E-02  0.1586806E+00
          2   -1    0    0  501    0  0.00000000000E+00  0.00000000000E+00  0.28746865330E+02  0.28746865448E+02  0.26000000000E-02 0.  1.
         -2   -1    0    0    0  501 -0.00000000000E+00 -0.00000000000E+00 -0.83822854071E+01  0.83822858104E+01  0.26000000000E-02 0. -1.
        -13    1    1    2    0    0  0.56696709248E+01  0.10076384347E+02 -0.22044480934E+01  0.11770703198E+02  0.10570000000E+00 0. -1.
         13    1    1    2    0    0 -0.56696709248E+01 -0.10076384347E+02  0.22569028016E+02  0.25358448060E+02  0.10570000000E+00 0.  1.
<mgrwt>
<rscale>  0 0.31046059E+02</rscale>
<asrwt>0</asrwt>
<pdfrwt beam="1">  1        2 0.44225947E-02 0.31046059E+02</pdfrwt>
<pdfrwt beam="2">  1       -2 0.12895824E-02 0.31046059E+02</pdfrwt>
<totfact> 0.15480248E+06</totfact>
</mgrwt>
</event>
<event>
 4    1  0.3704929E-001  0.2722219E+02  0.7818608E-02  0.1630993E+00
          2   -1    0    0  501    0  0.00000000000E+00  0.00000000000E+00  0.14365870024E+02  0.14365870260E+02  0.26000000000E-02 0.  1.
         -2   -1    0    0    0  501 -0.00000000000E+00 -0.00000000000E+00 -0.12895972381E+02  0.12895972643E+02  0.26000000000E-02 0. -1.
        -13    1    1    2    0    0 -0.16666350283E+01  0.12246310424E+02 -0.49743125766E+01  0.13323090836E+02  0.10570000000E+00 0.  1.
         13    1    1    2    0    0  0.16666350283E+01 -0.12246310424E+02  0.64442102199E+01  0.13938752067E+02  0.10570000000E+00 0. -1.
<mgrwt>
<rscale>  0 0.27222187E+02</rscale>
<asrwt>0</asrwt>
<pdfrwt beam="1">  1        2 0.22101339E-02 0.27222187E+02</pdfrwt>
<pdfrwt beam="2">  1       -2 0.19839958E-02 0.27222187E+02</pdfrwt>
<totfact> 0.19730685E+06</totfact>
</mgrwt>
</event>
<event>
 4    1  0.3704929E-001  0.2621394E+02  0.7818608E-02  0.1644154E+00
         -2   -1    0    0    0  501 -0.00000000000E+00  0.00000000000E+00  0.14524306523E+02  0.14524306756E+02  0.26000000000E-02 0. -1.
          2   -1    0    0  501    0  0.00000000000E+00 -0.00000000000E+00 -0.11827938309E+02  0.11827938595E+02  0.26000000000E-02 0.  1.
        -13    1    1    2    0    0 -0.59388998204E+00  0.13077520751E+02  0.19896586808E+01  0.13241758511E+02  0.10570000000E+00 0. -1.
         13    1    1    2    0    0  0.59388998204E+00 -0.13077520751E+02  0.70670953342E+00  0.13110486840E+02  0.10570000000E+00 0.  1.
<mgrwt>
<rscale>  0 0.26213936E+02</rscale>
<asrwt>0</asrwt>
<pdfrwt beam="2">  1        2 0.18196829E-02 0.26213936E+02</pdfrwt>
<pdfrwt beam="1">  1       -2 0.22345087E-02 0.26213936E+02</pdfrwt>
<totfact> 0.21216853E+06</totfact>
</mgrwt>
</event>
<event>
 4    1  0.3704929E-001  0.4817448E+02  0.7818608E-02  0.1455444E+00
          2   -1    0    0  501    0  0.00000000000E+00  0.00000000000E+00  0.92281096736E+02  0.92281096772E+02  0.26000000000E-02 0.  1.
         -2   -1    0    0    0  501 -0.00000000000E+00 -0.00000000000E+00 -0.62872589382E+01  0.62872594758E+01  0.26000000000E-02 0. -1.
        -13    1    1    2    0    0  0.88897053750E+01 -0.13598142059E+02  0.79382903621E+02  0.81028346206E+02  0.10570000000E+00 0.  1.
         13    1    1    2    0    0 -0.88897053750E+01  0.13598142059E+02  0.66109341768E+01  0.17540010042E+02  0.10570000000E+00 0. -1.
<mgrwt>
<rscale>  0 0.48174482E+02</rscale>
<asrwt>0</asrwt>
<pdfrwt beam="1">  1        2 0.14197091E-01 0.48174482E+02</pdfrwt>
<pdfrwt beam="2">  1       -2 0.96727072E-03 0.48174482E+02</pdfrwt>
<totfact> 0.64443248E+05</totfact>
</mgrwt>
</event>
<event>
 4    1  0.3704929E-001  0.3314263E+02  0.7818608E-02  0.1565741E+00
          2   -1    0    0  501    0  0.00000000000E+00  0.00000000000E+00  0.13015105532E+02  0.13015105792E+02  0.26000000000E-02 0.  1.
         -2   -1    0    0    0  501 -0.00000000000E+00 -0.00000000000E+00 -0.21099217790E+02  0.21099217950E+02  0.26000000000E-02 0. -1.
        -13    1    1    2    0    0  0.12503094836E+02 -0.10275521003E+02 -0.37622730226E+00  0.16188466012E+02  0.10570000000E+00 0.  1.
         13    1    1    2    0    0 -0.12503094836E+02  0.10275521003E+02 -0.77078849552E+01  0.17925857729E+02  0.10570000000E+00 0. -1.
<mgrwt>
<rscale>  0 0.33142634E+02</rscale>
<asrwt>0</asrwt>
<pdfrwt beam="1">  1        2 0.20023240E-02 0.33142634E+02</pdfrwt>
<pdfrwt beam="2">  1       -2 0.32460335E-02 0.33142634E+02</pdfrwt>
<totfact> 0.12049028E+06</totfact>
</mgrwt>
</event>
<event>
 4    1  0.3704929E-001  0.2799792E+02  0.7818608E-02  0.1621335E+00
          2   -1    0    0  501    0  0.00000000000E+00  0.00000000000E+00  0.10320896885E+02  0.10320897213E+02  0.26000000000E-02 0. -1.
         -2   -1    0    0    0  501 -0.00000000000E+00 -0.00000000000E+00 -0.18987776929E+02  0.18987777107E+02  0.26000000000E-02 0.  1.
        -13    1    1    2    0    0 -0.30886874691E+01 -0.10853220393E+02  0.43385540539E+01  0.12089938253E+02  0.10570000000E+00 0. -1.
         13    1    1    2    0    0  0.30886874691E+01  0.10853220393E+02 -0.13005434097E+02  0.17218736067E+02  0.10570000000E+00 0.  1.
<mgrwt>
<rscale>  0 0.27997921E+02</rscale>
<asrwt>0</asrwt>
<pdfrwt beam="1">  1        2 0.15878303E-02 0.27997921E+02</pdfrwt>
<pdfrwt beam="2">  1       -2 0.29211965E-02 0.27997921E+02</pdfrwt>
<totfact> 0.17857659E+06</totfact>
</mgrwt>
</event>
<event>
 4    1  0.3704929E-001  0.2548808E+02  0.7818608E-02  0.1654089E+00
          2   -1    0    0  501    0  0.00000000000E+00  0.00000000000E+00  0.20622119344E+02  0.20622119508E+02  0.26000000000E-02 0. -1.
         -2   -1    0    0    0  501 -0.00000000000E+00 -0.00000000000E+00 -0.78755477540E+01  0.78755481832E+01  0.26000000000E-02 0.  1.
        -13    1    1    2    0    0 -0.10914536878E+02 -0.30713800066E+01  0.12877277155E+02  0.17157969863E+02  0.10570000000E+00 0. -1.
         13    1    1    2    0    0  0.10914536878E+02  0.30713800066E+01 -0.13070556490E+00  0.11339697828E+02  0.10570000000E+00 0.  1.
<mgrwt>
<rscale>  0 0.25488075E+02</rscale>
<asrwt>0</asrwt>
<pdfrwt beam="1">  1        2 0.31726338E-02 0.25488075E+02</pdfrwt>
<pdfrwt beam="2">  1       -2 0.12116228E-02 0.25488075E+02</pdfrwt>
<totfact> 0.23894644E+06</totfact>
</mgrwt>
</event>
<event>
 4    1  0.3704929E-001  0.3043422E+02  0.7818608E-02  0.1593338E+00
         -2   -1    0    0    0  501 -0.00000000000E+00  0.00000000000E+00  0.18325662705E+02  0.18325662890E+02  0.26000000000E-02 0. -1.
          2   -1    0    0  501    0  0.00000000000E+00 -0.00000000000E+00 -0.12635858258E+02  0.12635858526E+02  0.26000000000E-02 0.  1.
        -13    1    1    2    0    0  0.14004564945E+02  0.26313879033E+01 -0.25858713672E+01  0.14482746453E+02  0.10570000000E+00 0.  1.
         13    1    1    2    0    0 -0.14004564945E+02 -0.26313879033E+01  0.82756758144E+01  0.16478774963E+02  0.10570000000E+00 0. -1.
<mgrwt>
<rscale>  0 0.30434223E+02</rscale>
<asrwt>0</asrwt>
<pdfrwt beam="2">  1        2 0.19439782E-02 0.30434223E+02</pdfrwt>
<pdfrwt beam="1">  1       -2 0.28193328E-02 0.30434223E+02</pdfrwt>
<totfact> 0.14848375E+06</totfact>
</mgrwt>
</event>
<event>
 4    1  0.3704929E-001  0.2121197E+02  0.7818608E-02  0.1722248E+00
         -2   -1    0    0    0  501 -0.00000000000E+00  0.00000000000E+00  0.20965489061E+02  0.20965489222E+02  0.26000000000E-02 0.  1.
          2   -1    0    0  501    0  0.00000000000E+00 -0.00000000000E+00 -0.53653382263E+01  0.53653388563E+01  0.26000000000E-02 0. -1.
        -13    1    1    2    0    0 -0.88145956527E-01 -0.10071923126E+02  0.36785271221E+01  0.10723532041E+02  0.10570000000E+00 0. -1.
         13    1    1    2    0    0  0.88145956527E-01  0.10071923126E+02  0.11921623712E+02  0.15607296037E+02  0.10570000000E+00 0.  1.
<mgrwt>
<rscale>  0 0.21211973E+02</rscale>
<asrwt>0</asrwt>
<pdfrwt beam="2">  1        2 0.82543672E-03 0.21211973E+02</pdfrwt>
<pdfrwt beam="1">  1       -2 0.32254599E-02 0.21211973E+02</pdfrwt>
<totfact> 0.32791549E+06</totfact>
</mgrwt>
</event>
<event>
 4    1  0.3704929E-001  0.3985903E+02  0.7818608E-02  0.1509251E+00
          2   -1    0    0  501    0  0.00000000000E+00  0.00000000000E+00  0.77889104094E+01  0.77889108434E+01  0.26000000000E-02 0.  1.
         -2   -1    0    0    0  501 -0.00000000000E+00 -0.00000000000E+00 -0.50993731957E+02  0.50993732023E+02  0.26000000000E-02 0. -1.
        -13    1    1    2    0    0  0.20695435430E+01  0.19786279265E+02 -0.19860819316E+02  0.28111264184E+02  0.10570000000E+00 0.  1.
         13    1    1    2    0    0 -0.20695435430E+01 -0.19786279265E+02 -0.23344002231E+02  0.30671378682E+02  0.10570000000E+00 0. -1.
<mgrwt>
<rscale>  0 0.39859033E+02</rscale>
<asrwt>0</asrwt>
<pdfrwt beam="1">  1        2 0.11982940E-02 0.39859033E+02</pdfrwt>
<pdfrwt beam="2">  1       -2 0.78451894E-02 0.39859033E+02</pdfrwt>
<totfact> 0.69788693E+05</totfact>
</mgrwt>
</event>
<event>
 4    1  0.3704929E-001  0.2515668E+02  0.7818608E-02  0.1658762E+00
          2   -1    0    0  501    0  0.00000000000E+00  0.00000000000E+00  0.14872757991E+01  0.14872780717E+01  0.26000000000E-02 0. -1.
         -2   -1    0    0    0  501 -0.00000000000E+00 -0.00000000000E+00 -0.10637874834E+03  0.10637874837E+03  0.26000000000E-02 0.  1.
        -13    1    1    2    0    0 -0.67154618932E+01  0.10040726870E+02 -0.37414147682E+02  0.39315941344E+02  0.10570000000E+00 0. -1.
         13    1    1    2    0    0  0.67154618932E+01 -0.10040726870E+02 -0.67477324855E+02  0.68550085096E+02  0.10570000000E+00 0.  1.
<mgrwt>
<rscale>  0 0.25156682E+02</rscale>
<asrwt>0</asrwt>
<pdfrwt beam="1">  1        2 0.22881192E-03 0.25156682E+02</pdfrwt>
<pdfrwt beam="2">  1       -2 0.16365955E-01 0.25156682E+02</pdfrwt>
<totfact> 0.17583094E+06</totfact>
</mgrwt>
</event>
<event>
 4    1  0.3704929E-001  0.4075073E+02  0.7818608E-02  0.1502758E+00
          2   -1    0    0  501    0  0.00000000000E+00  0.00000000000E+00  0.12615934769E+03  0.12615934771E+03  0.26000000000E-02 0.  1.
         -2   -1    0    0    0  501 -0.00000000000E+00 -0.00000000000E+00 -0.32907230182E+01  0.32907240453E+01  0.26000000000E-02 0. -1.
        -13    1    1    2    0    0 -0.13248042621E+02 -0.15296015530E+02  0.68995524036E+02  0.71901823578E+02  0.10570000000E+00 0.  1.
         13    1    1    2    0    0  0.13248042621E+02  0.15296015530E+02  0.53873100631E+02  0.57548248179E+02  0.10570000000E+00 0. -1.
<mgrwt>
<rscale>  0 0.40750732E+02</rscale>
<asrwt>0</asrwt>
<pdfrwt beam="1">  1        2 0.19409129E-01 0.40750732E+02</pdfrwt>
<pdfrwt beam="2">  1       -2 0.50626519E-03 0.40750732E+02</pdfrwt>
<totfact> 0.10614613E+06</totfact>
</mgrwt>
</event>
<event>
 4    1  0.3704929E-001  0.2128736E+02  0.7818608E-02  0.1720876E+00
          2   -1    0    0  501    0  0.00000000000E+00  0.00000000000E+00  0.73345857480E+01  0.73345862089E+01  0.26000000000E-02 0.  1.
         -2   -1    0    0    0  501 -0.00000000000E+00 -0.00000000000E+00 -0.15445719746E+02  0.15445719965E+02  0.26000000000E-02 0. -1.
        -13    1    1    2    0    0 -0.93668883185E+01 -0.49487443264E+01 -0.51511467749E+01  0.11780244173E+02  0.10570000000E+00 0. -1.
         13    1    1    2    0    0  0.93668883185E+01  0.49487443264E+01 -0.29599872231E+01  0.11000062001E+02  0.10570000000E+00 0.  1.
<mgrwt>
<rscale>  0 0.21287364E+02</rscale>
<asrwt>0</asrwt>
<pdfrwt beam="1">  1        2 0.11283979E-02 0.21287364E+02</pdfrwt>
<pdfrwt beam="2">  1       -2 0.23762646E-02 0.21287364E+02</pdfrwt>
<totfact> 0.33370092E+06</totfact>
</mgrwt>
</event>
<event>
 4    1  0.3704929E-001  0.2932313E+02  0.7818608E-02  0.1605693E+00
         -2   -1    0    0    0  501 -0.00000000000E+00  0.00000000000E+00  0.59039125232E+01  0.59039130957E+01  0.26000000000E-02 0.  1.
          2   -1    0    0  501    0  0.00000000000E+00 -0.00000000000E+00 -0.36410012891E+02  0.36410012984E+02  0.26000000000E-02 0. -1.
        -13    1    1    2    0    0 -0.12620570757E+02 -0.98086914724E+00 -0.45796163436E+01  0.13461982352E+02  0.10570000000E+00 0.  1.
         13    1    1    2    0    0  0.12620570757E+02  0.98086914724E+00 -0.25926484025E+02  0.28851943728E+02  0.10570000000E+00 0. -1.
<mgrwt>
<rscale>  0 0.29323134E+02</rscale>
<asrwt>0</asrwt>
<pdfrwt beam="2">  1        2 0.56015404E-02 0.29323134E+02</pdfrwt>
<pdfrwt beam="1">  1       -2 0.90829431E-03 0.29323134E+02</pdfrwt>
<totfact> 0.18311140E+06</totfact>
</mgrwt>
</event>
<event>
 4    1  0.3704929E-001  0.2846674E+02  0.7818608E-02  0.1615683E+00
          2   -1    0    0  501    0  0.00000000000E+00  0.00000000000E+00  0.23239829818E+01  0.23239844362E+01  0.26000000000E-02 0.  1.
         -2   -1    0    0    0  501 -0.00000000000E+00 -0.00000000000E+00 -0.87173066396E+02  0.87173066435E+02  0.26000000000E-02 0. -1.
        -13    1    1    2    0    0 -0.63635242464E+01  0.11138361893E+02 -0.23039020431E+02  0.26369777803E+02  0.10570000000E+00 0.  1.
         13    1    1    2    0    0  0.63635242464E+01 -0.11138361893E+02 -0.61810062983E+02  0.63127273068E+02  0.10570000000E+00 0. -1.
<mgrwt>
<rscale>  0 0.28466738E+02</rscale>
<asrwt>0</asrwt>
<pdfrwt beam="1">  1        2 0.35753603E-03 0.28466738E+02</pdfrwt>
<pdfrwt beam="2">  1       -2 0.13411239E-01 0.28466738E+02</pdfrwt>
<totfact> 0.13897257E+06</totfact>
</mgrwt>
</event>
<event>
 4    1  0.3704929E-001  0.3017712E+02  0.7818608E-02  0.1596139E+00
          2   -1    0    0  501    0  0.00000000000E+00  0.00000000000E+00  0.55252603809E+02  0.55252603870E+02  0.26000000000E-02 0. -1.
         -2   -1    0    0    0  501 -0.00000000000E+00 -0.00000000000E+00 -0.41204314416E+01  0.41204322619E+01  0.26000000000E-02 0.  1.
        -13    1    1    2    0    0  0.11651458401E+02  0.29572188619E+01  0.43507114288E+02  0.45137365811E+02  0.10570000000E+00 0. -1.
         13    1    1    2    0    0 -0.11651458401E+02 -0.29572188619E+01  0.76250580795E+01  0.14235670320E+02  0.10570000000E+00 0.  1.
<mgrwt>
<rscale>  0 0.30177117E+02</rscale>
<asrwt>0</asrwt>
<pdfrwt beam="1">  1        2 0.85004004E-02 0.30177117E+02</pdfrwt>
<pdfrwt beam="2">  1       -2 0.63391262E-03 0.30177117E+02</pdfrwt>
<totfact> 0.18233930E+06</totfact>
</mgrwt>
</event>
<event>
 4    1  0.3704929E-001  0.2975838E+02  0.7818608E-02  0.1600775E+00
          2   -1    0    0  501    0  0.00000000000E+00  0.00000000000E+00  0.23864018207E+01  0.23864032371E+01  0.26000000000E-02 0. -1.
         -2   -1    0    0    0  501 -0.00000000000E+00 -0.00000000000E+00 -0.92771549418E+02  0.92771549454E+02  0.26000000000E-02 0.  1.
        -13    1    1    2    0    0  0.94135588627E+01 -0.11407461065E+02 -0.50382126478E+02  0.52508238395E+02  0.10570000000E+00 0. -1.
         13    1    1    2    0    0 -0.94135588627E+01  0.11407461065E+02 -0.40003021119E+02  0.42649714296E+02  0.10570000000E+00 0.  1.
<mgrwt>
<rscale>  0 0.29758378E+02</rscale>
<asrwt>0</asrwt>
<pdfrwt beam="1">  1        2 0.36713892E-03 0.29758378E+02</pdfrwt>
<pdfrwt beam="2">  1       -2 0.14272543E-01 0.29758378E+02</pdfrwt>
<totfact> 0.12371106E+06</totfact>
</mgrwt>
</event>
<event>
 4    1  0.3704929E-001  0.2141699E+02  0.7818608E-02  0.1718534E+00
          2   -1    0    0  501    0  0.00000000000E+00  0.00000000000E+00  0.47338277174E+02  0.47338277246E+02  0.26000000000E-02 0. -1.
         -2   -1    0    0    0  501 -0.00000000000E+00 -0.00000000000E+00 -0.24223912292E+01  0.24223926245E+01  0.26000000000E-02 0.  1.
        -13    1    1    2    0    0  0.10033527732E+02  0.19815114300E+01  0.15087672368E+02  0.18227646483E+02  0.10570000000E+00 0. -1.
         13    1    1    2    0    0 -0.10033527732E+02 -0.19815114300E+01  0.29828213576E+02  0.31533023387E+02  0.10570000000E+00 0.  1.
<mgrwt>
<rscale>  0 0.21416990E+02</rscale>
<asrwt>0</asrwt>
<pdfrwt beam="1">  1        2 0.72828125E-02 0.21416990E+02</pdfrwt>
<pdfrwt beam="2">  1       -2 0.37267566E-03 0.21416990E+02</pdfrwt>
<totfact> 0.39409614E+06</totfact>
</mgrwt>
</event>
<event>
 4    1  0.3704929E-001  0.2456194E+02  0.7818608E-02  0.1667375E+00
          2   -1    0    0  501    0  0.00000000000E+00  0.00000000000E+00  0.28324739081E+01  0.28324751014E+01  0.26000000000E-02 0. -1.
         -2   -1    0    0    0  501 -0.00000000000E+00 -0.00000000000E+00 -0.53247521618E+02  0.53247521682E+02  0.26000000000E-02 0.  1.
        -13    1    1    2    0    0 -0.10046535725E+02 -0.10327170780E+01 -0.41159232709E+02  0.42380337355E+02  0.10570000000E+00 0.  1.
         13    1    1    2    0    0  0.10046535725E+02  0.10327170780E+01 -0.92558150012E+01  0.13699659428E+02  0.10570000000E+00 0. -1.
<mgrwt>
<rscale>  0 0.24561942E+02</rscale>
<asrwt>0</asrwt>
<pdfrwt beam="1">  1        2 0.43576535E-03 0.24561942E+02</pdfrwt>
<pdfrwt beam="2">  1       -2 0.81919258E-02 0.24561942E+02</pdfrwt>
<totfact> 0.21282354E+06</totfact>
</mgrwt>
</event>
<event>
 4    1  0.3704929E-001  0.2487683E+02  0.7818608E-02  0.1662777E+00
          2   -1    0    0  501    0  0.00000000000E+00  0.00000000000E+00  0.71493693452E+01  0.71493698180E+01  0.26000000000E-02 0.  1.
         -2   -1    0    0    0  501 -0.00000000000E+00 -0.00000000000E+00 -0.21640247634E+02  0.21640247790E+02  0.26000000000E-02 0. -1.
        -13    1    1    2    0    0  0.12021585389E+02 -0.23217131768E+01 -0.47115121258E+01  0.13119389710E+02  0.10570000000E+00 0. -1.
         13    1    1    2    0    0 -0.12021585389E+02  0.23217131768E+01 -0.97793661626E+01  0.15670227898E+02  0.10570000000E+00 0.  1.
<mgrwt>
<rscale>  0 0.24876827E+02</rscale>
<asrwt>0</asrwt>
<pdfrwt beam="1">  1        2 0.10999030E-02 0.24876827E+02</pdfrwt>
<pdfrwt beam="2">  1       -2 0.33292689E-02 0.24876827E+02</pdfrwt>
<totfact> 0.22986158E+06</totfact>
</mgrwt>
</event>
<event>
 4    1  0.3704929E-001  0.3647092E+02  0.7818608E-02  0.1535913E+00
          2   -1    0    0  501    0  0.00000000000E+00  0.00000000000E+00  0.93058038548E+02  0.93058038584E+02  0.26000000000E-02 0. -1.
         -2   -1    0    0    0  501 -0.00000000000E+00 -0.00000000000E+00 -0.35733823359E+01  0.35733832818E+01  0.26000000000E-02 0.  1.
        -13    1    1    2    0    0  0.12219516768E+02 -0.13525621993E+02  0.46097969031E+02  0.49571089978E+02  0.10570000000E+00 0. -1.
         13    1    1    2    0    0 -0.12219516768E+02  0.13525621993E+02  0.43386687181E+02  0.47060331888E+02  0.10570000000E+00 0.  1.
<mgrwt>
<rscale>  0 0.36470920E+02</rscale>
<asrwt>0</asrwt>
<pdfrwt beam="1">  1        2 0.14316621E-01 0.36470920E+02</pdfrwt>
<pdfrwt beam="2">  1       -2 0.54975123E-03 0.36470920E+02</pdfrwt>
<totfact> 0.12866098E+06</totfact>
</mgrwt>
</event>
<event>
 4    1  0.3704929E-001  0.2731712E+02  0.7818608E-02  0.1629790E+00
         -2   -1    0    0    0  501 -0.00000000000E+00  0.00000000000E+00  0.37931251567E+01  0.37931260478E+01  0.26000000000E-02 0.  1.
          2   -1    0    0  501    0  0.00000000000E+00 -0.00000000000E+00 -0.49182741015E+02  0.49182741084E+02  0.26000000000E-02 0. -1.
        -13    1    1    2    0    0 -0.34122689127E+01  0.12804424539E+02 -0.29111571111E+02  0.31985803287E+02  0.10570000000E+00 0. -1.
         13    1    1    2    0    0  0.34122689127E+01 -0.12804424539E+02 -0.16278044748E+02  0.20990063844E+02  0.10570000000E+00 0.  1.
<mgrwt>
<rscale>  0 0.27317124E+02</rscale>
<asrwt>0</asrwt>
<pdfrwt beam="2">  1        2 0.75665751E-02 0.27317124E+02</pdfrwt>
<pdfrwt beam="1">  1       -2 0.58355783E-03 0.27317124E+02</pdfrwt>
<totfact> 0.22632143E+06</totfact>
</mgrwt>
</event>
<event>
 4    1  0.3704929E-001  0.2731751E+02  0.7818608E-02  0.1629785E+00
          2   -1    0    0  501    0  0.00000000000E+00  0.00000000000E+00  0.24907868305E+01  0.24907881875E+01  0.26000000000E-02 0.  1.
         -2   -1    0    0    0  501 -0.00000000000E+00 -0.00000000000E+00 -0.74900652380E+02  0.74900652426E+02  0.26000000000E-02 0. -1.
        -13    1    1    2    0    0 -0.78606743794E+01 -0.90472516914E+01 -0.54762381653E+02  0.56058653049E+02  0.10570000000E+00 0. -1.
         13    1    1    2    0    0  0.78606743794E+01  0.90472516914E+01 -0.17647483897E+02  0.21332787564E+02  0.10570000000E+00 0.  1.
<mgrwt>
<rscale>  0 0.27317512E+02</rscale>
<asrwt>0</asrwt>
<pdfrwt beam="1">  1        2 0.38319814E-03 0.27317512E+02</pdfrwt>
<pdfrwt beam="2">  1       -2 0.11523176E-01 0.27317512E+02</pdfrwt>
<totfact> 0.15760772E+06</totfact>
</mgrwt>
</event>
<event>
 4    1  0.3704929E-001  0.2221516E+02  0.7818608E-02  0.1704557E+00
          2   -1    0    0  501    0  0.00000000000E+00  0.00000000000E+00  0.44509005763E+02  0.44509005839E+02  0.26000000000E-02 0.  1.
         -2   -1    0    0    0  501 -0.00000000000E+00 -0.00000000000E+00 -0.27719861325E+01  0.27719873518E+01  0.26000000000E-02 0. -1.
        -13    1    1    2    0    0 -0.96328815120E+01  0.53703489220E+01  0.23671235133E+02  0.26114585943E+02  0.10570000000E+00 0.  1.
         13    1    1    2    0    0  0.96328815120E+01 -0.53703489220E+01  0.18065784498E+02  0.21166407248E+02  0.10570000000E+00 0. -1.
<mgrwt>
<rscale>  0 0.22215164E+02</rscale>
<asrwt>0</asrwt>
<pdfrwt beam="1">  1        2 0.68475388E-02 0.22215164E+02</pdfrwt>
<pdfrwt beam="2">  1       -2 0.42645955E-03 0.22215164E+02</pdfrwt>
<totfact> 0.35950306E+06</totfact>
</mgrwt>
</event>
<event>
 4    1  0.3704929E-001  0.3540169E+02  0.7818608E-02  0.1545062E+00
         -2   -1    0    0    0  501 -0.00000000000E+00  0.00000000000E+00  0.26174760763E+02  0.26174760892E+02  0.26000000000E-02 0.  1.
          2   -1    0    0  501    0  0.00000000000E+00 -0.00000000000E+00 -0.11970304556E+02  0.11970304838E+02  0.26000000000E-02 0. -1.
        -13    1    1    2    0    0  0.34647367618E+01  0.15003435611E+02 -0.23035633786E+01  0.15570005064E+02  0.10570000000E+00 0. -1.
         13    1    1    2    0    0 -0.34647367618E+01 -0.15003435611E+02  0.16508019585E+02  0.22575060666E+02  0.10570000000E+00 0.  1.
<mgrwt>
<rscale>  0 0.35401687E+02</rscale>
<asrwt>0</asrwt>
<pdfrwt beam="2">  1        2 0.18415854E-02 0.35401687E+02</pdfrwt>
<pdfrwt beam="1">  1       -2 0.40268862E-02 0.35401687E+02</pdfrwt>
<totfact> 0.10101858E+06</totfact>
</mgrwt>
</event>
<event>
 4    1  0.3704929E-001  0.2760776E+02  0.7818608E-02  0.1626144E+00
         -2   -1    0    0    0  501 -0.00000000000E+00  0.00000000000E+00  0.19820813096E+01  0.19820830148E+01  0.26000000000E-02 0. -1.
          2   -1    0    0  501    0  0.00000000000E+00 -0.00000000000E+00 -0.96134821055E+02  0.96134821090E+02  0.26000000000E-02 0.  1.
        -13    1    1    2    0    0 -0.55968611187E+00 -0.12849714058E+02 -0.29268385166E+02  0.31969953748E+02  0.10570000000E+00 0. -1.
         13    1    1    2    0    0  0.55968611187E+00  0.12849714058E+02 -0.64884354579E+02  0.66146950357E+02  0.10570000000E+00 0.  1.
<mgrwt>
<rscale>  0 0.27607761E+02</rscale>
<asrwt>0</asrwt>
<pdfrwt beam="2">  1        2 0.14789969E-01 0.27607761E+02</pdfrwt>
<pdfrwt beam="1">  1       -2 0.30493580E-03 0.27607761E+02</pdfrwt>
<totfact> 0.25153698E+06</totfact>
</mgrwt>
</event>
<event>
 4    1  0.3704929E-001  0.2605703E+02  0.7818608E-02  0.1646268E+00
          2   -1    0    0  501    0  0.00000000000E+00  0.00000000000E+00  0.53098885504E+02  0.53098885568E+02  0.26000000000E-02 0.  1.
         -2   -1    0    0    0  501 -0.00000000000E+00 -0.00000000000E+00 -0.31967184907E+01  0.31967195481E+01  0.26000000000E-02 0. -1.
        -13    1    1    2    0    0  0.97260547231E+01  0.54423439056E+01  0.10375342294E+02  0.15227414353E+02  0.10570000000E+00 0.  1.
         13    1    1    2    0    0 -0.97260547231E+01 -0.54423439056E+01  0.39526824719E+02  0.41068190763E+02  0.10570000000E+00 0. -1.
<mgrwt>
<rscale>  0 0.26057031E+02</rscale>
<asrwt>0</asrwt>
<pdfrwt beam="1">  1        2 0.81690588E-02 0.26057031E+02</pdfrwt>
<pdfrwt beam="2">  1       -2 0.49180297E-03 0.26057031E+02</pdfrwt>
<totfact> 0.25590484E+06</totfact>
</mgrwt>
</event>
<event>
 4    1  0.3704929E-001  0.2094550E+02  0.7818608E-02  0.1727154E+00
         -2   -1    0    0    0  501 -0.00000000000E+00  0.00000000000E+00  0.23581310467E+01  0.23581324801E+01  0.26000000000E-02 0. -1.
          2   -1    0    0  501    0  0.00000000000E+00 -0.00000000000E+00 -0.46510751675E+02  0.46510751748E+02  0.26000000000E-02 0.  1.
        -13    1    1    2    0    0  0.70947382114E+01 -0.76400975021E+01 -0.24363401343E+02  0.26500809377E+02  0.10570000000E+00 0.  1.
         13    1    1    2    0    0 -0.70947382114E+01  0.76400975021E+01 -0.19789219285E+02  0.22368074850E+02  0.10570000000E+00 0. -1.
<mgrwt>
<rscale>  0 0.20945499E+02</rscale>
<asrwt>0</asrwt>
<pdfrwt beam="2">  1        2 0.71554997E-02 0.20945499E+02</pdfrwt>
<pdfrwt beam="1">  1       -2 0.36278954E-03 0.20945499E+02</pdfrwt>
<totfact> 0.41330408E+06</totfact>
</mgrwt>
</event>
<event>
 4    1  0.3704929E-001  0.2419285E+02  0.7818608E-02  0.1672873E+00
          2   -1    0    0  501    0  0.00000000000E+00  0.00000000000E+00  0.21790805870E+02  0.21790806025E+02  0.26000000000E-02 0.  1.
         -2   -1    0    0    0  501 -0.00000000000E+00 -0.00000000000E+00 -0.67149172977E+01  0.67149178011E+01  0.26000000000E-02 0. -1.
        -13    1    1    2    0    0 -0.11440911462E+02 -0.35944303723E+01  0.56757130972E+01  0.13267979365E+02  0.10570000000E+00 0. -1.
         13    1    1    2    0    0  0.11440911462E+02  0.35944303723E+01  0.94001754746E+01  0.15237744460E+02  0.10570000000E+00 0.  1.
<mgrwt>
<rscale>  0 0.24192848E+02</rscale>
<asrwt>0</asrwt>
<pdfrwt beam="1">  1        2 0.33524317E-02 0.24192848E+02</pdfrwt>
<pdfrwt beam="2">  1       -2 0.10330642E-02 0.24192848E+02</pdfrwt>
<totfact> 0.27151341E+06</totfact>
</mgrwt>
</event>
<event>
 4    1  0.3704929E-001  0.2047875E+02  0.7818608E-02  0.1735972E+00
         -2   -1    0    0    0  501 -0.00000000000E+00  0.00000000000E+00  0.33219215432E+01  0.33219225607E+01  0.26000000000E-02 0.  1.
          2   -1    0    0  501    0  0.00000000000E+00 -0.00000000000E+00 -0.31561483700E+02  0.31561483807E+02  0.26000000000E-02 0. -1.
        -13    1    1    2    0    0  0.98365254046E+01 -0.18149863974E+01 -0.17844811956E+02  0.20457269952E+02  0.10570000000E+00 0. -1.
         13    1    1    2    0    0 -0.98365254046E+01  0.18149863974E+01 -0.10394750201E+02  0.14426136416E+02  0.10570000000E+00 0.  1.
<mgrwt>
<rscale>  0 0.20478749E+02</rscale>
<asrwt>0</asrwt>
<pdfrwt beam="2">  1        2 0.48556128E-02 0.20478749E+02</pdfrwt>
<pdfrwt beam="1">  1       -2 0.51106496E-03 0.20478749E+02</pdfrwt>
<totfact> 0.41361570E+06</totfact>
</mgrwt>
</event>
<event>
 4    1  0.3704929E-001  0.3859120E+02  0.7818608E-02  0.1518842E+00
         -2   -1    0    0    0  501 -0.00000000000E+00  0.00000000000E+00  0.51100312783E+01  0.51100319397E+01  0.26000000000E-02 0.  1.
          2   -1    0    0  501    0  0.00000000000E+00 -0.00000000000E+00 -0.72860625183E+02  0.72860625229E+02  0.26000000000E-02 0. -1.
        -13    1    1    2    0    0  0.22052965332E+01  0.13988742413E+02 -0.60354495401E+02  0.61993745932E+02  0.10570000000E+00 0. -1.
         13    1    1    2    0    0 -0.22052965332E+01 -0.13988742413E+02 -0.73960985039E+01  0.15976911237E+02  0.10570000000E+00 0.  1.
<mgrwt>
<rscale>  0 0.38591196E+02</rscale>
<asrwt>0</asrwt>
<pdfrwt beam="2">  1        2 0.11209326E-01 0.38591196E+02</pdfrwt>
<pdfrwt beam="1">  1       -2 0.78615876E-03 0.38591196E+02</pdfrwt>
<totfact> 0.10604811E+06</totfact>
</mgrwt>
</event>
<event>
 4    1  0.3704929E-001  0.3709253E+02  0.7818608E-02  0.1530767E+00
          2   -1    0    0  501    0  0.00000000000E+00  0.00000000000E+00  0.45313400432E+01  0.45313407892E+01  0.26000000000E-02 0.  1.
         -2   -1    0    0    0  501 -0.00000000000E+00 -0.00000000000E+00 -0.75907774683E+02  0.75907774727E+02  0.26000000000E-02 0. -1.
        -13    1    1    2    0    0  0.56377539114E+01 -0.15213353832E+02 -0.55172204340E+02  0.57508379461E+02  0.10570000000E+00 0. -1.
         13    1    1    2    0    0 -0.56377539114E+01  0.15213353832E+02 -0.16204230299E+02  0.22930736056E+02  0.10570000000E+00 0.  1.
<mgrwt>
<rscale>  0 0.37092531E+02</rscale>
<asrwt>0</asrwt>
<pdfrwt beam="1">  1        2 0.69712935E-03 0.37092531E+02</pdfrwt>
<pdfrwt beam="2">  1       -2 0.11678118E-01 0.37092531E+02</pdfrwt>
<totfact> 0.77054355E+05</totfact>
</mgrwt>
</event>
<event>
 4    1  0.3704929E-001  0.2672535E+02  0.7818608E-02  0.1637389E+00
         -2   -1    0    0    0  501 -0.00000000000E+00  0.00000000000E+00  0.24051274752E+01  0.24051288805E+01  0.26000000000E-02 0. -1.
          2   -1    0    0  501    0  0.00000000000E+00 -0.00000000000E+00 -0.74241820985E+02  0.74241821030E+02  0.26000000000E-02 0.  1.
        -13    1    1    2    0    0 -0.12384299608E+02 -0.43511805662E+01 -0.28750609246E+02  0.31605574724E+02  0.10570000000E+00 0. -1.
         13    1    1    2    0    0  0.12384299608E+02  0.43511805662E+01 -0.43086084263E+02  0.45041375187E+02  0.10570000000E+00 0.  1.
<mgrwt>
<rscale>  0 0.26725351E+02</rscale>
<asrwt>0</asrwt>
<pdfrwt beam="2">  1        2 0.11421817E-01 0.26725351E+02</pdfrwt>
<pdfrwt beam="1">  1       -2 0.37001978E-03 0.26725351E+02</pdfrwt>
<totfact> 0.25649561E+06</totfact>
</mgrwt>
</event>
<event>
 4    1  0.3704929E-001  0.2198834E+02  0.7818608E-02  0.1708454E+00
          2   -1    0    0  501    0  0.00000000000E+00  0.00000000000E+00  0.91108754533E+01  0.91108758243E+01  0.26000000000E-02 0.  1.
         -2   -1    0    0    0  501 -0.00000000000E+00 -0.00000000000E+00 -0.13266751040E+02  0.13266751294E+02  0.26000000000E-02 0. -1.
        -13    1    1    2    0    0 -0.81421805311E+01  0.69694563010E+01  0.41328258327E+00  0.10726154946E+02  0.10570000000E+00 0.  1.
         13    1    1    2    0    0  0.81421805311E+01 -0.69694563010E+01 -0.45691581695E+01  0.11651472173E+02  0.10570000000E+00 0. -1.
<mgrwt>
<rscale>  0 0.21988335E+02</rscale>
<asrwt>0</asrwt>
<pdfrwt beam="1">  1        2 0.14016732E-02 0.21988335E+02</pdfrwt>
<pdfrwt beam="2">  1       -2 0.20410387E-02 0.21988335E+02</pdfrwt>
<totfact> 0.31471822E+06</totfact>
</mgrwt>
</event>
<event>
 4    1  0.3704929E-001  0.4484308E+02  0.7818608E-02  0.1475324E+00
          2   -1    0    0  501    0  0.00000000000E+00  0.00000000000E+00  0.10758348890E+02  0.10758349204E+02  0.26000000000E-02 0.  1.
         -2   -1    0    0    0  501 -0.00000000000E+00 -0.00000000000E+00 -0.46728856551E+02  0.46728856623E+02  0.26000000000E-02 0. -1.
        -13    1    1    2    0    0 -0.11028672222E+02 -0.19507159803E+02 -0.17031687998E+02  0.28146944117E+02  0.10570000000E+00 0.  1.
         13    1    1    2    0    0  0.11028672222E+02  0.19507159803E+02 -0.18938819663E+02  0.29340261711E+02  0.10570000000E+00 0. -1.
<mgrwt>
<rscale>  0 0.44843075E+02</rscale>
<asrwt>0</asrwt>
<pdfrwt beam="1">  1        2 0.16551307E-02 0.44843075E+02</pdfrwt>
<pdfrwt beam="2">  1       -2 0.71890548E-02 0.44843075E+02</pdfrwt>
<totfact> 0.53496857E+05</totfact>
</mgrwt>
</event>
<event>
 4    1  0.3704929E-001  0.3689568E+02  0.7818608E-02  0.1532383E+00
         -2   -1    0    0    0  501 -0.00000000000E+00  0.00000000000E+00  0.15323709052E+02  0.15323709272E+02  0.26000000000E-02 0.  1.
          2   -1    0    0  501    0  0.00000000000E+00 -0.00000000000E+00 -0.22208900375E+02  0.22208900527E+02  0.26000000000E-02 0. -1.
        -13    1    1    2    0    0 -0.14948670655E+02  0.27597652152E+01 -0.14074455222E+02  0.20716672529E+02  0.10570000000E+00 0. -1.
         13    1    1    2    0    0  0.14948670655E+02 -0.27597652152E+01  0.71892638987E+01  0.16815937270E+02  0.10570000000E+00 0.  1.
<mgrwt>
<rscale>  0 0.36895676E+02</rscale>
<asrwt>0</asrwt>
<pdfrwt beam="2">  1        2 0.34167540E-02 0.36895676E+02</pdfrwt>
<pdfrwt beam="1">  1       -2 0.23574937E-02 0.36895676E+02</pdfrwt>
<totfact> 0.98021222E+05</totfact>
</mgrwt>
</event>
<event>
 4    1  0.3704929E-001  0.2111789E+02  0.7818608E-02  0.1723970E+00
          2   -1    0    0  501    0  0.00000000000E+00  0.00000000000E+00  0.82018543758E+02  0.82018543799E+02  0.26000000000E-02 0. -1.
         -2   -1    0    0    0  501 -0.00000000000E+00 -0.00000000000E+00 -0.13593410789E+01  0.13593435654E+01  0.26000000000E-02 0.  1.
        -13    1    1    2    0    0  0.10316017297E+02  0.14784070386E+01  0.47023198397E+02  0.48164284073E+02  0.10570000000E+00 0.  1.
         13    1    1    2    0    0 -0.10316017297E+02 -0.14784070386E+01  0.33636004281E+02  0.35213603291E+02  0.10570000000E+00 0. -1.
<mgrwt>
<rscale>  0 0.21117886E+02</rscale>
<asrwt>0</asrwt>
<pdfrwt beam="1">  1        2 0.12618233E-01 0.21117886E+02</pdfrwt>
<pdfrwt beam="2">  1       -2 0.20912966E-03 0.21117886E+02</pdfrwt>
<totfact> 0.44794424E+06</totfact>
</mgrwt>
</event>
<event>
 4    1  0.3704929E-001  0.3912279E+02  0.7818608E-02  0.1514768E+00
         -2   -1    0    0    0  501 -0.00000000000E+00  0.00000000000E+00  0.32056045337E+01  0.32056055881E+01  0.26000000000E-02 0.  1.
          2   -1    0    0  501    0  0.00000000000E+00 -0.00000000000E+00 -0.11936846121E+03  0.11936846124E+03  0.26000000000E-02 0. -1.
        -13    1    1    2    0    0  0.43695489828E+01  0.15749530933E+02 -0.24410676622E+02  0.29377423110E+02  0.10570000000E+00 0.  1.
         13    1    1    2    0    0 -0.43695489828E+01 -0.15749530933E+02 -0.91752180057E+02  0.93196643720E+02  0.10570000000E+00 0. -1.
<mgrwt>
<rscale>  0 0.39122789E+02</rscale>
<asrwt>0</asrwt>
<pdfrwt beam="2">  1        2 0.18364375E-01 0.39122789E+02</pdfrwt>
<pdfrwt beam="1">  1       -2 0.49317010E-03 0.39122789E+02</pdfrwt>
<totfact> 0.11552259E+06</totfact>
</mgrwt>
</event>
<event>
 4    1  0.3704929E-001  0.3518211E+02  0.7818608E-02  0.1546989E+00
          2   -1    0    0  501    0  0.00000000000E+00  0.00000000000E+00  0.51878408178E+02  0.51878408244E+02  0.26000000000E-02 0. -1.
         -2   -1    0    0    0  501 -0.00000000000E+00 -0.00000000000E+00 -0.59648181638E+01  0.59648187305E+01  0.26000000000E-02 0.  1.
        -13    1    1    2    0    0 -0.71118536174E+01  0.12697306388E+02  0.67113629092E+01  0.16026653299E+02  0.10570000000E+00 0.  1.
         13    1    1    2    0    0  0.71118536174E+01 -0.12697306388E+02  0.39202227105E+02  0.41816573675E+02  0.10570000000E+00 0. -1.
<mgrwt>
<rscale>  0 0.35182114E+02</rscale>
<asrwt>0</asrwt>
<pdfrwt beam="1">  1        2 0.79812932E-02 0.35182114E+02</pdfrwt>
<pdfrwt beam="2">  1       -2 0.91766443E-03 0.35182114E+02</pdfrwt>
<totfact> 0.12459834E+06</totfact>
</mgrwt>
</event>
<event>
 4    1  0.3704929E-001  0.7549198E+02  0.7818608E-02  0.1342354E+00
          2   -1    0    0  501    0  0.00000000000E+00  0.00000000000E+00  0.11411416272E+02  0.11411416568E+02  0.26000000000E-02 0.  1.
         -2   -1    0    0    0  501 -0.00000000000E+00 -0.00000000000E+00 -0.12485389083E+03  0.12485389086E+03  0.26000000000E-02 0. -1.
        -13    1    1    2    0    0 -0.19030706980E+02  0.15397782164E+02 -0.48603252784E+01  0.24957833200E+02  0.10570000000E+00 0.  1.
         13    1    1    2    0    0  0.19030706980E+02 -0.15397782164E+02 -0.10858214928E+03  0.11130747423E+03  0.10570000000E+00 0. -1.
<mgrwt>
<rscale>  0 0.75491980E+02</rscale>
<asrwt>0</asrwt>
<pdfrwt beam="1">  1        2 0.17556026E-02 0.75491980E+02</pdfrwt>
<pdfrwt beam="2">  1       -2 0.19208290E-01 0.75491980E+02</pdfrwt>
<totfact> 0.11959261E+05</totfact>
</mgrwt>
</event>
<event>
 4    1  0.3704929E-001  0.3442925E+02  0.7818608E-02  0.1553728E+00
          2   -1    0    0  501    0  0.00000000000E+00  0.00000000000E+00  0.66073230827E+02  0.66073230878E+02  0.26000000000E-02 0.  1.
         -2   -1    0    0    0  501 -0.00000000000E+00 -0.00000000000E+00 -0.44850739875E+01  0.44850747411E+01  0.26000000000E-02 0. -1.
        -13    1    1    2    0    0 -0.10821943414E+02 -0.13352440855E+02  0.28817685020E+02  0.33554020302E+02  0.10570000000E+00 0. -1.
         13    1    1    2    0    0  0.10821943414E+02  0.13352440855E+02  0.32770471820E+02  0.37004285317E+02  0.10570000000E+00 0.  1.
<mgrwt>
<rscale>  0 0.34429253E+02</rscale>
<asrwt>0</asrwt>
<pdfrwt beam="1">  1        2 0.10165113E-01 0.34429253E+02</pdfrwt>
<pdfrwt beam="2">  1       -2 0.69001141E-03 0.34429253E+02</pdfrwt>
<totfact> 0.13733061E+06</totfact>
</mgrwt>
</event>
<event>
 4    1  0.3704929E-001  0.2773815E+02  0.7818608E-02  0.1624526E+00
          2   -1    0    0  501    0  0.00000000000E+00  0.00000000000E+00  0.37554665261E+02  0.37554665351E+02  0.26000000000E-02 0.  1.
         -2   -1    0    0    0  501 -0.00000000000E+00 -0.00000000000E+00 -0.51218997343E+01  0.51219003942E+01  0.26000000000E-02 0. -1.
        -13    1    1    2    0    0 -0.42646290415E+00 -0.12167185934E+02  0.26435628385E+02  0.29104568452E+02  0.10570000000E+00 0.  1.
         13    1    1    2    0    0  0.42646290415E+00  0.12167185934E+02  0.59971371416E+01  0.13571997294E+02  0.10570000000E+00 0. -1.
<mgrwt>
<rscale>  0 0.27738150E+02</rscale>
<asrwt>0</asrwt>
<pdfrwt beam="1">  1        2 0.57776407E-02 0.27738150E+02</pdfrwt>
<pdfrwt beam="2">  1       -2 0.78798465E-03 0.27738150E+02</pdfrwt>
<totfact> 0.20980761E+06</totfact>
</mgrwt>
</event>
<event>
 4    1  0.3704929E-001  0.2344291E+02  0.7818608E-02  0.1684430E+00
         -2   -1    0    0    0  501 -0.00000000000E+00  0.00000000000E+00  0.14563839576E+02  0.14563839808E+02  0.26000000000E-02 0.  1.
          2   -1    0    0  501    0  0.00000000000E+00 -0.00000000000E+00 -0.94338072047E+01  0.94338075630E+01  0.26000000000E-02 0. -1.
        -13    1    1    2    0    0  0.91730150861E-01  0.11666622370E+02  0.14146819220E+01  0.11752914080E+02  0.10570000000E+00 0. -1.
         13    1    1    2    0    0 -0.91730150861E-01 -0.11666622370E+02  0.37153504496E+01  0.12244733292E+02  0.10570000000E+00 0.  1.
<mgrwt>
<rscale>  0 0.23442906E+02</rscale>
<asrwt>0</asrwt>
<pdfrwt beam="2">  1        2 0.14513550E-02 0.23442906E+02</pdfrwt>
<pdfrwt beam="1">  1       -2 0.22405908E-02 0.23442906E+02</pdfrwt>
<totfact> 0.27149669E+06</totfact>
</mgrwt>
</event>
<event>
 4    1  0.3704929E-001  0.5347434E+02  0.7818608E-02  0.1427455E+00
         -2   -1    0    0    0  501 -0.00000000000E+00  0.00000000000E+00  0.46471758822E+02  0.46471758895E+02  0.26000000000E-02 0.  1.
          2   -1    0    0  501    0  0.00000000000E+00 -0.00000000000E+00 -0.15383022867E+02  0.15383023086E+02  0.26000000000E-02 0. -1.
        -13    1    1    2    0    0  0.23026046632E+02  0.10757492435E+02  0.59399424677E+01  0.26100125594E+02  0.10570000000E+00 0. -1.
         13    1    1    2    0    0 -0.23026046632E+02 -0.10757492435E+02  0.25148793488E+02  0.35754656387E+02  0.10570000000E+00 0.  1.
<mgrwt>
<rscale>  0 0.53474335E+02</rscale>
<asrwt>0</asrwt>
<pdfrwt beam="2">  1        2 0.23666190E-02 0.53474335E+02</pdfrwt>
<pdfrwt beam="1">  1       -2 0.71495013E-02 0.53474335E+02</pdfrwt>
<totfact> 0.35148804E+05</totfact>
</mgrwt>
</event>
<event>
 4    1  0.3704929E-001  0.2171013E+02  0.7818608E-02  0.1713314E+00
          2   -1    0    0  501    0  0.00000000000E+00  0.00000000000E+00  0.18764012398E+01  0.18764030411E+01  0.26000000000E-02 0. -1.
         -2   -1    0    0    0  501 -0.00000000000E+00 -0.00000000000E+00 -0.62797026421E+02  0.62797026475E+02  0.26000000000E-02 0.  1.
        -13    1    1    2    0    0  0.10379763701E+02 -0.15224912468E+00 -0.21012465895E+02  0.23437098151E+02  0.10570000000E+00 0. -1.
         13    1    1    2    0    0 -0.10379763701E+02  0.15224912468E+00 -0.39908159287E+02  0.41236331365E+02  0.10570000000E+00 0.  1.
<mgrwt>
<rscale>  0 0.21710134E+02</rscale>
<asrwt>0</asrwt>
<pdfrwt beam="1">  1        2 0.28867730E-03 0.21710134E+02</pdfrwt>
<pdfrwt beam="2">  1       -2 0.96610795E-02 0.21710134E+02</pdfrwt>
<totfact> 0.27305408E+06</totfact>
</mgrwt>
</event>
<event>
 4    1  0.3704929E-001  0.3116093E+02  0.7818608E-02  0.1585600E+00
         -2   -1    0    0    0  501 -0.00000000000E+00  0.00000000000E+00  0.12842383064E+01  0.12842409383E+01  0.26000000000E-02 0.  1.
          2   -1    0    0  501    0  0.00000000000E+00 -0.00000000000E+00 -0.18902306373E+03  0.18902306375E+03  0.26000000000E-02 0. -1.
        -13    1    1    2    0    0  0.18935888078E+01 -0.15464508148E+02 -0.93532236291E+02  0.94821026618E+02  0.10570000000E+00 0. -1.
         13    1    1    2    0    0 -0.18935888078E+01  0.15464508148E+02 -0.94206589132E+02  0.95486278068E+02  0.10570000000E+00 0.  1.
<mgrwt>
<rscale>  0 0.31160931E+02</rscale>
<asrwt>0</asrwt>
<pdfrwt beam="2">  1        2 0.29080449E-01 0.31160931E+02</pdfrwt>
<pdfrwt beam="1">  1       -2 0.19757548E-03 0.31160931E+02</pdfrwt>
<totfact> 0.22796222E+06</totfact>
</mgrwt>
</event>
<event>
 4    1  0.3704929E-001  0.3468955E+02  0.7818608E-02  0.1551375E+00
         -2   -1    0    0    0  501 -0.00000000000E+00  0.00000000000E+00  0.92286373617E+01  0.92286377280E+01  0.26000000000E-02 0. -1.
          2   -1    0    0  501    0  0.00000000000E+00 -0.00000000000E+00 -0.32598650720E+02  0.32598650823E+02  0.26000000000E-02 0.  1.
        -13    1    1    2    0    0 -0.81670251270E+01  0.64876625100E+01  0.50242388782E+01  0.11577746459E+02  0.10570000000E+00 0. -1.
         13    1    1    2    0    0  0.81670251270E+01 -0.64876625100E+01 -0.28394252236E+02  0.30249542093E+02  0.10570000000E+00 0.  1.
<mgrwt>
<rscale>  0 0.34689545E+02</rscale>
<asrwt>0</asrwt>
<pdfrwt beam="2">  1        2 0.50151770E-02 0.34689545E+02</pdfrwt>
<pdfrwt beam="1">  1       -2 0.14197904E-02 0.34689545E+02</pdfrwt>
<totfact> 0.12006564E+06</totfact>
</mgrwt>
</event>
<event>
 4    1  0.3704929E-001  0.3337841E+02  0.7818608E-02  0.1563491E+00
          2   -1    0    0  501    0  0.00000000000E+00  0.00000000000E+00  0.64814970669E+01  0.64814975883E+01  0.26000000000E-02 0. -1.
         -2   -1    0    0    0  501 -0.00000000000E+00 -0.00000000000E+00 -0.42973015018E+02  0.42973015097E+02  0.26000000000E-02 0.  1.
        -13    1    1    2    0    0 -0.72475899934E+01  0.74120816779E+01  0.11320274007E+01  0.10428766660E+02  0.10570000000E+00 0. -1.
         13    1    1    2    0    0  0.72475899934E+01 -0.74120816779E+01 -0.37623545352E+02  0.39025746026E+02  0.10570000000E+00 0.  1.
<mgrwt>
<rscale>  0 0.33378405E+02</rscale>
<asrwt>0</asrwt>
<pdfrwt beam="1">  1        2 0.99715347E-03 0.33378405E+02</pdfrwt>
<pdfrwt beam="2">  1       -2 0.66112330E-02 0.33378405E+02</pdfrwt>
<totfact> 0.10864292E+06</totfact>
</mgrwt>
</event>
<event>
 4    1  0.3704929E-001  0.2817463E+02  0.7818608E-02  0.1619189E+00
         -2   -1    0    0    0  501 -0.00000000000E+00  0.00000000000E+00  0.10232923762E+03  0.10232923765E+03  0.26000000000E-02 0. -1.
          2   -1    0    0  501    0  0.00000000000E+00 -0.00000000000E+00 -0.19393518141E+01  0.19393535569E+01  0.26000000000E-02 0.  1.
        -13    1    1    2    0    0 -0.46864235692E+01 -0.11744101077E+02  0.27215755162E+02  0.30009914653E+02  0.10570000000E+00 0.  1.
         13    1    1    2    0    0  0.46864235692E+01  0.11744101077E+02  0.73174130646E+02  0.74258676559E+02  0.10570000000E+00 0. -1.
<mgrwt>
<rscale>  0 0.28174633E+02</rscale>
<asrwt>0</asrwt>
<pdfrwt beam="2">  1        2 0.29836199E-03 0.28174633E+02</pdfrwt>
<pdfrwt beam="1">  1       -2 0.15742958E-01 0.28174633E+02</pdfrwt>
<totfact> 0.13711045E+06</totfact>
</mgrwt>
</event>
<event>
 4    1  0.3704929E-001  0.9184167E+02  0.7818608E-02  0.1298452E+00
         -2   -1    0    0    0  501 -0.00000000000E+00  0.00000000000E+00  0.93919533222E+01  0.93919536821E+01  0.26000000000E-02 0. -1.
          2   -1    0    0  501    0  0.00000000000E+00 -0.00000000000E+00 -0.22452445599E+03  0.22452445601E+03  0.26000000000E-02 0.  1.
        -13    1    1    2    0    0 -0.29959092744E+02  0.29629327570E+02 -0.15406246323E+03  0.15972068758E+03  0.10570000000E+00 0.  1.
         13    1    1    2    0    0  0.29959092744E+02 -0.29629327570E+02 -0.61070039435E+02  0.74195722110E+02  0.10570000000E+00 0. -1.
<mgrwt>
<rscale>  0 0.91841674E+02</rscale>
<asrwt>0</asrwt>
<pdfrwt beam="2">  1        2 0.34542220E-01 0.91841674E+02</pdfrwt>
<pdfrwt beam="1">  1       -2 0.14449161E-02 0.91841674E+02</pdfrwt>
<totfact> 0.15821958E+05</totfact>
</mgrwt>
</event>
<event>
 4    1  0.3704929E-001  0.3638735E+02  0.7818608E-02  0.1536615E+00
          2   -1    0    0  501    0  0.00000000000E+00  0.00000000000E+00  0.42555126653E+02  0.42555126732E+02  0.26000000000E-02 0. -1.
         -2   -1    0    0    0  501 -0.00000000000E+00 -0.00000000000E+00 -0.77783758258E+01  0.77783762604E+01  0.26000000000E-02 0.  1.
        -13    1    1    2    0    0 -0.35107372585E+01  0.13018949987E+02  0.34283540797E+02  0.36840068905E+02  0.10570000000E+00 0. -1.
         13    1    1    2    0    0  0.35107372585E+01 -0.13018949987E+02  0.49321003019E+00  0.13493434088E+02  0.10570000000E+00 0.  1.
<mgrwt>
<rscale>  0 0.36387348E+02</rscale>
<asrwt>0</asrwt>
<pdfrwt beam="1">  1        2 0.65469426E-02 0.36387348E+02</pdfrwt>
<pdfrwt beam="2">  1       -2 0.11966732E-02 0.36387348E+02</pdfrwt>
<totfact> 0.11102429E+06</totfact>
</mgrwt>
</event>
<event>
 4    1  0.3704929E-001  0.2275380E+02  0.7818608E-02  0.1695532E+00
         -2   -1    0    0    0  501 -0.00000000000E+00  0.00000000000E+00  0.55039299304E+02  0.55039299365E+02  0.26000000000E-02 0.  1.
          2   -1    0    0  501    0  0.00000000000E+00 -0.00000000000E+00 -0.23516624569E+01  0.23516638942E+01  0.26000000000E-02 0. -1.
        -13    1    1    2    0    0  0.94802596829E+01 -0.56020299391E+01  0.19136750909E+02  0.22079050499E+02  0.10570000000E+00 0. -1.
         13    1    1    2    0    0 -0.94802596829E+01  0.56020299391E+01  0.33550885937E+02  0.35311912760E+02  0.10570000000E+00 0.  1.
<mgrwt>
<rscale>  0 0.22753804E+02</rscale>
<asrwt>0</asrwt>
<pdfrwt beam="2">  1        2 0.36179437E-03 0.22753804E+02</pdfrwt>
<pdfrwt beam="1">  1       -2 0.84675839E-02 0.22753804E+02</pdfrwt>
<totfact> 0.25132071E+06</totfact>
</mgrwt>
</event>
<event>
 4    1  0.3704929E-001  0.2793964E+02  0.7818608E-02  0.1622048E+00
          2   -1    0    0  501    0  0.00000000000E+00  0.00000000000E+00  0.68473628323E+02  0.68473628373E+02  0.26000000000E-02 0.  1.
         -2   -1    0    0    0  501 -0.00000000000E+00 -0.00000000000E+00 -0.28500866729E+01  0.28500878589E+01  0.26000000000E-02 0. -1.
        -13    1    1    2    0    0  0.12467381657E+02 -0.62900375315E+01  0.31841481150E+02  0.34769113763E+02  0.10570000000E+00 0.  1.
         13    1    1    2    0    0 -0.12467381657E+02  0.62900375315E+01  0.33782060500E+02  0.36554602469E+02  0.10570000000E+00 0. -1.
<mgrwt>
<rscale>  0 0.27939636E+02</rscale>
<asrwt>0</asrwt>
<pdfrwt beam="1">  1        2 0.10534404E-01 0.27939636E+02</pdfrwt>
<pdfrwt beam="2">  1       -2 0.43847499E-03 0.27939636E+02</pdfrwt>
<totfact> 0.22753600E+06</totfact>
</mgrwt>
</event>
<event>
 4    1  0.3704929E-001  0.5381665E+02  0.7818608E-02  0.1425779E+00
          2   -1    0    0  501    0  0.00000000000E+00  0.00000000000E+00  0.12944589516E+03  0.12944589518E+03  0.26000000000E-02 0. -1.
         -2   -1    0    0    0  501 -0.00000000000E+00 -0.00000000000E+00 -0.55935178310E+01  0.55935184353E+01  0.26000000000E-02 0.  1.
        -13    1    1    2    0    0  0.26721403224E+02  0.34987401840E+00  0.69817765281E+02  0.74757523523E+02  0.10570000000E+00 0. -1.
         13    1    1    2    0    0 -0.26721403224E+02 -0.34987401840E+00  0.54034612047E+02  0.60281890097E+02  0.10570000000E+00 0.  1.
<mgrwt>
<rscale>  0 0.53816650E+02</rscale>
<asrwt>0</asrwt>
<pdfrwt beam="1">  1        2 0.19914752E-01 0.53816650E+02</pdfrwt>
<pdfrwt beam="2">  1       -2 0.86054130E-03 0.53816650E+02</pdfrwt>
<totfact> 0.53348530E+05</totfact>
</mgrwt>
</event>
<event>
 4    1  0.3704929E-001  0.4491307E+02  0.7818608E-02  0.1474885E+00
         -2   -1    0    0    0  501 -0.00000000000E+00  0.00000000000E+00  0.14863417737E+02  0.14863417965E+02  0.26000000000E-02 0. -1.
          2   -1    0    0  501    0  0.00000000000E+00 -0.00000000000E+00 -0.33928662198E+02  0.33928662298E+02  0.26000000000E-02 0.  1.
        -13    1    1    2    0    0 -0.17369486273E+02 -0.97550111169E+01  0.17271642591E+01  0.19996338769E+02  0.10570000000E+00 0. -1.
         13    1    1    2    0    0  0.17369486273E+02  0.97550111169E+01 -0.20792408720E+02  0.28795741494E+02  0.10570000000E+00 0.  1.
<mgrwt>
<rscale>  0 0.44913067E+02</rscale>
<asrwt>0</asrwt>
<pdfrwt beam="2">  1        2 0.52197942E-02 0.44913067E+02</pdfrwt>
<pdfrwt beam="1">  1       -2 0.22866797E-02 0.44913067E+02</pdfrwt>
<totfact> 0.63189296E+05</totfact>
</mgrwt>
</event>
<event>
 4    1  0.3704929E-001  0.2190225E+02  0.7818608E-02  0.1709948E+00
          2   -1    0    0  501    0  0.00000000000E+00  0.00000000000E+00  0.50609482864E+01  0.50609489543E+01  0.26000000000E-02 0. -1.
         -2   -1    0    0    0  501 -0.00000000000E+00 -0.00000000000E+00 -0.23696564307E+02  0.23696564450E+02  0.26000000000E-02 0.  1.
        -13    1    1    2    0    0 -0.84147288781E+01 -0.56703900259E+01 -0.14724240797E+02  0.17882265647E+02  0.10570000000E+00 0.  1.
         13    1    1    2    0    0  0.84147288781E+01  0.56703900259E+01 -0.39113752231E+01  0.10875247756E+02  0.10570000000E+00 0. -1.
<mgrwt>
<rscale>  0 0.21902246E+02</rscale>
<asrwt>0</asrwt>
<pdfrwt beam="1">  1        2 0.77860750E-03 0.21902246E+02</pdfrwt>
<pdfrwt beam="2">  1       -2 0.36456253E-02 0.21902246E+02</pdfrwt>
<totfact> 0.30229607E+06</totfact>
</mgrwt>
</event>
<event>
 4    1  0.3704929E-001  0.3191946E+02  0.7818608E-02  0.1577792E+00
          2   -1    0    0  501    0  0.00000000000E+00  0.00000000000E+00  0.41440772566E+02  0.41440772647E+02  0.26000000000E-02 0.  1.
         -2   -1    0    0    0  501 -0.00000000000E+00 -0.00000000000E+00 -0.61464328802E+01  0.61464334301E+01  0.26000000000E-02 0. -1.
        -13    1    1    2    0    0 -0.92000552445E+01  0.55974019847E+01  0.35206973467E+02  0.36817306782E+02  0.10570000000E+00 0.  1.
         13    1    1    2    0    0  0.92000552445E+01 -0.55974019847E+01  0.87366218162E-01  0.10769899295E+02  0.10570000000E+00 0. -1.
<mgrwt>
<rscale>  0 0.31919458E+02</rscale>
<asrwt>0</asrwt>
<pdfrwt beam="1">  1        2 0.63755037E-02 0.31919458E+02</pdfrwt>
<pdfrwt beam="2">  1       -2 0.94560508E-03 0.31919458E+02</pdfrwt>
<totfact> 0.15215173E+06</totfact>
</mgrwt>
</event>
<event>
 4    1  0.3704929E-001  0.2578920E+02  0.7818608E-02  0.1649918E+00
          2   -1    0    0  501    0  0.00000000000E+00  0.00000000000E+00  0.26818782327E+02  0.26818782453E+02  0.26000000000E-02 0.  1.
         -2   -1    0    0    0  501 -0.00000000000E+00 -0.00000000000E+00 -0.61997860635E+01  0.61997866087E+01  0.26000000000E-02 0. -1.
        -13    1    1    2    0    0  0.55059588865E+01  0.85943789521E+01  0.22165368857E+00  0.10209761784E+02  0.10570000000E+00 0. -1.
         13    1    1    2    0    0 -0.55059588865E+01 -0.85943789521E+01  0.20397342575E+02  0.22808807278E+02  0.10570000000E+00 0.  1.
<mgrwt>
<rscale>  0 0.25789201E+02</rscale>
<asrwt>0</asrwt>
<pdfrwt beam="1">  1        2 0.41259667E-02 0.25789201E+02</pdfrwt>
<pdfrwt beam="2">  1       -2 0.95381327E-03 0.25789201E+02</pdfrwt>
<totfact> 0.23895396E+06</totfact>
</mgrwt>
</event>
<event>
 4    1  0.3704929E-001  0.2481829E+02  0.7818608E-02  0.1663626E+00
         -2   -1    0    0    0  501 -0.00000000000E+00  0.00000000000E+00  0.10909590592E+02  0.10909590902E+02  0.26000000000E-02 0. -1.
          2   -1    0    0  501    0  0.00000000000E+00 -0.00000000000E+00 -0.14114815392E+02  0.14114815632E+02  0.26000000000E-02 0.  1.
        -13    1    1    2    0    0 -0.85257736454E+01  0.89080071289E+01 -0.30049484900E+01  0.12691820010E+02  0.10570000000E+00 0.  1.
         13    1    1    2    0    0  0.85257736454E+01 -0.89080071289E+01 -0.20027631045E+00  0.12332586523E+02  0.10570000000E+00 0. -1.
<mgrwt>
<rscale>  0 0.24818289E+02</rscale>
<asrwt>0</asrwt>
<pdfrwt beam="2">  1        2 0.21715101E-02 0.24818289E+02</pdfrwt>
<pdfrwt beam="1">  1       -2 0.16783986E-02 0.24818289E+02</pdfrwt>
<totfact> 0.24560003E+06</totfact>
</mgrwt>
</event>
<event>
 4    1  0.3704929E-001  0.5225335E+02  0.7818608E-02  0.1433553E+00
          2   -1    0    0  501    0  0.00000000000E+00  0.00000000000E+00  0.21820256074E+02  0.21820256229E+02  0.26000000000E-02 0. -1.
         -2   -1    0    0    0  501 -0.00000000000E+00 -0.00000000000E+00 -0.31282998607E+02  0.31282998715E+02  0.26000000000E-02 0.  1.
        -13    1    1    2    0    0  0.79168723209E+01 -0.10349067756E+02  0.18282307219E+02  0.22450701559E+02  0.10570000000E+00 0. -1.
         13    1    1    2    0    0 -0.79168723209E+01  0.10349067756E+02 -0.27745049752E+02  0.30652553385E+02  0.10570000000E+00 0.  1.
<mgrwt>
<rscale>  0 0.52253346E+02</rscale>
<asrwt>0</asrwt>
<pdfrwt beam="1">  1        2 0.33569625E-02 0.52253346E+02</pdfrwt>
<pdfrwt beam="2">  1       -2 0.48127690E-02 0.52253346E+02</pdfrwt>
<totfact> 0.39690800E+05</totfact>
</mgrwt>
</event>
<event>
 4    1  0.3704929E-001  0.2501651E+02  0.7818608E-02  0.1660765E+00
         -2   -1    0    0    0  501 -0.00000000000E+00  0.00000000000E+00  0.10809373533E+03  0.10809373536E+03  0.26000000000E-02 0.  1.
          2   -1    0    0  501    0  0.00000000000E+00 -0.00000000000E+00 -0.14474133936E+01  0.14474157288E+01  0.26000000000E-02 0. -1.
        -13    1    1    2    0    0 -0.90654128651E+01 -0.84580941588E+01  0.46095947614E+02  0.47734354779E+02  0.10570000000E+00 0. -1.
         13    1    1    2    0    0  0.90654128651E+01  0.84580941588E+01  0.60550374321E+02  0.61806796310E+02  0.10570000000E+00 0.  1.
<mgrwt>
<rscale>  0 0.25016511E+02</rscale>
<asrwt>0</asrwt>
<pdfrwt beam="2">  1        2 0.22267909E-03 0.25016511E+02</pdfrwt>
<pdfrwt beam="1">  1       -2 0.16629811E-01 0.25016511E+02</pdfrwt>
<totfact> 0.17734103E+06</totfact>
</mgrwt>
</event>
<event>
 4    1  0.3704929E-001  0.3074676E+02  0.7818608E-02  0.1589978E+00
          2   -1    0    0  501    0  0.00000000000E+00  0.00000000000E+00  0.42026670324E+02  0.42026670404E+02  0.26000000000E-02 0. -1.
         -2   -1    0    0    0  501 -0.00000000000E+00 -0.00000000000E+00 -0.56235898465E+01  0.56235904475E+01  0.26000000000E-02 0.  1.
        -13    1    1    2    0    0  0.75245239547E+01 -0.13146472546E+02  0.14136130390E+02  0.20719303946E+02  0.10570000000E+00 0.  1.
         13    1    1    2    0    0 -0.75245239547E+01  0.13146472546E+02  0.22266950087E+02  0.26930956905E+02  0.10570000000E+00 0. -1.
<mgrwt>
<rscale>  0 0.30746757E+02</rscale>
<asrwt>0</asrwt>
<pdfrwt beam="1">  1        2 0.64656416E-02 0.30746757E+02</pdfrwt>
<pdfrwt beam="2">  1       -2 0.86516772E-03 0.30746757E+02</pdfrwt>
<totfact> 0.16684570E+06</totfact>
</mgrwt>
</event>
<event>
 4    1  0.3704929E-001  0.2079583E+02  0.7818608E-02  0.1729950E+00
         -2   -1    0    0    0  501 -0.00000000000E+00  0.00000000000E+00  0.12159331378E+01  0.12159359176E+01  0.26000000000E-02 0.  1.
          2   -1    0    0  501    0  0.00000000000E+00 -0.00000000000E+00 -0.88916476212E+02  0.88916476250E+02  0.26000000000E-02 0. -1.
        -13    1    1    2    0    0 -0.75006042074E+01  0.66217456306E+01 -0.56108253513E+02  0.56993454566E+02  0.10570000000E+00 0. -1.
         13    1    1    2    0    0  0.75006042074E+01 -0.66217456306E+01 -0.31592289562E+02  0.33138957601E+02  0.10570000000E+00 0.  1.
<mgrwt>
<rscale>  0 0.20795828E+02</rscale>
<asrwt>0</asrwt>
<pdfrwt beam="2">  1        2 0.13679453E-01 0.20795828E+02</pdfrwt>
<pdfrwt beam="1">  1       -2 0.18706692E-03 0.20795828E+02</pdfrwt>
<totfact> 0.47148835E+06</totfact>
</mgrwt>
</event>
<event>
 4    1  0.3704929E-001  0.2618418E+02  0.7818608E-02  0.1644553E+00
         -2   -1    0    0    0  501 -0.00000000000E+00  0.00000000000E+00  0.11295266061E+02  0.11295266360E+02  0.26000000000E-02 0.  1.
          2   -1    0    0  501    0  0.00000000000E+00 -0.00000000000E+00 -0.15174751289E+02  0.15174751512E+02  0.26000000000E-02 0. -1.
        -13    1    1    2    0    0 -0.37928579213E+00 -0.10127377051E+02 -0.10317797452E+02  0.14462909126E+02  0.10570000000E+00 0. -1.
         13    1    1    2    0    0  0.37928579213E+00  0.10127377051E+02  0.64383122236E+01  0.12007108745E+02  0.10570000000E+00 0.  1.
<mgrwt>
<rscale>  0 0.26184183E+02</rscale>
<asrwt>0</asrwt>
<pdfrwt beam="2">  1        2 0.23345772E-02 0.26184183E+02</pdfrwt>
<pdfrwt beam="1">  1       -2 0.17377333E-02 0.26184183E+02</pdfrwt>
<totfact> 0.21767280E+06</totfact>
</mgrwt>
</event>
<event>
 4    1  0.3704929E-001  0.4937222E+02  0.7818608E-02  0.1448757E+00
         -2   -1    0    0    0  501 -0.00000000000E+00  0.00000000000E+00  0.75823782989E+01  0.75823787447E+01  0.26000000000E-02 0. -1.
          2   -1    0    0  501    0  0.00000000000E+00 -0.00000000000E+00 -0.80371100070E+02  0.80371100112E+02  0.26000000000E-02 0.  1.
        -13    1    1    2    0    0 -0.19284320704E+02 -0.72027777939E+00 -0.63818596536E+02  0.66672545035E+02  0.10570000000E+00 0.  1.
         13    1    1    2    0    0  0.19284320704E+02  0.72027777939E+00 -0.89701252345E+01  0.21280933821E+02  0.10570000000E+00 0. -1.
<mgrwt>
<rscale>  0 0.49372223E+02</rscale>
<asrwt>0</asrwt>
<pdfrwt beam="2">  1        2 0.12364784E-01 0.49372223E+02</pdfrwt>
<pdfrwt beam="1">  1       -2 0.11665198E-02 0.49372223E+02</pdfrwt>
<totfact> 0.58567890E+05</totfact>
</mgrwt>
</event>
<event>
 4    1  0.3704929E-001  0.3649391E+02  0.7818608E-02  0.1535721E+00
         -2   -1    0    0    0  501 -0.00000000000E+00  0.00000000000E+00  0.13205504484E+03  0.13205504486E+03  0.26000000000E-02 0. -1.
          2   -1    0    0  501    0  0.00000000000E+00 -0.00000000000E+00 -0.25213060785E+01  0.25213074191E+01  0.26000000000E-02 0.  1.
        -13    1    1    2    0    0 -0.83321516373E+01  0.14646330860E+02  0.38953303879E+02  0.42441852153E+02  0.10570000000E+00 0.  1.
         13    1    1    2    0    0  0.83321516373E+01 -0.14646330860E+02  0.90580434879E+02  0.92134500128E+02  0.10570000000E+00 0. -1.
<mgrwt>
<rscale>  0 0.36493905E+02</rscale>
<asrwt>0</asrwt>
<pdfrwt beam="2">  1        2 0.38789311E-03 0.36493905E+02</pdfrwt>
<pdfrwt beam="1">  1       -2 0.20316173E-01 0.36493905E+02</pdfrwt>
<totfact> 0.69868805E+05</totfact>
</mgrwt>
</event>
<event>
 4    1  0.3704929E-001  0.3866285E+02  0.7818608E-02  0.1518288E+00
          2   -1    0    0  501    0  0.00000000000E+00  0.00000000000E+00  0.39180592915E+02  0.39180593002E+02  0.26000000000E-02 0.  1.
         -2   -1    0    0    0  501 -0.00000000000E+00 -0.00000000000E+00 -0.95379892239E+01  0.95379895783E+01  0.26000000000E-02 0. -1.
        -13    1    1    2    0    0 -0.18625783348E+02  0.51637316721E+01  0.15237285670E+02  0.24612394788E+02  0.10570000000E+00 0.  1.
         13    1    1    2    0    0  0.18625783348E+02 -0.51637316721E+01  0.14405318021E+02  0.24106187792E+02  0.10570000000E+00 0. -1.
<mgrwt>
<rscale>  0 0.38662855E+02</rscale>
<asrwt>0</asrwt>
<pdfrwt beam="1">  1        2 0.60277836E-02 0.38662855E+02</pdfrwt>
<pdfrwt beam="2">  1       -2 0.14673830E-02 0.38662855E+02</pdfrwt>
<totfact> 0.94311747E+05</totfact>
</mgrwt>
</event>
<event>
 4    1  0.3704929E-001  0.2012174E+02  0.7818608E-02  0.1742918E+00
          2   -1    0    0  501    0  0.00000000000E+00  0.00000000000E+00  0.23392768071E+02  0.23392768216E+02  0.26000000000E-02 0. -1.
         -2   -1    0    0    0  501 -0.00000000000E+00 -0.00000000000E+00 -0.43270231658E+01  0.43270239470E+01  0.26000000000E-02 0.  1.
        -13    1    1    2    0    0 -0.94605655114E+01 -0.33835085446E+01  0.88311593411E+01  0.13377255984E+02  0.10570000000E+00 0.  1.
         13    1    1    2    0    0  0.94605655114E+01  0.33835085446E+01  0.10234585564E+02  0.14342536178E+02  0.10570000000E+00 0. -1.
<mgrwt>
<rscale>  0 0.20121736E+02</rscale>
<asrwt>0</asrwt>
<pdfrwt beam="1">  1        2 0.35988875E-02 0.20121736E+02</pdfrwt>
<pdfrwt beam="2">  1       -2 0.66569594E-03 0.20121736E+02</pdfrwt>
<totfact> 0.41708994E+06</totfact>
</mgrwt>
</event>
<event>
 4    1  0.3704929E-001  0.5062199E+02  0.7818608E-02  0.1442015E+00
          2   -1    0    0  501    0  0.00000000000E+00  0.00000000000E+00  0.58109984816E+02  0.58109984874E+02  0.26000000000E-02 0.  1.
         -2   -1    0    0    0  501 -0.00000000000E+00 -0.00000000000E+00 -0.11024722760E+02  0.11024723067E+02  0.26000000000E-02 0. -1.
        -13    1    1    2    0    0 -0.42945887640E+01 -0.24210017119E+02  0.15340791550E+02  0.28981364347E+02  0.10570000000E+00 0. -1.
         13    1    1    2    0    0  0.42945887640E+01  0.24210017119E+02  0.31744470505E+02  0.40153343593E+02  0.10570000000E+00 0.  1.
<mgrwt>
<rscale>  0 0.50621991E+02</rscale>
<asrwt>0</asrwt>
<pdfrwt beam="1">  1        2 0.89399977E-02 0.50621991E+02</pdfrwt>
<pdfrwt beam="2">  1       -2 0.16961112E-02 0.50621991E+02</pdfrwt>
<totfact> 0.51186419E+05</totfact>
</mgrwt>
</event>
<event>
 4    1  0.3704929E-001  0.4378466E+02  0.7818608E-02  0.1482075E+00
         -2   -1    0    0    0  501 -0.00000000000E+00  0.00000000000E+00  0.90474183774E+01  0.90474187510E+01  0.26000000000E-02 0.  1.
          2   -1    0    0  501    0  0.00000000000E+00 -0.00000000000E+00 -0.52973573712E+02  0.52973573776E+02  0.26000000000E-02 0. -1.
        -13    1    1    2    0    0 -0.15266241296E+02  0.15665039268E+02 -0.23238987579E+02  0.31914155084E+02  0.10570000000E+00 0. -1.
         13    1    1    2    0    0  0.15266241296E+02 -0.15665039268E+02 -0.20687167756E+02  0.30106837443E+02  0.10570000000E+00 0.  1.
<mgrwt>
<rscale>  0 0.43784659E+02</rscale>
<asrwt>0</asrwt>
<pdfrwt beam="2">  1        2 0.81497805E-02 0.43784659E+02</pdfrwt>
<pdfrwt beam="1">  1       -2 0.13919106E-02 0.43784659E+02</pdfrwt>
<totfact> 0.72713010E+05</totfact>
</mgrwt>
</event>
<event>
 4    1  0.3704929E-001  0.2994253E+02  0.7818608E-02  0.1598725E+00
         -2   -1    0    0    0  501 -0.00000000000E+00  0.00000000000E+00  0.23165810905E+01  0.23165825495E+01  0.26000000000E-02 0.  1.
          2   -1    0    0  501    0  0.00000000000E+00 -0.00000000000E+00 -0.96754098280E+02  0.96754098315E+02  0.26000000000E-02 0. -1.
        -13    1    1    2    0    0 -0.11959818870E+02  0.35558092094E+01 -0.74592394415E+02  0.75628814109E+02  0.10570000000E+00 0. -1.
         13    1    1    2    0    0  0.11959818870E+02 -0.35558092094E+01 -0.19845122774E+02  0.23441866755E+02  0.10570000000E+00 0.  1.
<mgrwt>
<rscale>  0 0.29942531E+02</rscale>
<asrwt>0</asrwt>
<pdfrwt beam="2">  1        2 0.14885243E-01 0.29942531E+02</pdfrwt>
<pdfrwt beam="1">  1       -2 0.35639728E-03 0.29942531E+02</pdfrwt>
<totfact> 0.20825273E+06</totfact>
</mgrwt>
</event>
<event>
 4    1  0.3704929E-001  0.3693513E+02  0.7818608E-02  0.1532058E+00
          2   -1    0    0  501    0  0.00000000000E+00  0.00000000000E+00  0.69780176814E+02  0.69780176862E+02  0.26000000000E-02 0.  1.
         -2   -1    0    0    0  501 -0.00000000000E+00 -0.00000000000E+00 -0.48875046731E+01  0.48875053646E+01  0.26000000000E-02 0. -1.
        -13    1    1    2    0    0  0.17151712670E+02  0.41909161557E+01  0.21504553623E+02  0.27824486065E+02  0.10570000000E+00 0. -1.
         13    1    1    2    0    0 -0.17151712670E+02 -0.41909161557E+01  0.43388118517E+02  0.46843196162E+02  0.10570000000E+00 0.  1.
<mgrwt>
<rscale>  0 0.36935131E+02</rscale>
<asrwt>0</asrwt>
<pdfrwt beam="1">  1        2 0.10735412E-01 0.36935131E+02</pdfrwt>
<pdfrwt beam="2">  1       -2 0.75192382E-03 0.36935131E+02</pdfrwt>
<totfact> 0.11702928E+06</totfact>
</mgrwt>
</event>
<event>
 4    1  0.3704929E-001  0.2496464E+02  0.7818608E-02  0.1661510E+00
         -2   -1    0    0    0  501 -0.00000000000E+00  0.00000000000E+00  0.30001110562E+01  0.30001121828E+01  0.26000000000E-02 0. -1.
          2   -1    0    0  501    0  0.00000000000E+00 -0.00000000000E+00 -0.51934160160E+02  0.51934160225E+02  0.26000000000E-02 0.  1.
        -13    1    1    2    0    0 -0.52794688457E+01 -0.88335073660E+01 -0.89238421088E+01  0.13621665616E+02  0.10570000000E+00 0. -1.
         13    1    1    2    0    0  0.52794688457E+01  0.88335073660E+01 -0.40010206995E+02  0.41312606792E+02  0.10570000000E+00 0.  1.
<mgrwt>
<rscale>  0 0.24964637E+02</rscale>
<asrwt>0</asrwt>
<pdfrwt beam="2">  1        2 0.79898702E-02 0.24964637E+02</pdfrwt>
<pdfrwt beam="1">  1       -2 0.46155568E-03 0.24964637E+02</pdfrwt>
<totfact> 0.28164330E+06</totfact>
</mgrwt>
</event>
<event>
 4    1  0.3704929E-001  0.2372367E+02  0.7818608E-02  0.1680041E+00
          2   -1    0    0  501    0  0.00000000000E+00  0.00000000000E+00  0.33683397032E+02  0.33683397133E+02  0.26000000000E-02 0.  1.
         -2   -1    0    0    0  501 -0.00000000000E+00 -0.00000000000E+00 -0.41772232886E+01  0.41772240978E+01  0.26000000000E-02 0. -1.
        -13    1    1    2    0    0  0.87659912309E+01  0.51129068394E+01  0.49532290137E+01  0.11292921179E+02  0.10570000000E+00 0. -1.
         13    1    1    2    0    0 -0.87659912309E+01 -0.51129068394E+01  0.24552944730E+02  0.26567700051E+02  0.10570000000E+00 0.  1.
<mgrwt>
<rscale>  0 0.23723666E+02</rscale>
<asrwt>0</asrwt>
<pdfrwt beam="1">  1        2 0.51820612E-02 0.23723666E+02</pdfrwt>
<pdfrwt beam="2">  1       -2 0.64264980E-03 0.23723666E+02</pdfrwt>
<totfact> 0.29806722E+06</totfact>
</mgrwt>
</event>
<event>
 4    1  0.3704929E-001  0.2397231E+02  0.7818608E-02  0.1676217E+00
          2   -1    0    0  501    0  0.00000000000E+00  0.00000000000E+00  0.21107689300E+01  0.21107705313E+01  0.26000000000E-02 0. -1.
         -2   -1    0    0    0  501 -0.00000000000E+00 -0.00000000000E+00 -0.68064240333E+02  0.68064240383E+02  0.26000000000E-02 0.  1.
        -13    1    1    2    0    0  0.44721927457E-01  0.11712413130E+02 -0.25528320750E+02  0.28087167073E+02  0.10570000000E+00 0. -1.
         13    1    1    2    0    0 -0.44721927457E-01 -0.11712413130E+02 -0.40425150653E+02  0.42087843841E+02  0.10570000000E+00 0.  1.
<mgrwt>
<rscale>  0 0.23972313E+02</rscale>
<asrwt>0</asrwt>
<pdfrwt beam="1">  1        2 0.32473386E-03 0.23972313E+02</pdfrwt>
<pdfrwt beam="2">  1       -2 0.10471420E-01 0.23972313E+02</pdfrwt>
<totfact> 0.21581666E+06</totfact>
</mgrwt>
</event>
<event>
 4    1  0.3704929E-001  0.4651486E+02  0.7818608E-02  0.1465100E+00
          2   -1    0    0  501    0  0.00000000000E+00  0.00000000000E+00  0.84277996004E+02  0.84277996044E+02  0.26000000000E-02 0. -1.
         -2   -1    0    0    0  501 -0.00000000000E+00 -0.00000000000E+00 -0.64181397871E+01  0.64181403137E+01  0.26000000000E-02 0.  1.
        -13    1    1    2    0    0  0.12229298426E+02 -0.69171097160E+01  0.75067343938E+02  0.76370933248E+02  0.10570000000E+00 0. -1.
         13    1    1    2    0    0 -0.12229298426E+02  0.69171097160E+01  0.27925122788E+01  0.14325203109E+02  0.10570000000E+00 0.  1.
<mgrwt>
<rscale>  0 0.46514857E+02</rscale>
<asrwt>0</asrwt>
<pdfrwt beam="1">  1        2 0.12965845E-01 0.46514857E+02</pdfrwt>
<pdfrwt beam="2">  1       -2 0.98740621E-03 0.46514857E+02</pdfrwt>
<totfact> 0.68858861E+05</totfact>
</mgrwt>
</event>
<event>
 4    1  0.3704929E-001  0.5574042E+02  0.7818608E-02  0.1416629E+00
          2   -1    0    0  501    0  0.00000000000E+00  0.00000000000E+00  0.66555521559E+02  0.66555521610E+02  0.26000000000E-02 0.  1.
         -2   -1    0    0    0  501 -0.00000000000E+00 -0.00000000000E+00 -0.11670685814E+02  0.11670686103E+02  0.26000000000E-02 0. -1.
        -13    1    1    2    0    0  0.17783489491E+02 -0.19345584025E+02  0.14410163385E+02  0.29969452798E+02  0.10570000000E+00 0. -1.
         13    1    1    2    0    0 -0.17783489491E+02  0.19345584025E+02  0.40474672360E+02  0.48256754915E+02  0.10570000000E+00 0.  1.
<mgrwt>
<rscale>  0 0.55740420E+02</rscale>
<asrwt>0</asrwt>
<pdfrwt beam="1">  1        2 0.10239311E-01 0.55740420E+02</pdfrwt>
<pdfrwt beam="2">  1       -2 0.17954901E-02 0.55740420E+02</pdfrwt>
<totfact> 0.41086948E+05</totfact>
</mgrwt>
</event>
<event>
 4    1  0.3704929E-001  0.4383225E+02  0.7818608E-02  0.1481766E+00
         -2   -1    0    0    0  501 -0.00000000000E+00  0.00000000000E+00  0.10075563819E+02  0.10075564154E+02  0.26000000000E-02 0.  1.
          2   -1    0    0  501    0  0.00000000000E+00 -0.00000000000E+00 -0.47671418516E+02  0.47671418587E+02  0.26000000000E-02 0. -1.
        -13    1    1    2    0    0  0.71412324019E+01 -0.18831594667E+02 -0.30182982014E+02  0.36285668433E+02  0.10570000000E+00 0. -1.
         13    1    1    2    0    0 -0.71412324019E+01  0.18831594667E+02 -0.74128726834E+01  0.21461314308E+02  0.10570000000E+00 0.  1.
<mgrwt>
<rscale>  0 0.43832245E+02</rscale>
<asrwt>0</asrwt>
<pdfrwt beam="2">  1        2 0.73340643E-02 0.43832245E+02</pdfrwt>
<pdfrwt beam="1">  1       -2 0.15500868E-02 0.43832245E+02</pdfrwt>
<totfact> 0.71136594E+05</totfact>
</mgrwt>
</event>
<event>
 4    1  0.3704929E-001  0.2883772E+02  0.7818608E-02  0.1611303E+00
          2   -1    0    0  501    0  0.00000000000E+00  0.00000000000E+00  0.75423169292E+01  0.75423173774E+01  0.26000000000E-02 0.  1.
         -2   -1    0    0    0  501 -0.00000000000E+00 -0.00000000000E+00 -0.27564935400E+02  0.27564935523E+02  0.26000000000E-02 0. -1.
        -13    1    1    2    0    0  0.40993111339E+01  0.11935524528E+02 -0.15215858361E+01  0.12711706946E+02  0.10570000000E+00 0.  1.
         13    1    1    2    0    0 -0.40993111339E+01 -0.11935524528E+02 -0.18501032635E+02  0.22395545954E+02  0.10570000000E+00 0. -1.
<mgrwt>
<rscale>  0 0.28837718E+02</rscale>
<asrwt>0</asrwt>
<pdfrwt beam="1">  1        2 0.11603565E-02 0.28837718E+02</pdfrwt>
<pdfrwt beam="2">  1       -2 0.42407593E-02 0.28837718E+02</pdfrwt>
<totfact> 0.16074159E+06</totfact>
</mgrwt>
</event>
<event>
 4    1  0.3704929E-001  0.4438647E+02  0.7818608E-02  0.1478209E+00
          2   -1    0    0  501    0  0.00000000000E+00  0.00000000000E+00  0.12399314165E+02  0.12399314438E+02  0.26000000000E-02 0. -1.
         -2   -1    0    0    0  501 -0.00000000000E+00 -0.00000000000E+00 -0.39723136122E+02  0.39723136207E+02  0.26000000000E-02 0.  1.
        -13    1    1    2    0    0 -0.81787961222E+01  0.15797988120E+02  0.19193920401E+01  0.17893137593E+02  0.10570000000E+00 0. -1.
         13    1    1    2    0    0  0.81787961222E+01 -0.15797988120E+02 -0.29243213997E+02  0.34229313051E+02  0.10570000000E+00 0.  1.
<mgrwt>
<rscale>  0 0.44386469E+02</rscale>
<asrwt>0</asrwt>
<pdfrwt beam="1">  1        2 0.19075868E-02 0.44386469E+02</pdfrwt>
<pdfrwt beam="2">  1       -2 0.61112517E-02 0.44386469E+02</pdfrwt>
<totfact> 0.56233078E+05</totfact>
</mgrwt>
</event>
<event>
 4    1  0.3704929E-001  0.2230300E+02  0.7818608E-02  0.1703064E+00
          2   -1    0    0  501    0  0.00000000000E+00  0.00000000000E+00  0.43892273308E+01  0.43892281008E+01  0.26000000000E-02 0.  1.
         -2   -1    0    0    0  501 -0.00000000000E+00 -0.00000000000E+00 -0.28332085735E+02  0.28332085854E+02  0.26000000000E-02 0. -1.
        -13    1    1    2    0    0 -0.10731840383E+02 -0.29460227360E+01 -0.10940926840E+02  0.15606617205E+02  0.10570000000E+00 0.  1.
         13    1    1    2    0    0  0.10731840383E+02  0.29460227360E+01 -0.13001931564E+02  0.17114696750E+02  0.10570000000E+00 0. -1.
<mgrwt>
<rscale>  0 0.22303002E+02</rscale>
<asrwt>0</asrwt>
<pdfrwt beam="1">  1        2 0.67526583E-03 0.22303002E+02</pdfrwt>
<pdfrwt beam="2">  1       -2 0.43587824E-02 0.22303002E+02</pdfrwt>
<totfact> 0.28545377E+06</totfact>
</mgrwt>
</event>
<event>
 4    1  0.3704929E-001  0.2446480E+02  0.7818608E-02  0.1668810E+00
          2   -1    0    0  501    0  0.00000000000E+00  0.00000000000E+00  0.43496370288E+01  0.43496378059E+01  0.26000000000E-02 0. -1.
         -2   -1    0    0    0  501 -0.00000000000E+00 -0.00000000000E+00 -0.34400931086E+02  0.34400931184E+02  0.26000000000E-02 0.  1.
        -13    1    1    2    0    0 -0.11220991861E+02  0.13014601253E+01 -0.22457638195E+02  0.25138837335E+02  0.10570000000E+00 0. -1.
         13    1    1    2    0    0  0.11220991861E+02 -0.13014601253E+01 -0.75936558620E+01  0.13611731654E+02  0.10570000000E+00 0.  1.
<mgrwt>
<rscale>  0 0.24464798E+02</rscale>
<asrwt>0</asrwt>
<pdfrwt beam="1">  1        2 0.66917502E-03 0.24464798E+02</pdfrwt>
<pdfrwt beam="2">  1       -2 0.52924508E-02 0.24464798E+02</pdfrwt>
<totfact> 0.22747338E+06</totfact>
</mgrwt>
</event>
<event>
 4    1  0.3704929E-001  0.4788076E+02  0.7818608E-02  0.1457119E+00
          2   -1    0    0  501    0  0.00000000000E+00  0.00000000000E+00  0.25045473388E+02  0.25045473523E+02  0.26000000000E-02 0.  1.
         -2   -1    0    0    0  501 -0.00000000000E+00 -0.00000000000E+00 -0.22884046109E+02  0.22884046257E+02  0.26000000000E-02 0. -1.
        -13    1    1    2    0    0 -0.45428080441E+01  0.18642647813E+02 -0.13249771863E+02  0.23318513017E+02  0.10570000000E+00 0. -1.
         13    1    1    2    0    0  0.45428080441E+01 -0.18642647813E+02  0.15411199142E+02  0.24611006763E+02  0.10570000000E+00 0.  1.
<mgrwt>
<rscale>  0 0.47880759E+02</rscale>
<asrwt>0</asrwt>
<pdfrwt beam="1">  1        2 0.38531498E-02 0.47880759E+02</pdfrwt>
<pdfrwt beam="2">  1       -2 0.35206225E-02 0.47880759E+02</pdfrwt>
<totfact> 0.51109520E+05</totfact>
</mgrwt>
</event>
<event>
 4    1  0.3704929E-001  0.2226353E+02  0.7818608E-02  0.1703734E+00
          2   -1    0    0  501    0  0.00000000000E+00  0.00000000000E+00  0.37497246476E+01  0.37497255490E+01  0.26000000000E-02 0.  1.
         -2   -1    0    0    0  501 -0.00000000000E+00 -0.00000000000E+00 -0.33046737959E+02  0.33046738061E+02  0.26000000000E-02 0. -1.
        -13    1    1    2    0    0  0.51455137345E+01 -0.95935708157E+01 -0.10810629359E+02  0.15342548426E+02  0.10570000000E+00 0.  1.
         13    1    1    2    0    0 -0.51455137345E+01  0.95935708157E+01 -0.18486383952E+02  0.21453915184E+02  0.10570000000E+00 0. -1.
<mgrwt>
<rscale>  0 0.22263529E+02</rscale>
<asrwt>0</asrwt>
<pdfrwt beam="1">  1        2 0.57688081E-03 0.22263529E+02</pdfrwt>
<pdfrwt beam="2">  1       -2 0.50841134E-02 0.22263529E+02</pdfrwt>
<totfact> 0.28195083E+06</totfact>
</mgrwt>
</event>
<event>
 4    1  0.3704929E-001  0.2140686E+02  0.7818608E-02  0.1718717E+00
         -2   -1    0    0    0  501 -0.00000000000E+00  0.00000000000E+00  0.11663484440E+02  0.11663484730E+02  0.26000000000E-02 0.  1.
          2   -1    0    0  501    0  0.00000000000E+00 -0.00000000000E+00 -0.98223980209E+01  0.98223983650E+01  0.26000000000E-02 0. -1.
        -13    1    1    2    0    0  0.73586710142E+01  0.70571110538E+01 -0.23471419669E+01  0.10462939521E+02  0.10570000000E+00 0. -1.
         13    1    1    2    0    0 -0.73586710142E+01 -0.70571110538E+01  0.41882283857E+01  0.11022943573E+02  0.10570000000E+00 0.  1.
<mgrwt>
<rscale>  0 0.21406858E+02</rscale>
<asrwt>0</asrwt>
<pdfrwt beam="2">  1        2 0.15111382E-02 0.21406858E+02</pdfrwt>
<pdfrwt beam="1">  1       -2 0.17943823E-02 0.21406858E+02</pdfrwt>
<totfact> 0.33696371E+06</totfact>
</mgrwt>
</event>
<event>
 4    1  0.3704929E-001  0.4325874E+02  0.7818608E-02  0.1485514E+00
         -2   -1    0    0    0  501 -0.00000000000E+00  0.00000000000E+00  0.24263118127E+02  0.24263118266E+02  0.26000000000E-02 0. -1.
          2   -1    0    0  501    0  0.00000000000E+00 -0.00000000000E+00 -0.19281511405E+02  0.19281511580E+02  0.26000000000E-02 0.  1.
        -13    1    1    2    0    0 -0.15099380515E+02 -0.17659576948E+01 -0.12996211338E+02  0.20000564496E+02  0.10570000000E+00 0.  1.
         13    1    1    2    0    0  0.15099380515E+02  0.17659576948E+01  0.17977818060E+02  0.23544065350E+02  0.10570000000E+00 0. -1.
<mgrwt>
<rscale>  0 0.43258738E+02</rscale>
<asrwt>0</asrwt>
<pdfrwt beam="2">  1        2 0.29663864E-02 0.43258738E+02</pdfrwt>
<pdfrwt beam="1">  1       -2 0.37327874E-02 0.43258738E+02</pdfrwt>
<totfact> 0.64121858E+05</totfact>
</mgrwt>
</event>
<event>
 4    1  0.3704929E-001  0.2416999E+02  0.7818608E-02  0.1673218E+00
          2   -1    0    0  501    0  0.00000000000E+00  0.00000000000E+00  0.31873403654E+02  0.31873403760E+02  0.26000000000E-02 0.  1.
         -2   -1    0    0    0  501 -0.00000000000E+00 -0.00000000000E+00 -0.45820977820E+01  0.45820985197E+01  0.26000000000E-02 0. -1.
        -13    1    1    2    0    0  0.10477623090E+02 -0.35861863656E+01  0.20940971596E+02  0.23689170144E+02  0.10570000000E+00 0.  1.
         13    1    1    2    0    0 -0.10477623090E+02  0.35861863656E+01  0.63503342762E+01  0.12766332135E+02  0.10570000000E+00 0. -1.
<mgrwt>
<rscale>  0 0.24169987E+02</rscale>
<asrwt>0</asrwt>
<pdfrwt beam="1">  1        2 0.49036004E-02 0.24169987E+02</pdfrwt>
<pdfrwt beam="2">  1       -2 0.70493822E-03 0.24169987E+02</pdfrwt>
<totfact> 0.28359902E+06</totfact>
</mgrwt>
</event>
<event>
 4    1  0.3704929E-001  0.4387279E+02  0.7818608E-02  0.1481504E+00
          2   -1    0    0  501    0  0.00000000000E+00  0.00000000000E+00  0.20327381893E+02  0.20327382059E+02  0.26000000000E-02 0.  1.
         -2   -1    0    0    0  501 -0.00000000000E+00 -0.00000000000E+00 -0.23672770229E+02  0.23672770372E+02  0.26000000000E-02 0. -1.
        -13    1    1    2    0    0 -0.10083205002E+02  0.18868391650E+02  0.31897874290E+01  0.21630375469E+02  0.10570000000E+00 0.  1.
         13    1    1    2    0    0  0.10083205002E+02 -0.18868391650E+02 -0.65351757654E+01  0.22369776962E+02  0.10570000000E+00 0. -1.
<mgrwt>
<rscale>  0 0.43872791E+02</rscale>
<asrwt>0</asrwt>
<pdfrwt beam="1">  1        2 0.31272895E-02 0.43872791E+02</pdfrwt>
<pdfrwt beam="2">  1       -2 0.36419647E-02 0.43872791E+02</pdfrwt>
<totfact> 0.62271146E+05</totfact>
</mgrwt>
</event>
<event>
 4    1  0.3704929E-001  0.2526637E+02  0.7818608E-02  0.1657205E+00
          2   -1    0    0  501    0  0.00000000000E+00  0.00000000000E+00  0.67931441556E+01  0.67931446532E+01  0.26000000000E-02 0. -1.
         -2   -1    0    0    0  501 -0.00000000000E+00 -0.00000000000E+00 -0.23493879246E+02  0.23493879390E+02  0.26000000000E-02 0.  1.
        -13    1    1    2    0    0  0.78922569456E+01 -0.88985862651E+01 -0.32486541083E+01  0.12330348057E+02  0.10570000000E+00 0. -1.
         13    1    1    2    0    0 -0.78922569456E+01  0.88985862651E+01 -0.13452080982E+02  0.17956675985E+02  0.10570000000E+00 0.  1.
<mgrwt>
<rscale>  0 0.25266366E+02</rscale>
<asrwt>0</asrwt>
<pdfrwt beam="1">  1        2 0.10450992E-02 0.25266366E+02</pdfrwt>
<pdfrwt beam="2">  1       -2 0.36144429E-02 0.25266366E+02</pdfrwt>
<totfact> 0.22026401E+06</totfact>
</mgrwt>
</event>
<event>
 4    1  0.3704929E-001  0.4177693E+02  0.7818608E-02  0.1495528E+00
         -2   -1    0    0    0  501 -0.00000000000E+00  0.00000000000E+00  0.59375442463E+02  0.59375442520E+02  0.26000000000E-02 0. -1.
          2   -1    0    0  501    0  0.00000000000E+00 -0.00000000000E+00 -0.73486254151E+01  0.73486258751E+01  0.26000000000E-02 0.  1.
        -13    1    1    2    0    0  0.48894613740E+01  0.19151757796E+02  0.36800988007E+02  0.41773443118E+02  0.10570000000E+00 0.  1.
         13    1    1    2    0    0 -0.48894613740E+01 -0.19151757796E+02  0.15225829042E+02  0.24950625277E+02  0.10570000000E+00 0. -1.
<mgrwt>
<rscale>  0 0.41776927E+02</rscale>
<asrwt>0</asrwt>
<pdfrwt beam="2">  1        2 0.11305578E-02 0.41776927E+02</pdfrwt>
<pdfrwt beam="1">  1       -2 0.91346838E-02 0.41776927E+02</pdfrwt>
<totfact> 0.60827306E+05</totfact>
</mgrwt>
</event>
<event>
 4    1  0.3704929E-001  0.2056325E+02  0.7818608E-02  0.1734354E+00
          2   -1    0    0  501    0  0.00000000000E+00  0.00000000000E+00  0.15321682362E+01  0.15321704422E+01  0.26000000000E-02 0. -1.
         -2   -1    0    0    0  501 -0.00000000000E+00 -0.00000000000E+00 -0.68994865016E+02  0.68994865065E+02  0.26000000000E-02 0.  1.
        -13    1    1    2    0    0 -0.99770106289E+01 -0.21163463364E+01 -0.38178129443E+02  0.39517090014E+02  0.10570000000E+00 0.  1.
         13    1    1    2    0    0  0.99770106289E+01  0.21163463364E+01 -0.29284567337E+02  0.31009945494E+02  0.10570000000E+00 0. -1.
<mgrwt>
<rscale>  0 0.20563251E+02</rscale>
<asrwt>0</asrwt>
<pdfrwt beam="1">  1        2 0.23571842E-03 0.20563251E+02</pdfrwt>
<pdfrwt beam="2">  1       -2 0.10614592E-01 0.20563251E+02</pdfrwt>
<totfact> 0.30270309E+06</totfact>
</mgrwt>
</event>
<event>
 4    1  0.3704929E-001  0.2452640E+02  0.7818608E-02  0.1667899E+00
          2   -1    0    0  501    0  0.00000000000E+00  0.00000000000E+00  0.79815368960E+02  0.79815369002E+02  0.26000000000E-02 0. -1.
         -2   -1    0    0    0  501 -0.00000000000E+00 -0.00000000000E+00 -0.18841727856E+01  0.18841745795E+01  0.26000000000E-02 0.  1.
        -13    1    1    2    0    0 -0.56141550255E+01 -0.10225920540E+02  0.26374857657E+02  0.28839772476E+02  0.10570000000E+00 0.  1.
         13    1    1    2    0    0  0.56141550255E+01  0.10225920540E+02  0.51556338517E+02  0.52859771106E+02  0.10570000000E+00 0. -1.
<mgrwt>
<rscale>  0 0.24526396E+02</rscale>
<asrwt>0</asrwt>
<pdfrwt beam="1">  1        2 0.12279285E-01 0.24526396E+02</pdfrwt>
<pdfrwt beam="2">  1       -2 0.28987295E-03 0.24526396E+02</pdfrwt>
<totfact> 0.31745232E+06</totfact>
</mgrwt>
</event>
<event>
 4    1  0.3704929E-001  0.3028550E+02  0.7818608E-02  0.1594954E+00
          2   -1    0    0  501    0  0.00000000000E+00  0.00000000000E+00  0.57134725797E+02  0.57134725856E+02  0.26000000000E-02 0.  1.
         -2   -1    0    0    0  501 -0.00000000000E+00 -0.00000000000E+00 -0.40133704872E+01  0.40133713294E+01  0.26000000000E-02 0. -1.
        -13    1    1    2    0    0  0.67471431981E+01  0.13230660986E+02  0.20599386069E+02  0.25395279293E+02  0.10570000000E+00 0. -1.
         13    1    1    2    0    0 -0.67471431981E+01 -0.13230660986E+02  0.32521969241E+02  0.35752817893E+02  0.10570000000E+00 0.  1.
<mgrwt>
<rscale>  0 0.30285498E+02</rscale>
<asrwt>0</asrwt>
<pdfrwt beam="1">  1        2 0.87899567E-02 0.30285498E+02</pdfrwt>
<pdfrwt beam="2">  1       -2 0.61744177E-03 0.30285498E+02</pdfrwt>
<totfact> 0.18185311E+06</totfact>
</mgrwt>
</event>
<event>
 4    1  0.3704929E-001  0.2161060E+02  0.7818608E-02  0.1715075E+00
          2   -1    0    0  501    0  0.00000000000E+00  0.00000000000E+00  0.41776365987E+02  0.41776366067E+02  0.26000000000E-02 0. -1.
         -2   -1    0    0    0  501 -0.00000000000E+00 -0.00000000000E+00 -0.27947494517E+01  0.27947506611E+01  0.26000000000E-02 0.  1.
        -13    1    1    2    0    0  0.26712396656E+01  0.10375666410E+02  0.22373362935E+02  0.24806622429E+02  0.10570000000E+00 0. -1.
         13    1    1    2    0    0 -0.26712396656E+01 -0.10375666410E+02  0.16608253600E+02  0.19764494300E+02  0.10570000000E+00 0.  1.
<mgrwt>
<rscale>  0 0.21610600E+02</rscale>
<asrwt>0</asrwt>
<pdfrwt beam="1">  1        2 0.64271331E-02 0.21610600E+02</pdfrwt>
<pdfrwt beam="2">  1       -2 0.42996157E-03 0.21610600E+02</pdfrwt>
<totfact> 0.37934816E+06</totfact>
</mgrwt>
</event>
<event>
 4    1  0.3704929E-001  0.2327915E+02  0.7818608E-02  0.1687025E+00
         -2   -1    0    0    0  501 -0.00000000000E+00  0.00000000000E+00  0.15104455792E+02  0.15104456015E+02  0.26000000000E-02 0. -1.
          2   -1    0    0  501    0  0.00000000000E+00 -0.00000000000E+00 -0.89695160513E+01  0.89695164282E+01  0.26000000000E-02 0.  1.
        -13    1    1    2    0    0  0.49530494860E+01 -0.98579377830E+01  0.69031317311E+01  0.13014454915E+02  0.10570000000E+00 0.  1.
         13    1    1    2    0    0 -0.49530494860E+01  0.98579377830E+01 -0.76819199072E+00  0.11059517529E+02  0.10570000000E+00 0. -1.
<mgrwt>
<rscale>  0 0.23279147E+02</rscale>
<asrwt>0</asrwt>
<pdfrwt beam="2">  1        2 0.13799256E-02 0.23279147E+02</pdfrwt>
<pdfrwt beam="1">  1       -2 0.23237625E-02 0.23279147E+02</pdfrwt>
<totfact> 0.27486910E+06</totfact>
</mgrwt>
</event>
<event>
 4    1  0.3704929E-001  0.3693794E+02  0.7818608E-02  0.1532035E+00
          2   -1    0    0  501    0  0.00000000000E+00  0.00000000000E+00  0.34925380697E+01  0.34925390375E+01  0.26000000000E-02 0. -1.
         -2   -1    0    0    0  501 -0.00000000000E+00 -0.00000000000E+00 -0.97666168486E+02  0.97666168521E+02  0.26000000000E-02 0.  1.
        -13    1    1    2    0    0  0.10235193752E+02 -0.11425422832E+02 -0.75254908010E+02  0.76802420731E+02  0.10570000000E+00 0.  1.
         13    1    1    2    0    0 -0.10235193752E+02  0.11425422832E+02 -0.18918722406E+02  0.24356286827E+02  0.10570000000E+00 0. -1.
<mgrwt>
<rscale>  0 0.36937941E+02</rscale>
<asrwt>0</asrwt>
<pdfrwt beam="1">  1        2 0.53731370E-03 0.36937941E+02</pdfrwt>
<pdfrwt beam="2">  1       -2 0.15025562E-01 0.36937941E+02</pdfrwt>
<totfact> 0.73620616E+05</totfact>
</mgrwt>
</event>
<event>
 4    1  0.3704929E-001  0.2550735E+02  0.7818608E-02  0.1653820E+00
         -2   -1    0    0    0  501 -0.00000000000E+00  0.00000000000E+00  0.29180407295E+02  0.29180407411E+02  0.26000000000E-02 0.  1.
          2   -1    0    0  501    0  0.00000000000E+00 -0.00000000000E+00 -0.55741573244E+01  0.55741579308E+01  0.26000000000E-02 0. -1.
        -13    1    1    2    0    0  0.14514038481E+01 -0.11851077237E+02  0.56959406141E+01  0.13229116251E+02  0.10570000000E+00 0. -1.
         13    1    1    2    0    0 -0.14514038481E+01  0.11851077237E+02  0.17910309356E+02  0.21525449091E+02  0.10570000000E+00 0.  1.
<mgrwt>
<rscale>  0 0.25507347E+02</rscale>
<asrwt>0</asrwt>
<pdfrwt beam="2">  1        2 0.85756273E-03 0.25507347E+02</pdfrwt>
<pdfrwt beam="1">  1       -2 0.44892934E-02 0.25507347E+02</pdfrwt>
<totfact> 0.21090208E+06</totfact>
</mgrwt>
</event>
<event>
 4    1  0.3704929E-001  0.2368658E+02  0.7818608E-02  0.1680617E+00
         -2   -1    0    0    0  501 -0.00000000000E+00  0.00000000000E+00  0.23252977310E+01  0.23252991846E+01  0.26000000000E-02 0.  1.
          2   -1    0    0  501    0  0.00000000000E+00 -0.00000000000E+00 -0.60320662890E+02  0.60320662947E+02  0.26000000000E-02 0. -1.
        -13    1    1    2    0    0  0.91089882743E+01  0.73679829533E+01 -0.24423244702E+02  0.27088131985E+02  0.10570000000E+00 0. -1.
         13    1    1    2    0    0 -0.91089882743E+01 -0.73679829533E+01 -0.33572120457E+02  0.35557830146E+02  0.10570000000E+00 0.  1.
<mgrwt>
<rscale>  0 0.23686583E+02</rscale>
<asrwt>0</asrwt>
<pdfrwt beam="2">  1        2 0.92801009E-02 0.23686583E+02</pdfrwt>
<pdfrwt beam="1">  1       -2 0.35773827E-03 0.23686583E+02</pdfrwt>
<totfact> 0.32593488E+06</totfact>
</mgrwt>
</event>
<event>
 4    1  0.3704929E-001  0.4464032E+02  0.7818608E-02  0.1476600E+00
          2   -1    0    0  501    0  0.00000000000E+00  0.00000000000E+00  0.15157073066E+03  0.15157073068E+03  0.26000000000E-02 0.  1.
         -2   -1    0    0    0  501 -0.00000000000E+00 -0.00000000000E+00 -0.32868445064E+01  0.32868455348E+01  0.26000000000E-02 0. -1.
        -13    1    1    2    0    0 -0.31076745697E+01  0.22100223788E+02  0.75243316156E+02  0.78483408000E+02  0.10570000000E+00 0. -1.
         13    1    1    2    0    0  0.31076745697E+01 -0.22100223788E+02  0.73040569993E+02  0.76374168212E+02  0.10570000000E+00 0.  1.
<mgrwt>
<rscale>  0 0.44640318E+02</rscale>
<asrwt>0</asrwt>
<pdfrwt beam="1">  1        2 0.23318567E-01 0.44640318E+02</pdfrwt>
<pdfrwt beam="2">  1       -2 0.50566861E-03 0.44640318E+02</pdfrwt>
<totfact> 0.89413418E+05</totfact>
</mgrwt>
</event>
<event>
 4    1  0.3704929E-001  0.3555842E+02  0.7818608E-02  0.1543697E+00
         -2   -1    0    0    0  501 -0.00000000000E+00  0.00000000000E+00  0.95008628943E+01  0.95008632500E+01  0.26000000000E-02 0.  1.
          2   -1    0    0  501    0  0.00000000000E+00 -0.00000000000E+00 -0.33270688362E+02  0.33270688463E+02  0.26000000000E-02 0. -1.
        -13    1    1    2    0    0 -0.12508607635E+02  0.12530592496E+02 -0.99423617734E+01  0.20306224252E+02  0.10570000000E+00 0. -1.
         13    1    1    2    0    0  0.12508607635E+02 -0.12530592496E+02 -0.13827463694E+02  0.22465327461E+02  0.10570000000E+00 0.  1.
<mgrwt>
<rscale>  0 0.35558417E+02</rscale>
<asrwt>0</asrwt>
<pdfrwt beam="2">  1        2 0.51185674E-02 0.35558417E+02</pdfrwt>
<pdfrwt beam="1">  1       -2 0.14616713E-02 0.35558417E+02</pdfrwt>
<totfact> 0.11330063E+06</totfact>
</mgrwt>
</event>
<event>
 4    1  0.3704929E-001  0.4044969E+02  0.7818608E-02  0.1504928E+00
         -2   -1    0    0    0  501 -0.00000000000E+00  0.00000000000E+00  0.23728096997E+02  0.23728097139E+02  0.26000000000E-02 0. -1.
          2   -1    0    0  501    0  0.00000000000E+00 -0.00000000000E+00 -0.17238819464E+02  0.17238819660E+02  0.26000000000E-02 0.  1.
        -13    1    1    2    0    0 -0.46038589805E+01  0.15618318080E+02 -0.89048295025E+01  0.18558947657E+02  0.10570000000E+00 0.  1.
         13    1    1    2    0    0  0.46038589805E+01 -0.15618318080E+02  0.15394107036E+02  0.22407969142E+02  0.10570000000E+00 0. -1.
<mgrwt>
<rscale>  0 0.40449692E+02</rscale>
<asrwt>0</asrwt>
<pdfrwt beam="2">  1        2 0.26521261E-02 0.40449692E+02</pdfrwt>
<pdfrwt beam="1">  1       -2 0.36504765E-02 0.40449692E+02</pdfrwt>
<totfact> 0.75130041E+05</totfact>
</mgrwt>
</event>
<event>
 4    1  0.3704929E-001  0.6529466E+02  0.7818608E-02  0.1376867E+00
          2   -1    0    0  501    0  0.00000000000E+00  0.00000000000E+00  0.57597575177E+02  0.57597575236E+02  0.26000000000E-02 0. -1.
         -2   -1    0    0    0  501 -0.00000000000E+00 -0.00000000000E+00 -0.18505089325E+02  0.18505089507E+02  0.26000000000E-02 0.  1.
        -13    1    1    2    0    0  0.14744463542E+01  0.31527471903E+02  0.98169487459E+01  0.33053579712E+02  0.10570000000E+00 0. -1.
         13    1    1    2    0    0 -0.14744463542E+01 -0.31527471903E+02  0.29275537107E+02  0.43049085031E+02  0.10570000000E+00 0.  1.
<mgrwt>
<rscale>  0 0.65294664E+02</rscale>
<asrwt>0</asrwt>
<pdfrwt beam="1">  1        2 0.88611653E-02 0.65294664E+02</pdfrwt>
<pdfrwt beam="2">  1       -2 0.28469369E-02 0.65294664E+02</pdfrwt>
<totfact> 0.26238229E+05</totfact>
</mgrwt>
</event>
<event>
 4    1  0.3704929E-001  0.2990872E+02  0.7818608E-02  0.1599100E+00
         -2   -1    0    0    0  501 -0.00000000000E+00  0.00000000000E+00  0.52481822304E+01  0.52481828745E+01  0.26000000000E-02 0. -1.
          2   -1    0    0  501    0  0.00000000000E+00 -0.00000000000E+00 -0.42611490360E+02  0.42611490439E+02  0.26000000000E-02 0.  1.
        -13    1    1    2    0    0 -0.12715927278E+02 -0.78618356362E+01 -0.18130934250E+02  0.23499898199E+02  0.10570000000E+00 0.  1.
         13    1    1    2    0    0  0.12715927278E+02  0.78618356362E+01 -0.19232373880E+02  0.24359775115E+02  0.10570000000E+00 0. -1.
<mgrwt>
<rscale>  0 0.29908720E+02</rscale>
<asrwt>0</asrwt>
<pdfrwt beam="2">  1        2 0.65556137E-02 0.29908720E+02</pdfrwt>
<pdfrwt beam="1">  1       -2 0.80741274E-03 0.29908720E+02</pdfrwt>
<totfact> 0.17863065E+06</totfact>
</mgrwt>
</event>
<event>
 4    1  0.3704929E-001  0.2375961E+02  0.7818608E-02  0.1679485E+00
          2   -1    0    0  501    0  0.00000000000E+00  0.00000000000E+00  0.13961579827E+02  0.13961580069E+02  0.26000000000E-02 0. -1.
         -2   -1    0    0    0  501 -0.00000000000E+00 -0.00000000000E+00 -0.10108440942E+02  0.10108441277E+02  0.26000000000E-02 0.  1.
        -13    1    1    2    0    0 -0.72926412684E+01  0.93054011774E+01  0.75144437873E+00  0.11846896171E+02  0.10570000000E+00 0.  1.
         13    1    1    2    0    0  0.72926412684E+01 -0.93054011774E+01  0.31016945057E+01  0.12223125175E+02  0.10570000000E+00 0. -1.
<mgrwt>
<rscale>  0 0.23759614E+02</rscale>
<asrwt>0</asrwt>
<pdfrwt beam="1">  1        2 0.21479354E-02 0.23759614E+02</pdfrwt>
<pdfrwt beam="2">  1       -2 0.15551448E-02 0.23759614E+02</pdfrwt>
<totfact> 0.27188820E+06</totfact>
</mgrwt>
</event>
<event>
 4    1  0.3704929E-001  0.2754252E+02  0.7818608E-02  0.1626958E+00
          2   -1    0    0  501    0  0.00000000000E+00  0.00000000000E+00  0.11005219266E+02  0.11005219573E+02  0.26000000000E-02 0.  1.
         -2   -1    0    0    0  501 -0.00000000000E+00 -0.00000000000E+00 -0.17232516841E+02  0.17232517037E+02  0.26000000000E-02 0. -1.
        -13    1    1    2    0    0 -0.11080271558E+02  0.26521400331E+01  0.48165922497E+01  0.12370003958E+02  0.10570000000E+00 0.  1.
         13    1    1    2    0    0  0.11080271558E+02 -0.26521400331E+01 -0.11043889825E+02  0.15867732652E+02  0.10570000000E+00 0. -1.
<mgrwt>
<rscale>  0 0.27542522E+02</rscale>
<asrwt>0</asrwt>
<pdfrwt beam="1">  1        2 0.16931107E-02 0.27542522E+02</pdfrwt>
<pdfrwt beam="2">  1       -2 0.26511565E-02 0.27542522E+02</pdfrwt>
<totfact> 0.18701491E+06</totfact>
</mgrwt>
</event>
<event>
 4    1  0.3704929E-001  0.5258452E+02  0.7818608E-02  0.1431880E+00
          2   -1    0    0  501    0  0.00000000000E+00  0.00000000000E+00  0.98289192898E+02  0.98289192932E+02  0.26000000000E-02 0.  1.
         -2   -1    0    0    0  501 -0.00000000000E+00 -0.00000000000E+00 -0.70331516607E+01  0.70331521413E+01  0.26000000000E-02 0. -1.
        -13    1    1    2    0    0  0.13605846310E+02 -0.12212095566E+02  0.77831273183E+01  0.19870646071E+02  0.10570000000E+00 0. -1.
         13    1    1    2    0    0 -0.13605846310E+02  0.12212095566E+02  0.83472913919E+02  0.85451699003E+02  0.10570000000E+00 0.  1.
<mgrwt>
<rscale>  0 0.52584516E+02</rscale>
<asrwt>0</asrwt>
<pdfrwt beam="1">  1        2 0.15121415E-01 0.52584516E+02</pdfrwt>
<pdfrwt beam="2">  1       -2 0.10820233E-02 0.52584516E+02</pdfrwt>
<totfact> 0.52441148E+05</totfact>
</mgrwt>
</event>
<event>
 4    1  0.3704929E-001  0.2890443E+02  0.7818608E-02  0.1610524E+00
          2   -1    0    0  501    0  0.00000000000E+00  0.00000000000E+00  0.26005500722E+02  0.26005500852E+02  0.26000000000E-02 0. -1.
         -2   -1    0    0    0  501 -0.00000000000E+00 -0.00000000000E+00 -0.80316282347E+01  0.80316286555E+01  0.26000000000E-02 0.  1.
        -13    1    1    2    0    0 -0.10468486308E+02  0.93862393624E+01  0.50522402610E+01  0.14940783081E+02  0.10570000000E+00 0.  1.
         13    1    1    2    0    0  0.10468486308E+02 -0.93862393624E+01  0.12921632227E+02  0.19096346426E+02  0.10570000000E+00 0. -1.
<mgrwt>
<rscale>  0 0.28904430E+02</rscale>
<asrwt>0</asrwt>
<pdfrwt beam="1">  1        2 0.40008463E-02 0.28904430E+02</pdfrwt>
<pdfrwt beam="2">  1       -2 0.12356352E-02 0.28904430E+02</pdfrwt>
<totfact> 0.18169251E+06</totfact>
</mgrwt>
</event>
<event>
 4    1  0.3704929E-001  0.2847992E+02  0.7818608E-02  0.1615526E+00
         -2   -1    0    0    0  501 -0.00000000000E+00  0.00000000000E+00  0.23584589871E+02  0.23584590015E+02  0.26000000000E-02 0. -1.
          2   -1    0    0  501    0  0.00000000000E+00 -0.00000000000E+00 -0.85978396250E+01  0.85978400181E+01  0.26000000000E-02 0.  1.
        -13    1    1    2    0    0 -0.13288228051E+02 -0.24291728497E+01  0.24036542989E+01  0.13721028093E+02  0.10570000000E+00 0.  1.
         13    1    1    2    0    0  0.13288228051E+02  0.24291728497E+01  0.12583095947E+02  0.18461401939E+02  0.10570000000E+00 0. -1.
<mgrwt>
<rscale>  0 0.28479925E+02</rscale>
<asrwt>0</asrwt>
<pdfrwt beam="2">  1        2 0.13227446E-02 0.28479925E+02</pdfrwt>
<pdfrwt beam="1">  1       -2 0.36283985E-02 0.28479925E+02</pdfrwt>
<totfact> 0.16812673E+06</totfact>
</mgrwt>
</event>
<event>
 4    1  0.3704929E-001  0.2820256E+02  0.7818608E-02  0.1618851E+00
         -2   -1    0    0    0  501 -0.00000000000E+00  0.00000000000E+00  0.32699520764E+02  0.32699520867E+02  0.26000000000E-02 0. -1.
          2   -1    0    0  501    0  0.00000000000E+00 -0.00000000000E+00 -0.60810075841E+01  0.60810081400E+01  0.26000000000E-02 0.  1.
        -13    1    1    2    0    0  0.12702699707E+02  0.60862570044E+01  0.14214895247E+02  0.20011884558E+02  0.10570000000E+00 0. -1.
         13    1    1    2    0    0 -0.12702699707E+02 -0.60862570044E+01  0.12403617932E+02  0.18768644449E+02  0.10570000000E+00 0.  1.
<mgrwt>
<rscale>  0 0.28202556E+02</rscale>
<asrwt>0</asrwt>
<pdfrwt beam="2">  1        2 0.93553967E-03 0.28202556E+02</pdfrwt>
<pdfrwt beam="1">  1       -2 0.50306956E-02 0.28202556E+02</pdfrwt>
<totfact> 0.16586871E+06</totfact>
</mgrwt>
</event>
<event>
 4    1  0.3704929E-001  0.2533665E+02  0.7818608E-02  0.1656213E+00
         -2   -1    0    0    0  501 -0.00000000000E+00  0.00000000000E+00  0.31189010097E+01  0.31189020934E+01  0.26000000000E-02 0. -1.
          2   -1    0    0  501    0  0.00000000000E+00 -0.00000000000E+00 -0.51456093055E+02  0.51456093121E+02  0.26000000000E-02 0.  1.
        -13    1    1    2    0    0 -0.11797580471E+02  0.37655382193E+00 -0.14262420074E+02  0.18513576008E+02  0.10570000000E+00 0. -1.
         13    1    1    2    0    0  0.11797580471E+02 -0.37655382193E+00 -0.34074771971E+02  0.36061419206E+02  0.10570000000E+00 0.  1.
<mgrwt>
<rscale>  0 0.25336653E+02</rscale>
<asrwt>0</asrwt>
<pdfrwt beam="2">  1        2 0.79163215E-02 0.25336653E+02</pdfrwt>
<pdfrwt beam="1">  1       -2 0.47983105E-03 0.25336653E+02</pdfrwt>
<totfact> 0.27174661E+06</totfact>
</mgrwt>
</event>
<event>
 4    1  0.3704929E-001  0.2118422E+02  0.7818608E-02  0.1722755E+00
          2   -1    0    0  501    0  0.00000000000E+00  0.00000000000E+00  0.18646069168E+01  0.18646087295E+01  0.26000000000E-02 0.  1.
         -2   -1    0    0    0  501 -0.00000000000E+00 -0.00000000000E+00 -0.60169642393E+02  0.60169642449E+02  0.26000000000E-02 0. -1.
        -13    1    1    2    0    0  0.10389958581E+02  0.63302515443E+00 -0.34883103260E+02  0.36403214496E+02  0.10570000000E+00 0.  1.
         13    1    1    2    0    0 -0.10389958581E+02 -0.63302515443E+00 -0.23421932216E+02  0.25631036682E+02  0.10570000000E+00 0. -1.
<mgrwt>
<rscale>  0 0.21184220E+02</rscale>
<asrwt>0</asrwt>
<pdfrwt beam="1">  1        2 0.28686279E-03 0.21184220E+02</pdfrwt>
<pdfrwt beam="2">  1       -2 0.92568667E-02 0.21184220E+02</pdfrwt>
<totfact> 0.29034085E+06</totfact>
</mgrwt>
</event>
<event>
 4    1  0.3704929E-001  0.5768143E+02  0.7818608E-02  0.1407828E+00
         -2   -1    0    0    0  501 -0.00000000000E+00  0.00000000000E+00  0.88765746114E+02  0.88765746152E+02  0.26000000000E-02 0.  1.
          2   -1    0    0  501    0  0.00000000000E+00 -0.00000000000E+00 -0.93705828410E+01  0.93705832017E+01  0.26000000000E-02 0. -1.
        -13    1    1    2    0    0 -0.12974326845E+02  0.24348786364E+02  0.25404306007E+02  0.37504486274E+02  0.10570000000E+00 0. -1.
         13    1    1    2    0    0  0.12974326845E+02 -0.24348786364E+02  0.53990857266E+02  0.60631843080E+02  0.10570000000E+00 0.  1.
<mgrwt>
<rscale>  0 0.57681428E+02</rscale>
<asrwt>0</asrwt>
<pdfrwt beam="2">  1        2 0.14416282E-02 0.57681428E+02</pdfrwt>
<pdfrwt beam="1">  1       -2 0.13656268E-01 0.57681428E+02</pdfrwt>
<totfact> 0.25616479E+05</totfact>
</mgrwt>
</event>
<event>
 4    1  0.3704929E-001  0.2898667E+02  0.7818608E-02  0.1609568E+00
          2   -1    0    0  501    0  0.00000000000E+00  0.00000000000E+00  0.21481517951E+02  0.21481518108E+02  0.26000000000E-02 0.  1.
         -2   -1    0    0    0  501 -0.00000000000E+00 -0.00000000000E+00 -0.97784847364E+01  0.97784850820E+01  0.26000000000E-02 0. -1.
        -13    1    1    2    0    0 -0.78779503377E+01  0.73315774033E+01  0.16320115890E+02  0.19549206733E+02  0.10570000000E+00 0.  1.
         13    1    1    2    0    0  0.78779503377E+01 -0.73315774033E+01 -0.46170826752E+01  0.11710796457E+02  0.10570000000E+00 0. -1.
<mgrwt>
<rscale>  0 0.28986666E+02</rscale>
<asrwt>0</asrwt>
<pdfrwt beam="1">  1        2 0.33048489E-02 0.28986666E+02</pdfrwt>
<pdfrwt beam="2">  1       -2 0.15043823E-02 0.28986666E+02</pdfrwt>
<totfact> 0.17666056E+06</totfact>
</mgrwt>
</event>
<event>
 4    1  0.3704929E-001  0.2527737E+02  0.7818608E-02  0.1657050E+00
         -2   -1    0    0    0  501 -0.00000000000E+00  0.00000000000E+00  0.19945299300E+02  0.19945299470E+02  0.26000000000E-02 0. -1.
          2   -1    0    0  501    0  0.00000000000E+00 -0.00000000000E+00 -0.80087229073E+01  0.80087233293E+01  0.26000000000E-02 0.  1.
        -13    1    1    2    0    0 -0.47943944339E+01  0.11404870829E+02  0.31126222101E+01  0.12757620708E+02  0.10570000000E+00 0.  1.
         13    1    1    2    0    0  0.47943944339E+01 -0.11404870829E+02  0.88239541829E+01  0.15196402091E+02  0.10570000000E+00 0. -1.
<mgrwt>
<rscale>  0 0.25277372E+02</rscale>
<asrwt>0</asrwt>
<pdfrwt beam="2">  1        2 0.12321113E-02 0.25277372E+02</pdfrwt>
<pdfrwt beam="1">  1       -2 0.30685076E-02 0.25277372E+02</pdfrwt>
<totfact> 0.22350197E+06</totfact>
</mgrwt>
</event>
<event>
 4    1  0.3704929E-001  0.2951915E+02  0.7818608E-02  0.1603465E+00
          2   -1    0    0  501    0  0.00000000000E+00  0.00000000000E+00  0.28490977668E+02  0.28490977786E+02  0.26000000000E-02 0.  1.
         -2   -1    0    0    0  501 -0.00000000000E+00 -0.00000000000E+00 -0.76461064942E+01  0.76461069362E+01  0.26000000000E-02 0. -1.
        -13    1    1    2    0    0  0.14136745903E+02 -0.33805444594E+01  0.13557469904E+02  0.19876916970E+02  0.10570000000E+00 0. -1.
         13    1    1    2    0    0 -0.14136745903E+02  0.33805444594E+01  0.72874012699E+01  0.16260167752E+02  0.10570000000E+00 0.  1.
<mgrwt>
<rscale>  0 0.29519150E+02</rscale>
<asrwt>0</asrwt>
<pdfrwt beam="1">  1        2 0.43832274E-02 0.29519150E+02</pdfrwt>
<pdfrwt beam="2">  1       -2 0.11763241E-02 0.29519150E+02</pdfrwt>
<totfact> 0.17463442E+06</totfact>
</mgrwt>
</event>
<event>
 4    1  0.3704929E-001  0.2154000E+02  0.7818608E-02  0.1716331E+00
         -2   -1    0    0    0  501 -0.00000000000E+00  0.00000000000E+00  0.22143134183E+02  0.22143134335E+02  0.26000000000E-02 0.  1.
          2   -1    0    0  501    0  0.00000000000E+00 -0.00000000000E+00 -0.52383206739E+01  0.52383213191E+01  0.26000000000E-02 0. -1.
        -13    1    1    2    0    0 -0.93805911081E+01  0.51908167647E+01  0.71550391824E+01  0.12889756647E+02  0.10570000000E+00 0. -1.
         13    1    1    2    0    0  0.93805911081E+01 -0.51908167647E+01  0.97497743264E+01  0.14491699008E+02  0.10570000000E+00 0.  1.
<mgrwt>
<rscale>  0 0.21539995E+02</rscale>
<asrwt>0</asrwt>
<pdfrwt beam="2">  1        2 0.80589553E-03 0.21539995E+02</pdfrwt>
<pdfrwt beam="1">  1       -2 0.34066362E-02 0.21539995E+02</pdfrwt>
<totfact> 0.31553408E+06</totfact>
</mgrwt>
</event>
<event>
 4    1  0.3704929E-001  0.5506113E+02  0.7818608E-02  0.1419810E+00
         -2   -1    0    0    0  501 -0.00000000000E+00  0.00000000000E+00  0.44076107488E+01  0.44076115156E+01  0.26000000000E-02 0.  1.
          2   -1    0    0  501    0  0.00000000000E+00 -0.00000000000E+00 -0.17195983977E+03  0.17195983979E+03  0.26000000000E-02 0. -1.
        -13    1    1    2    0    0 -0.19217851988E+02 -0.15650484094E+02 -0.12216781632E+03  0.12465652812E+03  0.10570000000E+00 0. -1.
         13    1    1    2    0    0  0.19217851988E+02  0.15650484094E+02 -0.45384412707E+02  0.51710923186E+02  0.10570000000E+00 0.  1.
<mgrwt>
<rscale>  0 0.55061134E+02</rscale>
<asrwt>0</asrwt>
<pdfrwt beam="2">  1        2 0.26455355E-01 0.55061134E+02</pdfrwt>
<pdfrwt beam="1">  1       -2 0.67809415E-03 0.55061134E+02</pdfrwt>
<totfact> 0.54938677E+05</totfact>
</mgrwt>
</event>
<event>
 4    1  0.3704929E-001  0.6092576E+02  0.7818608E-02  0.1393987E+00
          2   -1    0    0  501    0  0.00000000000E+00  0.00000000000E+00  0.48680477433E+01  0.48680484377E+01  0.26000000000E-02 0.  1.
         -2   -1    0    0    0  501 -0.00000000000E+00 -0.00000000000E+00 -0.19062813898E+03  0.19062813900E+03  0.26000000000E-02 0. -1.
        -13    1    1    2    0    0  0.51024248940E+01 -0.29336382195E+02 -0.72254496031E+02  0.78149737231E+02  0.10570000000E+00 0.  1.
         13    1    1    2    0    0 -0.51024248940E+01  0.29336382195E+02 -0.11350559521E+03  0.11734645021E+03  0.10570000000E+00 0. -1.
<mgrwt>
<rscale>  0 0.60925757E+02</rscale>
<asrwt>0</asrwt>
<pdfrwt beam="1">  1        2 0.74893063E-03 0.60925757E+02</pdfrwt>
<pdfrwt beam="2">  1       -2 0.29327400E-01 0.60925757E+02</pdfrwt>
<totfact> 0.17619003E+05</totfact>
</mgrwt>
</event>
<event>
 4    1  0.3704929E-001  0.2109625E+02  0.7818608E-02  0.1724367E+00
         -2   -1    0    0    0  501 -0.00000000000E+00  0.00000000000E+00  0.24006628420E+02  0.24006628561E+02  0.26000000000E-02 0. -1.
          2   -1    0    0  501    0  0.00000000000E+00 -0.00000000000E+00 -0.46346741722E+01  0.46346749015E+01  0.26000000000E-02 0.  1.
        -13    1    1    2    0    0 -0.95644958373E+00 -0.10186803306E+02  0.62071130873E+01  0.11967672404E+02  0.10570000000E+00 0.  1.
         13    1    1    2    0    0  0.95644958373E+00  0.10186803306E+02  0.13164841161E+02  0.16673631059E+02  0.10570000000E+00 0. -1.
<mgrwt>
<rscale>  0 0.21096247E+02</rscale>
<asrwt>0</asrwt>
<pdfrwt beam="2">  1        2 0.71302686E-03 0.21096247E+02</pdfrwt>
<pdfrwt beam="1">  1       -2 0.36933275E-02 0.21096247E+02</pdfrwt>
<totfact> 0.32788291E+06</totfact>
</mgrwt>
</event>
<event>
 4    1  0.3704929E-001  0.3458207E+02  0.7818608E-02  0.1552344E+00
          2   -1    0    0  501    0  0.00000000000E+00  0.00000000000E+00  0.66764235849E+01  0.66764240911E+01  0.26000000000E-02 0. -1.
         -2   -1    0    0    0  501 -0.00000000000E+00 -0.00000000000E+00 -0.44781435240E+02  0.44781435316E+02  0.26000000000E-02 0.  1.
        -13    1    1    2    0    0  0.15076073512E+02 -0.42467830031E+01 -0.29951024465E+02  0.33799381612E+02  0.10570000000E+00 0. -1.
         13    1    1    2    0    0 -0.15076073512E+02  0.42467830031E+01 -0.81539871906E+01  0.17658477794E+02  0.10570000000E+00 0.  1.
<mgrwt>
<rscale>  0 0.34582067E+02</rscale>
<asrwt>0</asrwt>
<pdfrwt beam="1">  1        2 0.10271422E-02 0.34582067E+02</pdfrwt>
<pdfrwt beam="2">  1       -2 0.68894514E-02 0.34582067E+02</pdfrwt>
<totfact> 0.99447481E+05</totfact>
</mgrwt>
</event>
<event>
 4    1  0.3704929E-001  0.2289566E+02  0.7818608E-02  0.1693207E+00
         -2   -1    0    0    0  501 -0.00000000000E+00  0.00000000000E+00  0.16799971753E+01  0.16799991872E+01  0.26000000000E-02 0.  1.
          2   -1    0    0  501    0  0.00000000000E+00 -0.00000000000E+00 -0.78007737811E+02  0.78007737855E+02  0.26000000000E-02 0. -1.
        -13    1    1    2    0    0  0.10904331599E+02  0.10995353341E+01 -0.26658149972E+02  0.28823281528E+02  0.10570000000E+00 0. -1.
         13    1    1    2    0    0 -0.10904331599E+02 -0.10995353341E+01 -0.49669590664E+02  0.50864455514E+02  0.10570000000E+00 0.  1.
<mgrwt>
<rscale>  0 0.22895664E+02</rscale>
<asrwt>0</asrwt>
<pdfrwt beam="2">  1        2 0.12001188E-01 0.22895664E+02</pdfrwt>
<pdfrwt beam="1">  1       -2 0.25846132E-03 0.22895664E+02</pdfrwt>
<totfact> 0.36962549E+06</totfact>
</mgrwt>
</event>
<event>
 4    1  0.3704929E-001  0.3557620E+02  0.7818608E-02  0.1543542E+00
         -2   -1    0    0    0  501 -0.00000000000E+00  0.00000000000E+00  0.87458627811E+02  0.87458627850E+02  0.26000000000E-02 0.  1.
          2   -1    0    0  501    0  0.00000000000E+00 -0.00000000000E+00 -0.36178985530E+01  0.36178994873E+01  0.26000000000E-02 0. -1.
        -13    1    1    2    0    0  0.13110198482E+02  0.11856263382E+02  0.47012870547E+02  0.50226182965E+02  0.10570000000E+00 0. -1.
         13    1    1    2    0    0 -0.13110198482E+02 -0.11856263382E+02  0.36827858711E+02  0.40850344372E+02  0.10570000000E+00 0.  1.
<mgrwt>
<rscale>  0 0.35576199E+02</rscale>
<asrwt>0</asrwt>
<pdfrwt beam="2">  1        2 0.55659982E-03 0.35576199E+02</pdfrwt>
<pdfrwt beam="1">  1       -2 0.13455174E-01 0.35576199E+02</pdfrwt>
<totfact> 0.82554135E+05</totfact>
</mgrwt>
</event>
<event>
 4    1  0.3704929E-001  0.5070316E+02  0.7818608E-02  0.1441585E+00
         -2   -1    0    0    0  501 -0.00000000000E+00  0.00000000000E+00  0.26383148883E+02  0.26383149011E+02  0.26000000000E-02 0. -1.
          2   -1    0    0  501    0  0.00000000000E+00 -0.00000000000E+00 -0.24360349145E+02  0.24360349283E+02  0.26000000000E-02 0.  1.
        -13    1    1    2    0    0 -0.10211350293E+02 -0.23200157100E+02  0.59563185326E+00  0.25355175291E+02  0.10570000000E+00 0.  1.
         13    1    1    2    0    0  0.10211350293E+02  0.23200157100E+02  0.14271678852E+01  0.25388323003E+02  0.10570000000E+00 0. -1.
<mgrwt>
<rscale>  0 0.50703165E+02</rscale>
<asrwt>0</asrwt>
<pdfrwt beam="2">  1        2 0.37477460E-02 0.50703165E+02</pdfrwt>
<pdfrwt beam="1">  1       -2 0.40589460E-02 0.50703165E+02</pdfrwt>
<totfact> 0.43771269E+05</totfact>
</mgrwt>
</event>
<event>
 4    1  0.3704929E-001  0.3198935E+02  0.7818608E-02  0.1577086E+00
          2   -1    0    0  501    0  0.00000000000E+00  0.00000000000E+00  0.17065111127E+02  0.17065111325E+02  0.26000000000E-02 0.  1.
         -2   -1    0    0    0  501 -0.00000000000E+00 -0.00000000000E+00 -0.14991380375E+02  0.14991380601E+02  0.26000000000E-02 0. -1.
        -13    1    1    2    0    0  0.14071856712E+02  0.41886822794E+01 -0.53212292356E+01  0.15616941558E+02  0.10570000000E+00 0. -1.
         13    1    1    2    0    0 -0.14071856712E+02 -0.41886822794E+01  0.73949599872E+01  0.16439550367E+02  0.10570000000E+00 0.  1.
<mgrwt>
<rscale>  0 0.31989347E+02</rscale>
<asrwt>0</asrwt>
<pdfrwt beam="1">  1        2 0.26254017E-02 0.31989347E+02</pdfrwt>
<pdfrwt beam="2">  1       -2 0.23063663E-02 0.31989347E+02</pdfrwt>
<totfact> 0.13554304E+06</totfact>
</mgrwt>
</event>
<event>
 4    1  0.3704929E-001  0.2630750E+02  0.7818608E-02  0.1642902E+00
          2   -1    0    0  501    0  0.00000000000E+00  0.00000000000E+00  0.79815712910E+02  0.79815712953E+02  0.26000000000E-02 0.  1.
         -2   -1    0    0    0  501 -0.00000000000E+00 -0.00000000000E+00 -0.21677565490E+01  0.21677581082E+01  0.26000000000E-02 0. -1.
        -13    1    1    2    0    0 -0.17908163955E+01  0.11590839194E+02  0.57380119272E+02  0.58566576106E+02  0.10570000000E+00 0.  1.
         13    1    1    2    0    0  0.17908163955E+01 -0.11590839194E+02  0.20267837089E+02  0.23416894955E+02  0.10570000000E+00 0. -1.
<mgrwt>
<rscale>  0 0.26307497E+02</rscale>
<asrwt>0</asrwt>
<pdfrwt beam="1">  1        2 0.12279342E-01 0.26307497E+02</pdfrwt>
<pdfrwt beam="2">  1       -2 0.33350108E-03 0.26307497E+02</pdfrwt>
<totfact> 0.27004694E+06</totfact>
</mgrwt>
</event>
<event>
 4    1  0.3704929E-001  0.2433597E+02  0.7818608E-02  0.1670727E+00
         -2   -1    0    0    0  501 -0.00000000000E+00  0.00000000000E+00  0.78448444346E+02  0.78448444389E+02  0.26000000000E-02 0. -1.
          2   -1    0    0  501    0  0.00000000000E+00 -0.00000000000E+00 -0.18873518574E+01  0.18873536483E+01  0.26000000000E-02 0.  1.
        -13    1    1    2    0    0  0.10938543902E+02 -0.48834902103E+01  0.31240192909E+02  0.33458347909E+02  0.10570000000E+00 0.  1.
         13    1    1    2    0    0 -0.10938543902E+02  0.48834902103E+01  0.45320899580E+02  0.46877450129E+02  0.10570000000E+00 0. -1.
<mgrwt>
<rscale>  0 0.24335973E+02</rscale>
<asrwt>0</asrwt>
<pdfrwt beam="2">  1        2 0.29036193E-03 0.24335973E+02</pdfrwt>
<pdfrwt beam="1">  1       -2 0.12068993E-01 0.24335973E+02</pdfrwt>
<totfact> 0.20305518E+06</totfact>
</mgrwt>
</event>
<event>
 4    1  0.3704929E-001  0.3421875E+02  0.7818608E-02  0.1555650E+00
         -2   -1    0    0    0  501 -0.00000000000E+00  0.00000000000E+00  0.40299816527E+01  0.40299824914E+01  0.26000000000E-02 0. -1.
          2   -1    0    0  501    0  0.00000000000E+00 -0.00000000000E+00 -0.72638215071E+02  0.72638215117E+02  0.26000000000E-02 0.  1.
        -13    1    1    2    0    0 -0.13106381246E+02  0.10754081112E+02 -0.39458336120E+02  0.42946466115E+02  0.10570000000E+00 0.  1.
         13    1    1    2    0    0  0.13106381246E+02 -0.10754081112E+02 -0.29149897298E+02  0.33721731493E+02  0.10570000000E+00 0. -1.
<mgrwt>
<rscale>  0 0.34218750E+02</rscale>
<asrwt>0</asrwt>
<pdfrwt beam="2">  1        2 0.11175109E-01 0.34218750E+02</pdfrwt>
<pdfrwt beam="1">  1       -2 0.61999730E-03 0.34218750E+02</pdfrwt>
<totfact> 0.14207866E+06</totfact>
</mgrwt>
</event>
<event>
 4    1  0.3704929E-001  0.3737429E+02  0.7818608E-02  0.1528473E+00
         -2   -1    0    0    0  501 -0.00000000000E+00  0.00000000000E+00  0.29383130189E+01  0.29383141693E+01  0.26000000000E-02 0. -1.
          2   -1    0    0  501    0  0.00000000000E+00 -0.00000000000E+00 -0.11884687798E+03  0.11884687801E+03  0.26000000000E-02 0.  1.
        -13    1    1    2    0    0  0.17206689028E+02  0.45355561455E+01 -0.39361582649E+02  0.43197069090E+02  0.10570000000E+00 0. -1.
         13    1    1    2    0    0 -0.17206689028E+02 -0.45355561455E+01 -0.76546982309E+02  0.78588123085E+02  0.10570000000E+00 0.  1.
<mgrwt>
<rscale>  0 0.37374291E+02</rscale>
<asrwt>0</asrwt>
<pdfrwt beam="2">  1        2 0.18284131E-01 0.37374291E+02</pdfrwt>
<pdfrwt beam="1">  1       -2 0.45204834E-03 0.37374291E+02</pdfrwt>
<totfact> 0.12898615E+06</totfact>
</mgrwt>
</event>
<event>
 4    1  0.3704929E-001  0.3019928E+02  0.7818608E-02  0.1595896E+00
         -2   -1    0    0    0  501 -0.00000000000E+00  0.00000000000E+00  0.72496863669E+02  0.72496863715E+02  0.26000000000E-02 0.  1.
          2   -1    0    0  501    0  0.00000000000E+00 -0.00000000000E+00 -0.31449507696E+01  0.31449518443E+01  0.26000000000E-02 0. -1.
        -13    1    1    2    0    0  0.14094378974E+02  0.35197518234E+00  0.21138097869E+02  0.25408773272E+02  0.10570000000E+00 0. -1.
         13    1    1    2    0    0 -0.14094378974E+02 -0.35197518234E+00  0.48213815030E+02  0.50233042287E+02  0.10570000000E+00 0.  1.
<mgrwt>
<rscale>  0 0.30199279E+02</rscale>
<asrwt>0</asrwt>
<pdfrwt beam="2">  1        2 0.48383865E-03 0.30199279E+02</pdfrwt>
<pdfrwt beam="1">  1       -2 0.11153364E-01 0.30199279E+02</pdfrwt>
<totfact> 0.12590037E+06</totfact>
</mgrwt>
</event>
<event>
 4    1  0.3704929E-001  0.5234664E+02  0.7818608E-02  0.1433080E+00
          2   -1    0    0  501    0  0.00000000000E+00  0.00000000000E+00  0.26271724336E+03  0.26271724337E+03  0.26000000000E-02 0. -1.
         -2   -1    0    0    0  501 -0.00000000000E+00 -0.00000000000E+00 -0.26075277800E+01  0.26075290762E+01  0.26000000000E-02 0.  1.
        -13    1    1    2    0    0  0.25392965518E+02 -0.58895804653E+01  0.14198673447E+03  0.14435973744E+03  0.10570000000E+00 0. -1.
         13    1    1    2    0    0 -0.25392965518E+02  0.58895804653E+01  0.11812298110E+03  0.12096503500E+03  0.10570000000E+00 0.  1.
<mgrwt>
<rscale>  0 0.52346640E+02</rscale>
<asrwt>0</asrwt>
<pdfrwt beam="1">  1        2 0.40418059E-01 0.52346640E+02</pdfrwt>
<pdfrwt beam="2">  1       -2 0.40115801E-03 0.52346640E+02</pdfrwt>
<totfact> 0.72018729E+05</totfact>
</mgrwt>
</event>
<event>
 4    1  0.3704929E-001  0.2268419E+02  0.7818608E-02  0.1696681E+00
          2   -1    0    0  501    0  0.00000000000E+00  0.00000000000E+00  0.13970185399E+01  0.13970209593E+01  0.26000000000E-02 0. -1.
         -2   -1    0    0    0  501 -0.00000000000E+00 -0.00000000000E+00 -0.92083963108E+02  0.92083963144E+02  0.26000000000E-02 0.  1.
        -13    1    1    2    0    0  0.59938219013E+01  0.93724005100E+01 -0.54432211553E+02  0.55557579315E+02  0.10570000000E+00 0.  1.
         13    1    1    2    0    0 -0.59938219013E+01 -0.93724005100E+01 -0.36254733015E+02  0.37923404789E+02  0.10570000000E+00 0. -1.
<mgrwt>
<rscale>  0 0.22684190E+02</rscale>
<asrwt>0</asrwt>
<pdfrwt beam="1">  1        2 0.21492619E-03 0.22684190E+02</pdfrwt>
<pdfrwt beam="2">  1       -2 0.14166759E-01 0.22684190E+02</pdfrwt>
<totfact> 0.22964850E+06</totfact>
</mgrwt>
</event>
<event>
 4    1  0.3704929E-001  0.2368191E+02  0.7818608E-02  0.1680689E+00
         -2   -1    0    0    0  501 -0.00000000000E+00  0.00000000000E+00  0.14840735422E+02  0.14840735650E+02  0.26000000000E-02 0. -1.
          2   -1    0    0  501    0  0.00000000000E+00 -0.00000000000E+00 -0.94475256309E+01  0.94475259887E+01  0.26000000000E-02 0.  1.
        -13    1    1    2    0    0  0.86054567615E+01 -0.80420373047E+01  0.39395813498E+01  0.12420133807E+02  0.10570000000E+00 0. -1.
         13    1    1    2    0    0 -0.86054567615E+01  0.80420373047E+01  0.14536284412E+01  0.11868127831E+02  0.10570000000E+00 0.  1.
<mgrwt>
<rscale>  0 0.23681912E+02</rscale>
<asrwt>0</asrwt>
<pdfrwt beam="2">  1        2 0.14534655E-02 0.23681912E+02</pdfrwt>
<pdfrwt beam="1">  1       -2 0.22831901E-02 0.23681912E+02</pdfrwt>
<totfact> 0.26509117E+06</totfact>
</mgrwt>
</event>
<event>
 4    1  0.3704929E-001  0.3738410E+02  0.7818608E-02  0.1528394E+00
          2   -1    0    0  501    0  0.00000000000E+00  0.00000000000E+00  0.43845178016E+01  0.43845185725E+01  0.26000000000E-02 0. -1.
         -2   -1    0    0    0  501 -0.00000000000E+00 -0.00000000000E+00 -0.79687814275E+02  0.79687814318E+02  0.26000000000E-02 0.  1.
        -13    1    1    2    0    0  0.77118140179E+01  0.13179263094E+02 -0.13407886370E+02  0.20321113172E+02  0.10570000000E+00 0. -1.
         13    1    1    2    0    0 -0.77118140179E+01 -0.13179263094E+02 -0.61895410103E+02  0.63751219718E+02  0.10570000000E+00 0.  1.
<mgrwt>
<rscale>  0 0.37384097E+02</rscale>
<asrwt>0</asrwt>
<pdfrwt beam="1">  1        2 0.67454132E-03 0.37384097E+02</pdfrwt>
<pdfrwt beam="2">  1       -2 0.12259663E-01 0.37384097E+02</pdfrwt>
<totfact> 0.74886458E+05</totfact>
</mgrwt>
</event>
<event>
 4    1  0.3704929E-001  0.3035781E+02  0.7818608E-02  0.1594167E+00
          2   -1    0    0  501    0  0.00000000000E+00  0.00000000000E+00  0.54633043149E+02  0.54633043211E+02  0.26000000000E-02 0.  1.
         -2   -1    0    0    0  501 -0.00000000000E+00 -0.00000000000E+00 -0.42172119697E+01  0.42172127712E+01  0.26000000000E-02 0. -1.
        -13    1    1    2    0    0  0.98179407359E+01  0.11405192493E+02  0.21370949252E+02  0.26138076067E+02  0.10570000000E+00 0. -1.
         13    1    1    2    0    0 -0.98179407359E+01 -0.11405192493E+02  0.29044881928E+02  0.32712179915E+02  0.10570000000E+00 0.  1.
<mgrwt>
<rscale>  0 0.30357809E+02</rscale>
<asrwt>0</asrwt>
<pdfrwt beam="1">  1        2 0.84050839E-02 0.30357809E+02</pdfrwt>
<pdfrwt beam="2">  1       -2 0.64880189E-03 0.30357809E+02</pdfrwt>
<totfact> 0.17941144E+06</totfact>
</mgrwt>
</event>
<event>
 4    1  0.3704929E-001  0.2131822E+02  0.7818608E-02  0.1720317E+00
         -2   -1    0    0    0  501 -0.00000000000E+00  0.00000000000E+00  0.65444182255E+01  0.65444187420E+01  0.26000000000E-02 0.  1.
          2   -1    0    0  501    0  0.00000000000E+00 -0.00000000000E+00 -0.17360837259E+02  0.17360837454E+02  0.26000000000E-02 0. -1.
        -13    1    1    2    0    0  0.58830091778E+01  0.83915778044E+01 -0.21241480928E+01  0.10466687759E+02  0.10570000000E+00 0.  1.
         13    1    1    2    0    0 -0.58830091778E+01 -0.83915778044E+01 -0.86922709409E+01  0.13438568437E+02  0.10570000000E+00 0. -1.
<mgrwt>
<rscale>  0 0.21318216E+02</rscale>
<asrwt>0</asrwt>
<pdfrwt beam="2">  1        2 0.26708981E-02 0.21318216E+02</pdfrwt>
<pdfrwt beam="1">  1       -2 0.10068336E-02 0.21318216E+02</pdfrwt>
<totfact> 0.35607642E+06</totfact>
</mgrwt>
</event>
<event>
 4    1  0.3704929E-001  0.3208450E+02  0.7818608E-02  0.1576128E+00
          2   -1    0    0  501    0  0.00000000000E+00  0.00000000000E+00  0.10104324955E+03  0.10104324958E+03  0.26000000000E-02 0. -1.
         -2   -1    0    0    0  501 -0.00000000000E+00 -0.00000000000E+00 -0.25469665728E+01  0.25469678999E+01  0.26000000000E-02 0.  1.
        -13    1    1    2    0    0 -0.15095135040E+01  0.15082620014E+02  0.66203605365E+02  0.67916806413E+02  0.10570000000E+00 0. -1.
         13    1    1    2    0    0  0.15095135040E+01 -0.15082620014E+02  0.32292677608E+02  0.35673411066E+02  0.10570000000E+00 0.  1.
<mgrwt>
<rscale>  0 0.32084504E+02</rscale>
<asrwt>0</asrwt>
<pdfrwt beam="1">  1        2 0.15545118E-01 0.32084504E+02</pdfrwt>
<pdfrwt beam="2">  1       -2 0.39184105E-03 0.32084504E+02</pdfrwt>
<totfact> 0.17862514E+06</totfact>
</mgrwt>
</event>
<event>
 4    1  0.3704929E-001  0.2804609E+02  0.7818608E-02  0.1620748E+00
          2   -1    0    0  501    0  0.00000000000E+00  0.00000000000E+00  0.49245276403E+02  0.49245276472E+02  0.26000000000E-02 0. -1.
         -2   -1    0    0    0  501 -0.00000000000E+00 -0.00000000000E+00 -0.39931903976E+01  0.39931912440E+01  0.26000000000E-02 0.  1.
        -13    1    1    2    0    0 -0.12306746525E+02  0.57268518151E+01  0.29305554158E+02  0.32296741612E+02  0.10570000000E+00 0. -1.
         13    1    1    2    0    0  0.12306746525E+02 -0.57268518151E+01  0.15946531848E+02  0.20941726104E+02  0.10570000000E+00 0.  1.
<mgrwt>
<rscale>  0 0.28046090E+02</rscale>
<asrwt>0</asrwt>
<pdfrwt beam="1">  1        2 0.75761961E-02 0.28046090E+02</pdfrwt>
<pdfrwt beam="2">  1       -2 0.61433708E-03 0.28046090E+02</pdfrwt>
<totfact> 0.21276728E+06</totfact>
</mgrwt>
</event>
<event>
 4    1  0.3704929E-001  0.2573953E+02  0.7818608E-02  0.1650601E+00
         -2   -1    0    0    0  501 -0.00000000000E+00  0.00000000000E+00  0.63514282368E+01  0.63514287690E+01  0.26000000000E-02 0.  1.
          2   -1    0    0  501    0  0.00000000000E+00 -0.00000000000E+00 -0.26077728961E+02  0.26077729090E+02  0.26000000000E-02 0. -1.
        -13    1    1    2    0    0  0.10124923095E+02 -0.35133076286E+01 -0.88668060481E+00  0.10754290919E+02  0.10570000000E+00 0.  1.
         13    1    1    2    0    0 -0.10124923095E+02  0.35133076286E+01 -0.18839620119E+02  0.21674866941E+02  0.10570000000E+00 0. -1.
<mgrwt>
<rscale>  0 0.25739529E+02</rscale>
<asrwt>0</asrwt>
<pdfrwt beam="2">  1        2 0.40119583E-02 0.25739529E+02</pdfrwt>
<pdfrwt beam="1">  1       -2 0.97714287E-03 0.25739529E+02</pdfrwt>
<totfact> 0.23929279E+06</totfact>
</mgrwt>
</event>
<event>
 4    1  0.3704929E-001  0.4713469E+02  0.7818608E-02  0.1461439E+00
         -2   -1    0    0    0  501 -0.00000000000E+00  0.00000000000E+00  0.43036714885E+01  0.43036722738E+01  0.26000000000E-02 0. -1.
          2   -1    0    0  501    0  0.00000000000E+00 -0.00000000000E+00 -0.12905718809E+03  0.12905718812E+03  0.26000000000E-02 0.  1.
        -13    1    1    2    0    0 -0.13292693154E+02  0.19023203356E+02 -0.73984249328E+02  0.77538753397E+02  0.10570000000E+00 0. -1.
         13    1    1    2    0    0  0.13292693154E+02 -0.19023203356E+02 -0.50769267274E+02  0.55822106994E+02  0.10570000000E+00 0.  1.
<mgrwt>
<rscale>  0 0.47134692E+02</rscale>
<asrwt>0</asrwt>
<pdfrwt beam="2">  1        2 0.19854949E-01 0.47134692E+02</pdfrwt>
<pdfrwt beam="1">  1       -2 0.66210347E-03 0.47134692E+02</pdfrwt>
<totfact> 0.74476040E+05</totfact>
</mgrwt>
</event>
<event>
 4    1  0.3704929E-001  0.4188500E+02  0.7818608E-02  0.1494781E+00
          2   -1    0    0  501    0  0.00000000000E+00  0.00000000000E+00  0.33992680641E+02  0.33992680740E+02  0.26000000000E-02 0.  1.
         -2   -1    0    0    0  501 -0.00000000000E+00 -0.00000000000E+00 -0.12902433142E+02  0.12902433404E+02  0.26000000000E-02 0. -1.
        -13    1    1    2    0    0  0.10494220800E+02  0.17488316612E+02  0.15868569430E+02  0.25841682537E+02  0.10570000000E+00 0. -1.
         13    1    1    2    0    0 -0.10494220800E+02 -0.17488316612E+02  0.52216780685E+01  0.21053431607E+02  0.10570000000E+00 0.  1.
<mgrwt>
<rscale>  0 0.41885000E+02</rscale>
<asrwt>0</asrwt>
<pdfrwt beam="1">  1        2 0.52296432E-02 0.41885000E+02</pdfrwt>
<pdfrwt beam="2">  1       -2 0.19849897E-02 0.41885000E+02</pdfrwt>
<totfact> 0.75497424E+05</totfact>
</mgrwt>
</event>
<event>
 4    1  0.3704929E-001  0.8586426E+02  0.7818608E-02  0.1313188E+00
         -2   -1    0    0    0  501 -0.00000000000E+00  0.00000000000E+00  0.24115734290E+02  0.24115734431E+02  0.26000000000E-02 0.  1.
          2   -1    0    0  501    0  0.00000000000E+00 -0.00000000000E+00 -0.76430100078E+02  0.76430100123E+02  0.26000000000E-02 0. -1.
        -13    1    1    2    0    0 -0.42080725999E+02 -0.58624869032E+01 -0.33375678156E+02  0.54028726786E+02  0.10570000000E+00 0.  1.
         13    1    1    2    0    0  0.42080725999E+02  0.58624869032E+01 -0.18938687632E+02  0.46517107767E+02  0.10570000000E+00 0. -1.
<mgrwt>
<rscale>  0 0.85864265E+02</rscale>
<asrwt>0</asrwt>
<pdfrwt beam="2">  1        2 0.11758477E-01 0.85864265E+02</pdfrwt>
<pdfrwt beam="1">  1       -2 0.37101130E-02 0.85864265E+02</pdfrwt>
<totfact> 0.13388260E+05</totfact>
</mgrwt>
</event>
<event>
 4    1  0.3704929E-001  0.2440991E+02  0.7818608E-02  0.1669625E+00
          2   -1    0    0  501    0  0.00000000000E+00  0.00000000000E+00  0.16419713767E+02  0.16419713973E+02  0.26000000000E-02 0. -1.
         -2   -1    0    0    0  501 -0.00000000000E+00 -0.00000000000E+00 -0.90720780812E+01  0.90720784538E+01  0.26000000000E-02 0.  1.
        -13    1    1    2    0    0  0.53545369795E+01  0.10286985160E+02  0.76445237677E+01  0.13890394021E+02  0.10570000000E+00 0.  1.
         13    1    1    2    0    0 -0.53545369795E+01 -0.10286985160E+02 -0.29688808163E+00  0.11601398406E+02  0.10570000000E+00 0. -1.
<mgrwt>
<rscale>  0 0.24409911E+02</rscale>
<asrwt>0</asrwt>
<pdfrwt beam="1">  1        2 0.25261099E-02 0.24409911E+02</pdfrwt>
<pdfrwt beam="2">  1       -2 0.13957044E-02 0.24409911E+02</pdfrwt>
<totfact> 0.25888717E+06</totfact>
</mgrwt>
</event>
<event>
 4    1  0.3704929E-001  0.5255787E+02  0.7818608E-02  0.1432014E+00
          2   -1    0    0  501    0  0.00000000000E+00  0.00000000000E+00  0.11578008043E+03  0.11578008046E+03  0.26000000000E-02 0. -1.
         -2   -1    0    0    0  501 -0.00000000000E+00 -0.00000000000E+00 -0.59646052439E+01  0.59646058106E+01  0.26000000000E-02 0.  1.
        -13    1    1    2    0    0 -0.19185553056E+02 -0.21270047063E+01  0.96212456047E+02  0.98129799074E+02  0.10570000000E+00 0. -1.
         13    1    1    2    0    0  0.19185553056E+02  0.21270047063E+01  0.13603019137E+02  0.23614887195E+02  0.10570000000E+00 0.  1.
<mgrwt>
<rscale>  0 0.52557873E+02</rscale>
<asrwt>0</asrwt>
<pdfrwt beam="1">  1        2 0.17812320E-01 0.52557873E+02</pdfrwt>
<pdfrwt beam="2">  1       -2 0.91763163E-03 0.52557873E+02</pdfrwt>
<totfact> 0.54881256E+05</totfact>
</mgrwt>
</event>
<event>
 4    1  0.3704929E-001  0.2274139E+02  0.7818608E-02  0.1695737E+00
         -2   -1    0    0    0  501 -0.00000000000E+00  0.00000000000E+00  0.19968125857E+02  0.19968126026E+02  0.26000000000E-02 0. -1.
          2   -1    0    0  501    0  0.00000000000E+00 -0.00000000000E+00 -0.64749514138E+01  0.64749519359E+01  0.26000000000E-02 0.  1.
        -13    1    1    2    0    0  0.19316505215E+01  0.98812596170E+01  0.60356438253E+00  0.10086923605E+02  0.10570000000E+00 0.  1.
         13    1    1    2    0    0 -0.19316505215E+01 -0.98812596170E+01  0.12889610061E+02  0.16356154357E+02  0.10570000000E+00 0. -1.
<mgrwt>
<rscale>  0 0.22741386E+02</rscale>
<asrwt>0</asrwt>
<pdfrwt beam="2">  1        2 0.99614644E-03 0.22741386E+02</pdfrwt>
<pdfrwt beam="1">  1       -2 0.30720194E-02 0.22741386E+02</pdfrwt>
<totfact> 0.28256822E+06</totfact>
</mgrwt>
</event>
<event>
 4    1  0.3704929E-001  0.2435415E+02  0.7818608E-02  0.1670456E+00
          2   -1    0    0  501    0  0.00000000000E+00  0.00000000000E+00  0.55707465466E+01  0.55707471534E+01  0.26000000000E-02 0. -1.
         -2   -1    0    0    0  501 -0.00000000000E+00 -0.00000000000E+00 -0.26617820058E+02  0.26617820185E+02  0.26000000000E-02 0.  1.
        -13    1    1    2    0    0 -0.31558406435E+01 -0.11088921360E+02 -0.15701188282E+02  0.19479784215E+02  0.10570000000E+00 0. -1.
         13    1    1    2    0    0  0.31558406435E+01  0.11088921360E+02 -0.53458852292E+01  0.12708783123E+02  0.10570000000E+00 0.  1.
<mgrwt>
<rscale>  0 0.24354149E+02</rscale>
<asrwt>0</asrwt>
<pdfrwt beam="1">  1        2 0.85703800E-03 0.24354149E+02</pdfrwt>
<pdfrwt beam="2">  1       -2 0.40950492E-02 0.24354149E+02</pdfrwt>
<totfact> 0.23622962E+06</totfact>
</mgrwt>
</event>
<event>
 4    1  0.3704929E-001  0.4304484E+02  0.7818608E-02  0.1486930E+00
         -2   -1    0    0    0  501 -0.00000000000E+00  0.00000000000E+00  0.82971907388E+01  0.82971911462E+01  0.26000000000E-02 0. -1.
          2   -1    0    0  501    0  0.00000000000E+00 -0.00000000000E+00 -0.55827868942E+02  0.55827869002E+02  0.26000000000E-02 0.  1.
        -13    1    1    2    0    0  0.10218067660E+02  0.18916252660E+02 -0.22298280637E+02  0.30975119262E+02  0.10570000000E+00 0.  1.
         13    1    1    2    0    0 -0.10218067660E+02 -0.18916252660E+02 -0.25232397566E+02  0.33149940887E+02  0.10570000000E+00 0. -1.
<mgrwt>
<rscale>  0 0.43044837E+02</rscale>
<asrwt>0</asrwt>
<pdfrwt beam="2">  1        2 0.85889027E-02 0.43044837E+02</pdfrwt>
<pdfrwt beam="1">  1       -2 0.12764910E-02 0.43044837E+02</pdfrwt>
<totfact> 0.76652954E+05</totfact>
</mgrwt>
</event>
<event>
 4    1  0.3704929E-001  0.2278478E+02  0.7818608E-02  0.1695023E+00
         -2   -1    0    0    0  501 -0.00000000000E+00  0.00000000000E+00  0.34577721182E+02  0.34577721280E+02  0.26000000000E-02 0. -1.
          2   -1    0    0  501    0  0.00000000000E+00 -0.00000000000E+00 -0.37534715829E+01  0.37534724834E+01  0.26000000000E-02 0.  1.
        -13    1    1    2    0    0 -0.89497998136E+00  0.11346230237E+02  0.14592419470E+02  0.18506426134E+02  0.10570000000E+00 0. -1.
         13    1    1    2    0    0  0.89497998136E+00 -0.11346230237E+02  0.16231830129E+02  0.19824767630E+02  0.10570000000E+00 0.  1.
<mgrwt>
<rscale>  0 0.22784777E+02</rscale>
<asrwt>0</asrwt>
<pdfrwt beam="2">  1        2 0.57745727E-03 0.22784777E+02</pdfrwt>
<pdfrwt beam="1">  1       -2 0.53196492E-02 0.22784777E+02</pdfrwt>
<totfact> 0.26647643E+06</totfact>
</mgrwt>
</event>
<event>
 4    1  0.3704929E-001  0.2522707E+02  0.7818608E-02  0.1657762E+00
          2   -1    0    0  501    0  0.00000000000E+00  0.00000000000E+00  0.26149951092E+02  0.26149951221E+02  0.26000000000E-02 0.  1.
         -2   -1    0    0    0  501 -0.00000000000E+00 -0.00000000000E+00 -0.60841901482E+01  0.60841907037E+01  0.26000000000E-02 0. -1.
        -13    1    1    2    0    0  0.12222668058E+02  0.20920452143E+01  0.70857538767E+01  0.14282483962E+02  0.10570000000E+00 0. -1.
         13    1    1    2    0    0 -0.12222668058E+02 -0.20920452143E+01  0.12980007067E+02  0.17951657962E+02  0.10570000000E+00 0.  1.
<mgrwt>
<rscale>  0 0.25227072E+02</rscale>
<asrwt>0</asrwt>
<pdfrwt beam="1">  1        2 0.40230694E-02 0.25227072E+02</pdfrwt>
<pdfrwt beam="2">  1       -2 0.93602931E-03 0.25227072E+02</pdfrwt>
<totfact> 0.25093258E+06</totfact>
</mgrwt>
</event>
<event>
 4    1  0.3704929E-001  0.5494822E+02  0.7818608E-02  0.1420344E+00
         -2   -1    0    0    0  501 -0.00000000000E+00  0.00000000000E+00  0.29118260828E+01  0.29118272436E+01  0.26000000000E-02 0. -1.
          2   -1    0    0  501    0  0.00000000000E+00 -0.00000000000E+00 -0.25922792277E+03  0.25922792278E+03  0.26000000000E-02 0.  1.
        -13    1    1    2    0    0 -0.94753145364E+01  0.25687643435E+02 -0.11730124220E+03  0.12045426188E+03  0.10570000000E+00 0. -1.
         13    1    1    2    0    0  0.94753145364E+01 -0.25687643435E+02 -0.13901485448E+03  0.14168548814E+03  0.10570000000E+00 0.  1.
<mgrwt>
<rscale>  0 0.54948222E+02</rscale>
<asrwt>0</asrwt>
<pdfrwt beam="2">  1        2 0.39881201E-01 0.54948222E+02</pdfrwt>
<pdfrwt beam="1">  1       -2 0.44797354E-03 0.54948222E+02</pdfrwt>
<totfact> 0.63445921E+05</totfact>
</mgrwt>
</event>
<event>
 4    1  0.3704929E-001  0.2580996E+02  0.7818608E-02  0.1649634E+00
          2   -1    0    0  501    0  0.00000000000E+00  0.00000000000E+00  0.46340737250E+02  0.46340737323E+02  0.26000000000E-02 0. -1.
         -2   -1    0    0    0  501 -0.00000000000E+00 -0.00000000000E+00 -0.35937810698E+01  0.35937820103E+01  0.26000000000E-02 0.  1.
        -13    1    1    2    0    0  0.14145201260E+01 -0.12826257390E+02  0.21148093731E+02  0.24774317080E+02  0.10570000000E+00 0. -1.
         13    1    1    2    0    0 -0.14145201260E+01  0.12826257390E+02  0.21598862450E+02  0.25160202254E+02  0.10570000000E+00 0.  1.
<mgrwt>
<rscale>  0 0.25809959E+02</rscale>
<asrwt>0</asrwt>
<pdfrwt beam="1">  1        2 0.71293436E-02 0.25809959E+02</pdfrwt>
<pdfrwt beam="2">  1       -2 0.55288952E-03 0.25809959E+02</pdfrwt>
<totfact> 0.25607821E+06</totfact>
</mgrwt>
</event>
<event>
 4    1  0.3704929E-001  0.4724014E+02  0.7818608E-02  0.1460823E+00
          2   -1    0    0  501    0  0.00000000000E+00  0.00000000000E+00  0.15564787037E+02  0.15564787254E+02  0.26000000000E-02 0. -1.
         -2   -1    0    0    0  501 -0.00000000000E+00 -0.00000000000E+00 -0.35844224768E+02  0.35844224862E+02  0.26000000000E-02 0.  1.
        -13    1    1    2    0    0  0.21417707811E+02 -0.41252001436E+01 -0.27553559468E+00  0.21813357752E+02  0.10570000000E+00 0. -1.
         13    1    1    2    0    0 -0.21417707811E+02  0.41252001436E+01 -0.20003902136E+02  0.29595654364E+02  0.10570000000E+00 0.  1.
<mgrwt>
<rscale>  0 0.47240141E+02</rscale>
<asrwt>0</asrwt>
<pdfrwt beam="1">  1        2 0.23945827E-02 0.47240141E+02</pdfrwt>
<pdfrwt beam="2">  1       -2 0.55144961E-02 0.47240141E+02</pdfrwt>
<totfact> 0.49284206E+05</totfact>
</mgrwt>
</event>
<event>
 4    1  0.3704929E-001  0.2882364E+02  0.7818608E-02  0.1611468E+00
          2   -1    0    0  501    0  0.00000000000E+00  0.00000000000E+00  0.15315511560E+02  0.15315511780E+02  0.26000000000E-02 0.  1.
         -2   -1    0    0    0  501 -0.00000000000E+00 -0.00000000000E+00 -0.13561447267E+02  0.13561447516E+02  0.26000000000E-02 0. -1.
        -13    1    1    2    0    0 -0.10994382137E+02  0.48469037089E+01  0.88491660843E+01  0.14922728538E+02  0.10570000000E+00 0.  1.
         13    1    1    2    0    0  0.10994382137E+02 -0.48469037089E+01 -0.70951017913E+01  0.13954230759E+02  0.10570000000E+00 0. -1.
<mgrwt>
<rscale>  0 0.28823637E+02</rscale>
<asrwt>0</asrwt>
<pdfrwt beam="1">  1        2 0.23562326E-02 0.28823637E+02</pdfrwt>
<pdfrwt beam="2">  1       -2 0.20863766E-02 0.28823637E+02</pdfrwt>
<totfact> 0.17294823E+06</totfact>
</mgrwt>
</event>
<event>
 4    1  0.3704929E-001  0.2639841E+02  0.7818608E-02  0.1641692E+00
         -2   -1    0    0    0  501 -0.00000000000E+00  0.00000000000E+00  0.35060842578E+02  0.35060842675E+02  0.26000000000E-02 0. -1.
          2   -1    0    0  501    0  0.00000000000E+00 -0.00000000000E+00 -0.49690462716E+01  0.49690469518E+01  0.26000000000E-02 0.  1.
        -13    1    1    2    0    0  0.24014516574E+01  0.10451420686E+02  0.33778239995E+01  0.11243666301E+02  0.10570000000E+00 0.  1.
         13    1    1    2    0    0 -0.24014516574E+01 -0.10451420686E+02  0.26713972307E+02  0.28786223325E+02  0.10570000000E+00 0. -1.
<mgrwt>
<rscale>  0 0.26398406E+02</rscale>
<asrwt>0</asrwt>
<pdfrwt beam="2">  1        2 0.76446870E-03 0.26398406E+02</pdfrwt>
<pdfrwt beam="1">  1       -2 0.53939759E-02 0.26398406E+02</pdfrwt>
<totfact> 0.19117263E+06</totfact>
</mgrwt>
</event>
<event>
 4    1  0.3704929E-001  0.2340328E+02  0.7818608E-02  0.1685055E+00
          2   -1    0    0  501    0  0.00000000000E+00  0.00000000000E+00  0.16205178507E+01  0.16205199365E+01  0.26000000000E-02 0. -1.
         -2   -1    0    0    0  501 -0.00000000000E+00 -0.00000000000E+00 -0.84496647027E+02  0.84496647067E+02  0.26000000000E-02 0.  1.
        -13    1    1    2    0    0  0.29000681857E+01 -0.11184498053E+02 -0.48236911644E+02  0.49601554508E+02  0.10570000000E+00 0. -1.
         13    1    1    2    0    0 -0.29000681857E+01  0.11184498053E+02 -0.34639217532E+02  0.36515612495E+02  0.10570000000E+00 0.  1.
<mgrwt>
<rscale>  0 0.23403283E+02</rscale>
<asrwt>0</asrwt>
<pdfrwt beam="1">  1        2 0.24931067E-03 0.23403283E+02</pdfrwt>
<pdfrwt beam="2">  1       -2 0.12999481E-01 0.23403283E+02</pdfrwt>
<totfact> 0.21829095E+06</totfact>
</mgrwt>
</event>
<event>
 4    1  0.3704929E-001  0.2491305E+02  0.7818608E-02  0.1662254E+00
         -2   -1    0    0    0  501 -0.00000000000E+00  0.00000000000E+00  0.41197708805E+01  0.41197717009E+01  0.26000000000E-02 0. -1.
          2   -1    0    0  501    0  0.00000000000E+00 -0.00000000000E+00 -0.37663493358E+02  0.37663493448E+02  0.26000000000E-02 0.  1.
        -13    1    1    2    0    0  0.28360004630E+01 -0.10743853009E+02 -0.73318662187E+01  0.13313178090E+02  0.10570000000E+00 0. -1.
         13    1    1    2    0    0 -0.28360004630E+01  0.10743853009E+02 -0.26211856259E+02  0.28470087059E+02  0.10570000000E+00 0.  1.
<mgrwt>
<rscale>  0 0.24913047E+02</rscale>
<asrwt>0</asrwt>
<pdfrwt beam="2">  1        2 0.57943835E-02 0.24913047E+02</pdfrwt>
<pdfrwt beam="1">  1       -2 0.63381100E-03 0.24913047E+02</pdfrwt>
<totfact> 0.26998403E+06</totfact>
</mgrwt>
</event>
<event>
 4    1  0.3704929E-001  0.9084661E+02  0.7818608E-02  0.1300814E+00
         -2   -1    0    0    0  501 -0.00000000000E+00  0.00000000000E+00  0.43655277356E+02  0.43655277433E+02  0.26000000000E-02 0. -1.
          2   -1    0    0  501    0  0.00000000000E+00 -0.00000000000E+00 -0.47262933635E+02  0.47262933706E+02  0.26000000000E-02 0.  1.
        -13    1    1    2    0    0  0.21426395673E+02 -0.11862044496E+01 -0.41869965587E+02  0.47048939449E+02  0.10570000000E+00 0.  1.
         13    1    1    2    0    0 -0.21426395673E+02  0.11862044496E+01  0.38262309308E+02  0.43869271690E+02  0.10570000000E+00 0. -1.
<mgrwt>
<rscale>  0 0.90846607E+02</rscale>
<asrwt>0</asrwt>
<pdfrwt beam="2">  1        2 0.72712206E-02 0.90846607E+02</pdfrwt>
<pdfrwt beam="1">  1       -2 0.67161965E-02 0.90846607E+02</pdfrwt>
<totfact> 0.10064345E+05</totfact>
</mgrwt>
</event>
<event>
 4    1  0.3704929E-001  0.2518635E+02  0.7818608E-02  0.1658340E+00
         -2   -1    0    0    0  501 -0.00000000000E+00  0.00000000000E+00  0.43419337853E+01  0.43419345637E+01  0.26000000000E-02 0. -1.
          2   -1    0    0  501    0  0.00000000000E+00 -0.00000000000E+00 -0.36524751340E+02  0.36524751433E+02  0.26000000000E-02 0.  1.
        -13    1    1    2    0    0 -0.43484730722E+01  0.11421424134E+02 -0.11164889530E+02  0.16553672645E+02  0.10570000000E+00 0. -1.
         13    1    1    2    0    0  0.43484730722E+01 -0.11421424134E+02 -0.21017928025E+02  0.24313013352E+02  0.10570000000E+00 0.  1.
<mgrwt>
<rscale>  0 0.25186351E+02</rscale>
<asrwt>0</asrwt>
<pdfrwt beam="2">  1        2 0.56191924E-02 0.25186351E+02</pdfrwt>
<pdfrwt beam="1">  1       -2 0.66798991E-03 0.25186351E+02</pdfrwt>
<totfact> 0.26215114E+06</totfact>
</mgrwt>
</event>
<event>
 4    1  0.3704929E-001  0.2850556E+02  0.7818608E-02  0.1615220E+00
          2   -1    0    0  501    0  0.00000000000E+00  0.00000000000E+00  0.13936956343E+02  0.13936956586E+02  0.26000000000E-02 0.  1.
         -2   -1    0    0    0  501 -0.00000000000E+00 -0.00000000000E+00 -0.14575759476E+02  0.14575759708E+02  0.26000000000E-02 0. -1.
        -13    1    1    2    0    0 -0.10151943436E+02 -0.32240572474E+01  0.91526146513E+01  0.14044145688E+02  0.10570000000E+00 0.  1.
         13    1    1    2    0    0  0.10151943436E+02  0.32240572474E+01 -0.97914177840E+01  0.14468570606E+02  0.10570000000E+00 0. -1.
<mgrwt>
<rscale>  0 0.28505559E+02</rscale>
<asrwt>0</asrwt>
<pdfrwt beam="1">  1        2 0.21441471E-02 0.28505559E+02</pdfrwt>
<pdfrwt beam="2">  1       -2 0.22424246E-02 0.28505559E+02</pdfrwt>
<totfact> 0.17601626E+06</totfact>
</mgrwt>
</event>
<event>
 4    1  0.3704929E-001  0.2426977E+02  0.7818608E-02  0.1671717E+00
          2   -1    0    0  501    0  0.00000000000E+00  0.00000000000E+00  0.20092189141E+02  0.20092189309E+02  0.26000000000E-02 0. -1.
         -2   -1    0    0    0  501 -0.00000000000E+00 -0.00000000000E+00 -0.73289882471E+01  0.73289887083E+01  0.26000000000E-02 0.  1.
        -13    1    1    2    0    0  0.26348085761E+01 -0.11839987967E+02  0.59955904514E+01  0.13530920465E+02  0.10570000000E+00 0.  1.
         13    1    1    2    0    0 -0.26348085761E+01  0.11839987967E+02  0.67676104426E+01  0.13890257552E+02  0.10570000000E+00 0. -1.
<mgrwt>
<rscale>  0 0.24269769E+02</rscale>
<asrwt>0</asrwt>
<pdfrwt beam="1">  1        2 0.30911061E-02 0.24269769E+02</pdfrwt>
<pdfrwt beam="2">  1       -2 0.11275367E-02 0.24269769E+02</pdfrwt>
<totfact> 0.26738243E+06</totfact>
</mgrwt>
</event>
<event>
 4    1  0.3704929E-001  0.2642478E+02  0.7818608E-02  0.1641342E+00
         -2   -1    0    0    0  501 -0.00000000000E+00  0.00000000000E+00  0.93739145423E+01  0.93739149029E+01  0.26000000000E-02 0. -1.
          2   -1    0    0  501    0  0.00000000000E+00 -0.00000000000E+00 -0.18622655691E+02  0.18622655872E+02  0.26000000000E-02 0.  1.
        -13    1    1    2    0    0  0.77893126120E+01  0.99760503518E+01 -0.60936108235E+00  0.12671916390E+02  0.10570000000E+00 0. -1.
         13    1    1    2    0    0 -0.77893126120E+01 -0.99760503518E+01 -0.86393800659E+01  0.15324654384E+02  0.10570000000E+00 0.  1.
<mgrwt>
<rscale>  0 0.26424776E+02</rscale>
<asrwt>0</asrwt>
<pdfrwt beam="2">  1        2 0.28650240E-02 0.26424776E+02</pdfrwt>
<pdfrwt beam="1">  1       -2 0.14421407E-02 0.26424776E+02</pdfrwt>
<totfact> 0.21718669E+06</totfact>
</mgrwt>
</event>
<event>
 4    1  0.3704929E-001  0.2785890E+02  0.7818608E-02  0.1623038E+00
         -2   -1    0    0    0  501 -0.00000000000E+00  0.00000000000E+00  0.23942874318E+02  0.23942874459E+02  0.26000000000E-02 0.  1.
          2   -1    0    0  501    0  0.00000000000E+00 -0.00000000000E+00 -0.81038566175E+01  0.81038570345E+01  0.26000000000E-02 0. -1.
        -13    1    1    2    0    0  0.81574160047E+01 -0.11290292211E+02  0.78438769608E+01  0.15985984873E+02  0.10570000000E+00 0. -1.
         13    1    1    2    0    0 -0.81574160047E+01  0.11290292211E+02  0.79951407393E+01  0.16060746621E+02  0.10570000000E+00 0.  1.
<mgrwt>
<rscale>  0 0.27858904E+02</rscale>
<asrwt>0</asrwt>
<pdfrwt beam="2">  1        2 0.12467472E-02 0.27858904E+02</pdfrwt>
<pdfrwt beam="1">  1       -2 0.36835192E-02 0.27858904E+02</pdfrwt>
<totfact> 0.17644909E+06</totfact>
</mgrwt>
</event>
<event>
 4    1  0.3704929E-001  0.2440987E+02  0.7818608E-02  0.1669626E+00
          2   -1    0    0  501    0  0.00000000000E+00  0.00000000000E+00  0.23274202192E+02  0.23274202337E+02  0.26000000000E-02 0.  1.
         -2   -1    0    0    0  501 -0.00000000000E+00 -0.00000000000E+00 -0.64002371633E+01  0.64002376914E+01  0.26000000000E-02 0. -1.
        -13    1    1    2    0    0  0.11499691769E+02  0.17898139902E+01  0.12904134368E+02  0.17377404904E+02  0.10570000000E+00 0.  1.
         13    1    1    2    0    0 -0.11499691769E+02 -0.17898139902E+01  0.39698306606E+01  0.12297035125E+02  0.10570000000E+00 0. -1.
<mgrwt>
<rscale>  0 0.24409869E+02</rscale>
<asrwt>0</asrwt>
<pdfrwt beam="1">  1        2 0.35806465E-02 0.24409869E+02</pdfrwt>
<pdfrwt beam="2">  1       -2 0.98465192E-03 0.24409869E+02</pdfrwt>
<totfact> 0.26769726E+06</totfact>
</mgrwt>
</event>
<event>
 4    1  0.3704929E-001  0.5098472E+02  0.7818608E-02  0.1440101E+00
         -2   -1    0    0    0  501 -0.00000000000E+00  0.00000000000E+00  0.23650134838E+02  0.23650134981E+02  0.26000000000E-02 0. -1.
          2   -1    0    0  501    0  0.00000000000E+00 -0.00000000000E+00 -0.27478086737E+02  0.27478086860E+02  0.26000000000E-02 0.  1.
        -13    1    1    2    0    0  0.11932821151E+02 -0.80467613242E-01 -0.24504042919E+02  0.27255421250E+02  0.10570000000E+00 0.  1.
         13    1    1    2    0    0 -0.11932821151E+02  0.80467613242E-01  0.20676091020E+02  0.23872800591E+02  0.10570000000E+00 0. -1.
<mgrwt>
<rscale>  0 0.50984722E+02</rscale>
<asrwt>0</asrwt>
<pdfrwt beam="2">  1        2 0.42273980E-02 0.50984722E+02</pdfrwt>
<pdfrwt beam="1">  1       -2 0.36384823E-02 0.50984722E+02</pdfrwt>
<totfact> 0.43974777E+05</totfact>
</mgrwt>
</event>
<event>
 4    1  0.3704929E-001  0.2411987E+02  0.7818608E-02  0.1673975E+00
          2   -1    0    0  501    0  0.00000000000E+00  0.00000000000E+00  0.18839575828E+01  0.18839593769E+01  0.26000000000E-02 0.  1.
         -2   -1    0    0    0  501 -0.00000000000E+00 -0.00000000000E+00 -0.77200214728E+02  0.77200214772E+02  0.26000000000E-02 0. -1.
        -13    1    1    2    0    0  0.97854281606E+01  0.28433315713E+01 -0.58803628451E+02  0.59680122572E+02  0.10570000000E+00 0. -1.
         13    1    1    2    0    0 -0.97854281606E+01 -0.28433315713E+01 -0.16512628695E+02  0.19404051577E+02  0.10570000000E+00 0.  1.
<mgrwt>
<rscale>  0 0.24119868E+02</rscale>
<asrwt>0</asrwt>
<pdfrwt beam="1">  1        2 0.28983983E-03 0.24119868E+02</pdfrwt>
<pdfrwt beam="2">  1       -2 0.11876954E-01 0.24119868E+02</pdfrwt>
<totfact> 0.20783593E+06</totfact>
</mgrwt>
</event>
<event>
 4    1  0.3704929E-001  0.6258555E+02  0.7818608E-02  0.1387291E+00
         -2   -1    0    0    0  501 -0.00000000000E+00  0.00000000000E+00  0.11457043333E+02  0.11457043628E+02  0.26000000000E-02 0.  1.
          2   -1    0    0  501    0  0.00000000000E+00 -0.00000000000E+00 -0.85470384109E+02  0.85470384148E+02  0.26000000000E-02 0. -1.
        -13    1    1    2    0    0  0.18945159094E+02 -0.19557385529E+02 -0.60889921406E+02  0.66700855190E+02  0.10570000000E+00 0. -1.
         13    1    1    2    0    0 -0.18945159094E+02  0.19557385529E+02 -0.13123419370E+02  0.30226572586E+02  0.10570000000E+00 0.  1.
<mgrwt>
<rscale>  0 0.62585555E+02</rscale>
<asrwt>0</asrwt>
<pdfrwt beam="2">  1        2 0.13149289E-01 0.62585555E+02</pdfrwt>
<pdfrwt beam="1">  1       -2 0.17626221E-02 0.62585555E+02</pdfrwt>
<totfact> 0.32252300E+05</totfact>
</mgrwt>
</event>
<event>
 4    1  0.3704929E-001  0.2898377E+02  0.7818608E-02  0.1609601E+00
         -2   -1    0    0    0  501 -0.00000000000E+00  0.00000000000E+00  0.13981441779E+02  0.13981442021E+02  0.26000000000E-02 0. -1.
          2   -1    0    0  501    0  0.00000000000E+00 -0.00000000000E+00 -0.15020958350E+02  0.15020958575E+02  0.26000000000E-02 0.  1.
        -13    1    1    2    0    0 -0.10234056920E+02 -0.99495239635E+01  0.19867556117E+01  0.14411360744E+02  0.10570000000E+00 0.  1.
         13    1    1    2    0    0  0.10234056920E+02  0.99495239635E+01 -0.30262721823E+01  0.14591039852E+02  0.10570000000E+00 0. -1.
<mgrwt>
<rscale>  0 0.28983765E+02</rscale>
<asrwt>0</asrwt>
<pdfrwt beam="2">  1        2 0.23109167E-02 0.28983765E+02</pdfrwt>
<pdfrwt beam="1">  1       -2 0.21509911E-02 0.28983765E+02</pdfrwt>
<totfact> 0.17030933E+06</totfact>
</mgrwt>
</event>
<event>
 4    1  0.3704929E-001  0.5354891E+02  0.7818608E-02  0.1427088E+00
          2   -1    0    0  501    0  0.00000000000E+00  0.00000000000E+00  0.97072956789E+02  0.97072956823E+02  0.26000000000E-02 0. -1.
         -2   -1    0    0    0  501 -0.00000000000E+00 -0.00000000000E+00 -0.73848737115E+01  0.73848741692E+01  0.26000000000E-02 0.  1.
        -13    1    1    2    0    0  0.18029187767E+02  0.17036034351E+02  0.25183324177E+02  0.35348112637E+02  0.10570000000E+00 0. -1.
         13    1    1    2    0    0 -0.18029187767E+02 -0.17036034351E+02  0.64504758900E+02  0.69109718355E+02  0.10570000000E+00 0.  1.
<mgrwt>
<rscale>  0 0.53548914E+02</rscale>
<asrwt>0</asrwt>
<pdfrwt beam="1">  1        2 0.14934301E-01 0.53548914E+02</pdfrwt>
<pdfrwt beam="2">  1       -2 0.11361345E-02 0.53548914E+02</pdfrwt>
<totfact> 0.49898628E+05</totfact>
</mgrwt>
</event>
<event>
 4    1  0.3704929E-001  0.1622338E+03  0.7818608E-02  0.1186198E+00
          2   -1    0    0  501    0  0.00000000000E+00  0.00000000000E+00  0.28693882162E+02  0.28693882280E+02  0.26000000000E-02 0. -1.
         -2   -1    0    0    0  501 -0.00000000000E+00 -0.00000000000E+00 -0.22931536798E+03  0.22931536799E+03  0.26000000000E-02 0.  1.
        -13    1    1    2    0    0  0.19590642751E+01 -0.81061943117E+02 -0.96733173699E+02  0.12622279755E+03  0.10570000000E+00 0.  1.
         13    1    1    2    0    0 -0.19590642751E+01  0.81061943117E+02 -0.10388831212E+03  0.13178645272E+03  0.10570000000E+00 0. -1.
<mgrwt>
<rscale>  0 0.16223376E+03</rscale>
<asrwt>0</asrwt>
<pdfrwt beam="1">  1        2 0.44144436E-02 0.16223376E+03</pdfrwt>
<pdfrwt beam="2">  1       -2 0.35279286E-01 0.16223376E+03</pdfrwt>
<totfact> 0.13326895E+04</totfact>
</mgrwt>
</event>
<event>
 4    1  0.3704929E-001  0.3551075E+02  0.7818608E-02  0.1544111E+00
         -2   -1    0    0    0  501 -0.00000000000E+00  0.00000000000E+00  0.14954496134E+03  0.14954496137E+03  0.26000000000E-02 0. -1.
          2   -1    0    0  501    0  0.00000000000E+00 -0.00000000000E+00 -0.21080835831E+01  0.21080851864E+01  0.26000000000E-02 0.  1.
        -13    1    1    2    0    0  0.16822253836E+02 -0.38442903990E+01  0.55865683168E+02  0.58470099376E+02  0.10570000000E+00 0.  1.
         13    1    1    2    0    0 -0.16822253836E+02  0.38442903990E+01  0.91571194594E+02  0.93182947177E+02  0.10570000000E+00 0. -1.
<mgrwt>
<rscale>  0 0.35510753E+02</rscale>
<asrwt>0</asrwt>
<pdfrwt beam="2">  1        2 0.32432059E-03 0.35510753E+02</pdfrwt>
<pdfrwt beam="1">  1       -2 0.23006924E-01 0.35510753E+02</pdfrwt>
<totfact> 0.71686638E+05</totfact>
</mgrwt>
</event>
<event>
 4    1  0.3704929E-001  0.2230289E+02  0.7818608E-02  0.1703066E+00
          2   -1    0    0  501    0  0.00000000000E+00  0.00000000000E+00  0.40256005007E+02  0.40256005091E+02  0.26000000000E-02 0.  1.
         -2   -1    0    0    0  501 -0.00000000000E+00 -0.00000000000E+00 -0.30890979183E+01  0.30890990125E+01  0.26000000000E-02 0. -1.
        -13    1    1    2    0    0 -0.81420318046E+01 -0.59616264252E+01  0.27804194864E+02  0.29579014454E+02  0.10570000000E+00 0.  1.
         13    1    1    2    0    0  0.81420318046E+01  0.59616264252E+01  0.93627122240E+01  0.13766089649E+02  0.10570000000E+00 0. -1.
<mgrwt>
<rscale>  0 0.22302894E+02</rscale>
<asrwt>0</asrwt>
<pdfrwt beam="1">  1        2 0.61932312E-02 0.22302894E+02</pdfrwt>
<pdfrwt beam="2">  1       -2 0.47524596E-03 0.22302894E+02</pdfrwt>
<totfact> 0.35135325E+06</totfact>
</mgrwt>
</event>
<event>
 4    1  0.3704929E-001  0.4846310E+02  0.7818608E-02  0.1453812E+00
         -2   -1    0    0    0  501 -0.00000000000E+00  0.00000000000E+00  0.61624341907E+01  0.61624347391E+01  0.26000000000E-02 0.  1.
          2   -1    0    0  501    0  0.00000000000E+00 -0.00000000000E+00 -0.95281827912E+02  0.95281827947E+02  0.26000000000E-02 0. -1.
        -13    1    1    2    0    0  0.46516738038E+01 -0.23687076607E+02 -0.48970987489E+02  0.54597476641E+02  0.10570000000E+00 0. -1.
         13    1    1    2    0    0 -0.46516738038E+01  0.23687076607E+02 -0.40148406232E+02  0.46846786046E+02  0.10570000000E+00 0.  1.
<mgrwt>
<rscale>  0 0.48463100E+02</rscale>
<asrwt>0</asrwt>
<pdfrwt beam="2">  1        2 0.14658742E-01 0.48463100E+02</pdfrwt>
<pdfrwt beam="1">  1       -2 0.94806691E-03 0.48463100E+02</pdfrwt>
<totfact> 0.63991515E+05</totfact>
</mgrwt>
</event>
<event>
 4    1  0.3704929E-001  0.9219112E+02  0.7818608E-02  0.1297631E+00
          2   -1    0    0  501    0  0.00000000000E+00  0.00000000000E+00  0.59963291631E+02  0.59963291687E+02  0.26000000000E-02 0. -1.
         -2   -1    0    0    0  501 -0.00000000000E+00 -0.00000000000E+00 -0.35435020184E+02  0.35435020280E+02  0.26000000000E-02 0.  1.
        -13    1    1    2    0    0 -0.17379867216E+01 -0.26614161873E+02 -0.26639717992E+02  0.37696418361E+02  0.10570000000E+00 0.  1.
         13    1    1    2    0    0  0.17379867216E+01  0.26614161873E+02  0.51167989439E+02  0.57701893606E+02  0.10570000000E+00 0. -1.
<mgrwt>
<rscale>  0 0.92191116E+02</rscale>
<asrwt>0</asrwt>
<pdfrwt beam="1">  1        2 0.92251218E-02 0.92191116E+02</pdfrwt>
<pdfrwt beam="2">  1       -2 0.54515416E-02 0.92191116E+02</pdfrwt>
<totfact> 0.10278732E+05</totfact>
</mgrwt>
</event>
<event>
 4    1  0.3704929E-001  0.2270310E+02  0.7818608E-02  0.1696368E+00
          2   -1    0    0  501    0  0.00000000000E+00  0.00000000000E+00  0.14696068962E+02  0.14696069192E+02  0.26000000000E-02 0.  1.
         -2   -1    0    0    0  501 -0.00000000000E+00 -0.00000000000E+00 -0.87681761816E+01  0.87681765671E+01  0.26000000000E-02 0. -1.
        -13    1    1    2    0    0  0.11181829119E+02  0.17178935112E+01  0.39235661594E+01  0.11974556545E+02  0.10570000000E+00 0.  1.
         13    1    1    2    0    0 -0.11181829119E+02 -0.17178935112E+01  0.20043266215E+01  0.11489689215E+02  0.10570000000E+00 0. -1.
<mgrwt>
<rscale>  0 0.22703104E+02</rscale>
<asrwt>0</asrwt>
<pdfrwt beam="1">  1        2 0.22609337E-02 0.22703104E+02</pdfrwt>
<pdfrwt beam="2">  1       -2 0.13489502E-02 0.22703104E+02</pdfrwt>
<totfact> 0.30364828E+06</totfact>
</mgrwt>
</event>
<event>
 4    1  0.3704929E-001  0.4033192E+02  0.7818608E-02  0.1505783E+00
          2   -1    0    0  501    0  0.00000000000E+00  0.00000000000E+00  0.66482479600E+02  0.66482479650E+02  0.26000000000E-02 0. -1.
         -2   -1    0    0    0  501 -0.00000000000E+00 -0.00000000000E+00 -0.61168874498E+01  0.61168880024E+01  0.26000000000E-02 0.  1.
        -13    1    1    2    0    0  0.16262624242E+01  0.17684716730E+02  0.47378739991E+02  0.50597925955E+02  0.10570000000E+00 0. -1.
         13    1    1    2    0    0 -0.16262624242E+01 -0.17684716730E+02  0.12986852159E+02  0.22001441698E+02  0.10570000000E+00 0.  1.
<mgrwt>
<rscale>  0 0.40331916E+02</rscale>
<asrwt>0</asrwt>
<pdfrwt beam="1">  1        2 0.10228074E-01 0.40331916E+02</pdfrwt>
<pdfrwt beam="2">  1       -2 0.94105962E-03 0.40331916E+02</pdfrwt>
<totfact> 0.93310621E+05</totfact>
</mgrwt>
</event>
<event>
 4    1  0.3704929E-001  0.5234129E+02  0.7818608E-02  0.1433107E+00
         -2   -1    0    0    0  501 -0.00000000000E+00  0.00000000000E+00  0.21644677214E+02  0.21644677370E+02  0.26000000000E-02 0. -1.
          2   -1    0    0  501    0  0.00000000000E+00 -0.00000000000E+00 -0.31643001279E+02  0.31643001386E+02  0.26000000000E-02 0.  1.
        -13    1    1    2    0    0  0.10794180194E+02 -0.11379295051E+01 -0.29243225437E+02  0.31192733385E+02  0.10570000000E+00 0.  1.
         13    1    1    2    0    0 -0.10794180194E+02  0.11379295051E+01  0.19244901371E+02  0.22094945370E+02  0.10570000000E+00 0. -1.
<mgrwt>
<rscale>  0 0.52341286E+02</rscale>
<asrwt>0</asrwt>
<pdfrwt beam="2">  1        2 0.48681540E-02 0.52341286E+02</pdfrwt>
<pdfrwt beam="1">  1       -2 0.33299504E-02 0.52341286E+02</pdfrwt>
<totfact> 0.41998780E+05</totfact>
</mgrwt>
</event>
<event>
 4    1  0.3704929E-001  0.3049517E+02  0.7818608E-02  0.1592679E+00
          2   -1    0    0  501    0  0.00000000000E+00  0.00000000000E+00  0.90818238988E+02  0.90818239025E+02  0.26000000000E-02 0. -1.
         -2   -1    0    0    0  501 -0.00000000000E+00 -0.00000000000E+00 -0.25599354897E+01  0.25599368101E+01  0.26000000000E-02 0.  1.
        -13    1    1    2    0    0 -0.84816346934E+01 -0.89810279222E+01  0.16761640431E+02  0.20822121699E+02  0.10570000000E+00 0.  1.
         13    1    1    2    0    0  0.84816346934E+01  0.89810279222E+01  0.71496663068E+02  0.72556054137E+02  0.10570000000E+00 0. -1.
<mgrwt>
<rscale>  0 0.30495173E+02</rscale>
<asrwt>0</asrwt>
<pdfrwt beam="1">  1        2 0.13972034E-01 0.30495173E+02</pdfrwt>
<pdfrwt beam="2">  1       -2 0.39383641E-03 0.30495173E+02</pdfrwt>
<totfact> 0.19651569E+06</totfact>
</mgrwt>
</event>
<event>
 4    1  0.3704929E-001  0.1219836E+03  0.7818608E-02  0.1239860E+00
          2   -1    0    0  501    0  0.00000000000E+00  0.00000000000E+00  0.20180073756E+02  0.20180073923E+02  0.26000000000E-02 0. -1.
         -2   -1    0    0    0  501 -0.00000000000E+00 -0.00000000000E+00 -0.18434019215E+03  0.18434019217E+03  0.26000000000E-02 0.  1.
        -13    1    1    2    0    0  0.22964603342E+02  0.27862174336E+02 -0.16449607634E+03  0.16841212566E+03  0.10570000000E+00 0.  1.
         13    1    1    2    0    0 -0.22964603342E+02 -0.27862174336E+02  0.33595794394E+00  0.36108140434E+02  0.10570000000E+00 0. -1.
<mgrwt>
<rscale>  0 0.12198358E+03</rscale>
<asrwt>0</asrwt>
<pdfrwt beam="1">  1        2 0.31046269E-02 0.12198358E+03</pdfrwt>
<pdfrwt beam="2">  1       -2 0.28360028E-01 0.12198358E+03</pdfrwt>
<totfact> 0.30680481E+04</totfact>
</mgrwt>
</event>
<event>
 4    1  0.3704929E-001  0.9336975E+02  0.7818608E-02  0.1294891E+00
          2   -1    0    0  501    0  0.00000000000E+00  0.00000000000E+00  0.14430825225E+02  0.14430825460E+02  0.26000000000E-02 0. -1.
         -2   -1    0    0    0  501 -0.00000000000E+00 -0.00000000000E+00 -0.15102929379E+03  0.15102929381E+03  0.26000000000E-02 0.  1.
        -13    1    1    2    0    0 -0.18510658422E+02  0.42474863511E+02 -0.78433961518E+02  0.91096959320E+02  0.10570000000E+00 0.  1.
         13    1    1    2    0    0  0.18510658422E+02 -0.42474863511E+02 -0.58164507045E+02  0.74363159950E+02  0.10570000000E+00 0. -1.
<mgrwt>
<rscale>  0 0.93369746E+02</rscale>
<asrwt>0</asrwt>
<pdfrwt beam="1">  1        2 0.22201271E-02 0.93369746E+02</pdfrwt>
<pdfrwt beam="2">  1       -2 0.23235275E-01 0.93369746E+02</pdfrwt>
<totfact> 0.65608516E+04</totfact>
</mgrwt>
</event>
<event>
 4    1  0.3704929E-001  0.2609704E+02  0.7818608E-02  0.1645727E+00
         -2   -1    0    0    0  501 -0.00000000000E+00  0.00000000000E+00  0.24408214237E+01  0.24408228085E+01  0.26000000000E-02 0. -1.
          2   -1    0    0  501    0  0.00000000000E+00 -0.00000000000E+00 -0.69756782658E+02  0.69756782707E+02  0.26000000000E-02 0.  1.
        -13    1    1    2    0    0  0.95961994613E-01  0.12866451581E+02 -0.27661652107E+02  0.30507916264E+02  0.10570000000E+00 0.  1.
         13    1    1    2    0    0 -0.95961994613E-01 -0.12866451581E+02 -0.39654309128E+02  0.41689689251E+02  0.10570000000E+00 0. -1.
<mgrwt>
<rscale>  0 0.26097042E+02</rscale>
<asrwt>0</asrwt>
<pdfrwt beam="2">  1        2 0.10731811E-01 0.26097042E+02</pdfrwt>
<pdfrwt beam="1">  1       -2 0.37551115E-03 0.26097042E+02</pdfrwt>
<totfact> 0.26776003E+06</totfact>
</mgrwt>
</event>
<event>
 4    1  0.3704929E-001  0.2408927E+02  0.7818608E-02  0.1674438E+00
          2   -1    0    0  501    0  0.00000000000E+00  0.00000000000E+00  0.23863583538E+02  0.23863583679E+02  0.26000000000E-02 0.  1.
         -2   -1    0    0    0  501 -0.00000000000E+00 -0.00000000000E+00 -0.60792740937E+01  0.60792746497E+01  0.26000000000E-02 0. -1.
        -13    1    1    2    0    0 -0.10452357701E+02  0.56304649404E+01  0.63727693138E+01  0.13475061342E+02  0.10570000000E+00 0.  1.
         13    1    1    2    0    0  0.10452357701E+02 -0.56304649404E+01  0.11411540130E+02  0.16467796987E+02  0.10570000000E+00 0. -1.
<mgrwt>
<rscale>  0 0.24089274E+02</rscale>
<asrwt>0</asrwt>
<pdfrwt beam="1">  1        2 0.36713206E-02 0.24089274E+02</pdfrwt>
<pdfrwt beam="2">  1       -2 0.93527299E-03 0.24089274E+02</pdfrwt>
<totfact> 0.27677000E+06</totfact>
</mgrwt>
</event>
<event>
 4    1  0.3704929E-001  0.2189126E+02  0.7818608E-02  0.1710139E+00
          2   -1    0    0  501    0  0.00000000000E+00  0.00000000000E+00  0.45401329941E+02  0.45401330015E+02  0.26000000000E-02 0. -1.
         -2   -1    0    0    0  501 -0.00000000000E+00 -0.00000000000E+00 -0.26388377837E+01  0.26388390646E+01  0.26000000000E-02 0.  1.
        -13    1    1    2    0    0 -0.10495423136E+02 -0.24374733580E+01  0.25602674711E+02  0.27777748434E+02  0.10570000000E+00 0. -1.
         13    1    1    2    0    0  0.10495423136E+02  0.24374733580E+01  0.17159817446E+02  0.20262420646E+02  0.10570000000E+00 0.  1.
<mgrwt>
<rscale>  0 0.21891256E+02</rscale>
<asrwt>0</asrwt>
<pdfrwt beam="1">  1        2 0.69848197E-02 0.21891256E+02</pdfrwt>
<pdfrwt beam="2">  1       -2 0.40597517E-03 0.21891256E+02</pdfrwt>
<totfact> 0.37275743E+06</totfact>
</mgrwt>
</event>
<event>
 4    1  0.3704929E-001  0.3431507E+02  0.7818608E-02  0.1554768E+00
         -2   -1    0    0    0  501 -0.00000000000E+00  0.00000000000E+00  0.24447877247E+02  0.24447877385E+02  0.26000000000E-02 0.  1.
          2   -1    0    0  501    0  0.00000000000E+00 -0.00000000000E+00 -0.12041166983E+02  0.12041167264E+02  0.26000000000E-02 0. -1.
        -13    1    1    2    0    0 -0.43252695584E+01 -0.15465327792E+02 -0.21964154918E+00  0.16060626867E+02  0.10570000000E+00 0. -1.
         13    1    1    2    0    0  0.43252695584E+01  0.15465327792E+02  0.12626351813E+02  0.20428417782E+02  0.10570000000E+00 0.  1.
<mgrwt>
<rscale>  0 0.34315068E+02</rscale>
<asrwt>0</asrwt>
<pdfrwt beam="2">  1        2 0.18524873E-02 0.34315068E+02</pdfrwt>
<pdfrwt beam="1">  1       -2 0.37612119E-02 0.34315068E+02</pdfrwt>
<totfact> 0.10941505E+06</totfact>
</mgrwt>
</event>
<event>
 4    1  0.3704929E-001  0.2961376E+02  0.7818608E-02  0.1602398E+00
          2   -1    0    0  501    0  0.00000000000E+00  0.00000000000E+00  0.33385248863E+02  0.33385248964E+02  0.26000000000E-02 0. -1.
         -2   -1    0    0    0  501 -0.00000000000E+00 -0.00000000000E+00 -0.65670805653E+01  0.65670810800E+01  0.26000000000E-02 0.  1.
        -13    1    1    2    0    0 -0.12500983937E+02 -0.52708360439E+01  0.54075593377E+01  0.14605108095E+02  0.10570000000E+00 0.  1.
         13    1    1    2    0    0  0.12500983937E+02  0.52708360439E+01  0.21410608960E+02  0.25347221949E+02  0.10570000000E+00 0. -1.
<mgrwt>
<rscale>  0 0.29613756E+02</rscale>
<asrwt>0</asrwt>
<pdfrwt beam="1">  1        2 0.51361920E-02 0.29613756E+02</pdfrwt>
<pdfrwt beam="2">  1       -2 0.10103202E-02 0.29613756E+02</pdfrwt>
<totfact> 0.17678720E+06</totfact>
</mgrwt>
</event>
<event>
 4    1  0.3704929E-001  0.3324158E+02  0.7818608E-02  0.1564794E+00
         -2   -1    0    0    0  501 -0.00000000000E+00  0.00000000000E+00  0.31139681367E+01  0.31139692221E+01  0.26000000000E-02 0.  1.
          2   -1    0    0  501    0  0.00000000000E+00 -0.00000000000E+00 -0.88713350067E+02  0.88713350105E+02  0.26000000000E-02 0. -1.
        -13    1    1    2    0    0  0.66909338755E+01  0.11126716985E+02 -0.71463348023E+02  0.72633282386E+02  0.10570000000E+00 0. -1.
         13    1    1    2    0    0 -0.66909338755E+01 -0.11126716985E+02 -0.14136033907E+02  0.19194036941E+02  0.10570000000E+00 0.  1.
<mgrwt>
<rscale>  0 0.33241576E+02</rscale>
<asrwt>0</asrwt>
<pdfrwt beam="2">  1        2 0.13648206E-01 0.33241576E+02</pdfrwt>
<pdfrwt beam="1">  1       -2 0.47907218E-03 0.33241576E+02</pdfrwt>
<totfact> 0.15913784E+06</totfact>
</mgrwt>
</event>
<event>
 4    1  0.3704929E-001  0.2821471E+02  0.7818608E-02  0.1618705E+00
          2   -1    0    0  501    0  0.00000000000E+00  0.00000000000E+00  0.20235538312E+02  0.20235538479E+02  0.26000000000E-02 0. -1.
         -2   -1    0    0    0  501 -0.00000000000E+00 -0.00000000000E+00 -0.98350497466E+01  0.98350500902E+01  0.26000000000E-02 0.  1.
        -13    1    1    2    0    0 -0.13406849297E+02 -0.14497180452E+01  0.96153230148E+01  0.16562333762E+02  0.10570000000E+00 0. -1.
         13    1    1    2    0    0  0.13406849297E+02  0.14497180452E+01  0.78516555022E+00  0.13508254807E+02  0.10570000000E+00 0.  1.
<mgrwt>
<rscale>  0 0.28214715E+02</rscale>
<asrwt>0</asrwt>
<pdfrwt beam="1">  1        2 0.31131598E-02 0.28214715E+02</pdfrwt>
<pdfrwt beam="2">  1       -2 0.15130846E-02 0.28214715E+02</pdfrwt>
<totfact> 0.18729940E+06</totfact>
</mgrwt>
</event>
<event>
 4    1  0.3704929E-001  0.3117621E+02  0.7818608E-02  0.1585440E+00
          2   -1    0    0  501    0  0.00000000000E+00  0.00000000000E+00  0.25561459238E+01  0.25561472461E+01  0.26000000000E-02 0. -1.
         -2   -1    0    0    0  501 -0.00000000000E+00 -0.00000000000E+00 -0.95060683541E+02  0.95060683577E+02  0.26000000000E-02 0.  1.
        -13    1    1    2    0    0  0.96037460358E+01  0.84330123160E+01 -0.74193167316E+02  0.75286020505E+02  0.10570000000E+00 0.  1.
         13    1    1    2    0    0 -0.96037460358E+01 -0.84330123160E+01 -0.18311370302E+02  0.22330810318E+02  0.10570000000E+00 0. -1.
<mgrwt>
<rscale>  0 0.31176212E+02</rscale>
<asrwt>0</asrwt>
<pdfrwt beam="1">  1        2 0.39325340E-03 0.31176212E+02</pdfrwt>
<pdfrwt beam="2">  1       -2 0.14624718E-01 0.31176212E+02</pdfrwt>
<totfact> 0.11040618E+06</totfact>
</mgrwt>
</event>
<event>
 4    1  0.3704929E-001  0.2296769E+02  0.7818608E-02  0.1692034E+00
          2   -1    0    0  501    0  0.00000000000E+00  0.00000000000E+00  0.42791703029E+02  0.42791703108E+02  0.26000000000E-02 0. -1.
         -2   -1    0    0    0  501 -0.00000000000E+00 -0.00000000000E+00 -0.30818736082E+01  0.30818747049E+01  0.26000000000E-02 0.  1.
        -13    1    1    2    0    0  0.28032023895E+00 -0.11157505159E+02  0.14458860789E+02  0.18265769314E+02  0.10570000000E+00 0.  1.
         13    1    1    2    0    0 -0.28032023895E+00  0.11157505159E+02  0.25250968632E+02  0.27607808499E+02  0.10570000000E+00 0. -1.
<mgrwt>
<rscale>  0 0.22967686E+02</rscale>
<asrwt>0</asrwt>
<pdfrwt beam="1">  1        2 0.65833391E-02 0.22967686E+02</pdfrwt>
<pdfrwt beam="2">  1       -2 0.47413449E-03 0.22967686E+02</pdfrwt>
<totfact> 0.33135040E+06</totfact>
</mgrwt>
</event>
<event>
 4    1  0.3704929E-001  0.2115540E+02  0.7818608E-02  0.1723282E+00
         -2   -1    0    0    0  501 -0.00000000000E+00  0.00000000000E+00  0.22550449639E+01  0.22550464627E+01  0.26000000000E-02 0. -1.
          2   -1    0    0  501    0  0.00000000000E+00 -0.00000000000E+00 -0.49616619762E+02  0.49616619830E+02  0.26000000000E-02 0.  1.
        -13    1    1    2    0    0 -0.63760312382E+01  0.84363674480E+01 -0.24231827248E+02  0.26438961673E+02  0.10570000000E+00 0.  1.
         13    1    1    2    0    0  0.63760312382E+01 -0.84363674480E+01 -0.23129747550E+02  0.25432704620E+02  0.10570000000E+00 0. -1.
<mgrwt>
<rscale>  0 0.21155401E+02</rscale>
<asrwt>0</asrwt>
<pdfrwt beam="2">  1        2 0.76333254E-02 0.21155401E+02</pdfrwt>
<pdfrwt beam="1">  1       -2 0.34693015E-03 0.21155401E+02</pdfrwt>
<totfact> 0.40803246E+06</totfact>
</mgrwt>
</event>
<event>
 4    1  0.3704929E-001  0.5436879E+02  0.7818608E-02  0.1423108E+00
          2   -1    0    0  501    0  0.00000000000E+00  0.00000000000E+00  0.83875172896E+02  0.83875172937E+02  0.26000000000E-02 0. -1.
         -2   -1    0    0    0  501 -0.00000000000E+00 -0.00000000000E+00 -0.88106098856E+01  0.88106102692E+01  0.26000000000E-02 0.  1.
        -13    1    1    2    0    0 -0.21284008168E+02  0.61008894742E+01  0.10645096682E+02  0.24567440077E+02  0.10570000000E+00 0.  1.
         13    1    1    2    0    0  0.21284008168E+02 -0.61008894742E+01  0.64419466329E+02  0.68118343129E+02  0.10570000000E+00 0. -1.
<mgrwt>
<rscale>  0 0.54368794E+02</rscale>
<asrwt>0</asrwt>
<pdfrwt beam="1">  1        2 0.12903873E-01 0.54368794E+02</pdfrwt>
<pdfrwt beam="2">  1       -2 0.13554785E-02 0.54368794E+02</pdfrwt>
<totfact> 0.46251217E+05</totfact>
</mgrwt>
</event>
<event>
 4    1  0.3704929E-001  0.2749868E+02  0.7818608E-02  0.1627506E+00
         -2   -1    0    0    0  501 -0.00000000000E+00  0.00000000000E+00  0.16160663413E+01  0.16160684328E+01  0.26000000000E-02 0. -1.
          2   -1    0    0  501    0  0.00000000000E+00 -0.00000000000E+00 -0.11697801531E+03  0.11697801534E+03  0.26000000000E-02 0.  1.
        -13    1    1    2    0    0 -0.98416154081E+01 -0.95924762219E+01 -0.59407099796E+02  0.60976123791E+02  0.10570000000E+00 0. -1.
         13    1    1    2    0    0  0.98416154081E+01  0.95924762219E+01 -0.55954849173E+02  0.57617959981E+02  0.10570000000E+00 0.  1.
<mgrwt>
<rscale>  0 0.27498681E+02</rscale>
<asrwt>0</asrwt>
<pdfrwt beam="2">  1        2 0.17996611E-01 0.27498681E+02</pdfrwt>
<pdfrwt beam="1">  1       -2 0.24862585E-03 0.27498681E+02</pdfrwt>
<totfact> 0.26633726E+06</totfact>
</mgrwt>
</event>
<event>
 4    1  0.3704929E-001  0.4634984E+02  0.7818608E-02  0.1466087E+00
          2   -1    0    0  501    0  0.00000000000E+00  0.00000000000E+00  0.49219808907E+02  0.49219808975E+02  0.26000000000E-02 0. -1.
         -2   -1    0    0    0  501 -0.00000000000E+00 -0.00000000000E+00 -0.10911803500E+02  0.10911803810E+02  0.26000000000E-02 0.  1.
        -13    1    1    2    0    0 -0.41462133595E+01 -0.19623473476E+02  0.34216250308E+02  0.39661502166E+02  0.10570000000E+00 0. -1.
         13    1    1    2    0    0  0.41462133595E+01  0.19623473476E+02  0.40917550986E+01  0.20470110619E+02  0.10570000000E+00 0.  1.
<mgrwt>
<rscale>  0 0.46349839E+02</rscale>
<asrwt>0</asrwt>
<pdfrwt beam="1">  1        2 0.75722781E-02 0.46349839E+02</pdfrwt>
<pdfrwt beam="2">  1       -2 0.16787391E-02 0.46349839E+02</pdfrwt>
<totfact> 0.62096178E+05</totfact>
</mgrwt>
</event>
<event>
 4    1  0.3704929E-001  0.2079033E+02  0.7818608E-02  0.1730053E+00
          2   -1    0    0  501    0  0.00000000000E+00  0.00000000000E+00  0.52296711418E+02  0.52296711483E+02  0.26000000000E-02 0.  1.
         -2   -1    0    0    0  501 -0.00000000000E+00 -0.00000000000E+00 -0.20662757294E+01  0.20662773652E+01  0.26000000000E-02 0. -1.
        -13    1    1    2    0    0 -0.66859353529E+01  0.77840760564E+01  0.20775302626E+02  0.23171489880E+02  0.10570000000E+00 0.  1.
         13    1    1    2    0    0  0.66859353529E+01 -0.77840760564E+01  0.29455133063E+02  0.31191498967E+02  0.10570000000E+00 0. -1.
<mgrwt>
<rscale>  0 0.20790332E+02</rscale>
<asrwt>0</asrwt>
<pdfrwt beam="1">  1        2 0.80456480E-02 0.20790332E+02</pdfrwt>
<pdfrwt beam="2">  1       -2 0.31788871E-03 0.20790332E+02</pdfrwt>
<totfact> 0.42776618E+06</totfact>
</mgrwt>
</event>
<event>
 4    1  0.3704929E-001  0.5005039E+02  0.7818608E-02  0.1445070E+00
          2   -1    0    0  501    0  0.00000000000E+00  0.00000000000E+00  0.15620971558E+03  0.15620971560E+03  0.26000000000E-02 0.  1.
         -2   -1    0    0    0  501 -0.00000000000E+00 -0.00000000000E+00 -0.40090992606E+01  0.40091001036E+01  0.26000000000E-02 0. -1.
        -13    1    1    2    0    0  0.50833038234E+01 -0.23524263856E+02  0.98050534311E+02  0.10096112826E+03  0.10570000000E+00 0.  1.
         13    1    1    2    0    0 -0.50833038234E+01  0.23524263856E+02  0.54150082005E+02  0.59257687445E+02  0.10570000000E+00 0. -1.
<mgrwt>
<rscale>  0 0.50050388E+02</rscale>
<asrwt>0</asrwt>
<pdfrwt beam="1">  1        2 0.24032263E-01 0.50050388E+02</pdfrwt>
<pdfrwt beam="2">  1       -2 0.61678459E-03 0.50050388E+02</pdfrwt>
<totfact> 0.67828337E+05</totfact>
</mgrwt>
</event>
<event>
 4    1  0.3704929E-001  0.2715247E+02  0.7818608E-02  0.1631880E+00
         -2   -1    0    0    0  501 -0.00000000000E+00  0.00000000000E+00  0.83917977630E+01  0.83917981658E+01  0.26000000000E-02 0.  1.
          2   -1    0    0  501    0  0.00000000000E+00 -0.00000000000E+00 -0.21963610257E+02  0.21963610411E+02  0.26000000000E-02 0. -1.
        -13    1    1    2    0    0 -0.72429571975E+01  0.11417477646E+02 -0.54241090611E+01  0.14568848835E+02  0.10570000000E+00 0.  1.
         13    1    1    2    0    0  0.72429571975E+01 -0.11417477646E+02 -0.81477034331E+01  0.15786559742E+02  0.10570000000E+00 0. -1.
<mgrwt>
<rscale>  0 0.27152472E+02</rscale>
<asrwt>0</asrwt>
<pdfrwt beam="2">  1        2 0.33790170E-02 0.27152472E+02</pdfrwt>
<pdfrwt beam="1">  1       -2 0.12910459E-02 0.27152472E+02</pdfrwt>
<totfact> 0.20703749E+06</totfact>
</mgrwt>
</event>
<event>
 4    1  0.3704929E-001  0.7458335E+02  0.7818608E-02  0.1345166E+00
         -2   -1    0    0    0  501 -0.00000000000E+00  0.00000000000E+00  0.93865182668E+02  0.93865182704E+02  0.26000000000E-02 0.  1.
          2   -1    0    0  501    0  0.00000000000E+00 -0.00000000000E+00 -0.14815598919E+02  0.14815599147E+02  0.26000000000E-02 0. -1.
        -13    1    1    2    0    0 -0.13240080244E+02 -0.28569971866E+02  0.10413615214E+02  0.33166211294E+02  0.10570000000E+00 0. -1.
         13    1    1    2    0    0  0.13240080244E+02  0.28569971866E+02  0.68635968535E+02  0.75514570558E+02  0.10570000000E+00 0.  1.
<mgrwt>
<rscale>  0 0.74583347E+02</rscale>
<asrwt>0</asrwt>
<pdfrwt beam="2">  1        2 0.22793230E-02 0.74583347E+02</pdfrwt>
<pdfrwt beam="1">  1       -2 0.14440797E-01 0.74583347E+02</pdfrwt>
<totfact> 0.13387313E+05</totfact>
</mgrwt>
</event>
<event>
 4    1  0.3704929E-001  0.2054823E+02  0.7818608E-02  0.1734641E+00
         -2   -1    0    0    0  501 -0.00000000000E+00  0.00000000000E+00  0.17955376426E+02  0.17955376614E+02  0.26000000000E-02 0. -1.
          2   -1    0    0  501    0  0.00000000000E+00 -0.00000000000E+00 -0.58788779881E+01  0.58788785630E+01  0.26000000000E-02 0.  1.
        -13    1    1    2    0    0 -0.10202458539E+02 -0.80797469377E-01  0.46417088887E+01  0.11209519275E+02  0.10570000000E+00 0.  1.
         13    1    1    2    0    0  0.10202458539E+02  0.80797469377E-01  0.74347895492E+01  0.12624735902E+02  0.10570000000E+00 0. -1.
<mgrwt>
<rscale>  0 0.20548234E+02</rscale>
<asrwt>0</asrwt>
<pdfrwt beam="2">  1        2 0.90444282E-03 0.20548234E+02</pdfrwt>
<pdfrwt beam="1">  1       -2 0.27623657E-02 0.20548234E+02</pdfrwt>
<totfact> 0.35610196E+06</totfact>
</mgrwt>
</event>
<event>
 4    1  0.3704929E-001  0.3218946E+02  0.7818608E-02  0.1575076E+00
         -2   -1    0    0    0  501 -0.00000000000E+00  0.00000000000E+00  0.18013010793E+02  0.18013010980E+02  0.26000000000E-02 0.  1.
          2   -1    0    0  501    0  0.00000000000E+00 -0.00000000000E+00 -0.14380735277E+02  0.14380735512E+02  0.26000000000E-02 0. -1.
        -13    1    1    2    0    0 -0.11050753978E+02 -0.26306883280E+01  0.13289787723E+02  0.17483401121E+02  0.10570000000E+00 0.  1.
         13    1    1    2    0    0  0.11050753978E+02  0.26306883280E+01 -0.96575122067E+01  0.14910345371E+02  0.10570000000E+00 0. -1.
<mgrwt>
<rscale>  0 0.32189461E+02</rscale>
<asrwt>0</asrwt>
<pdfrwt beam="2">  1        2 0.22124208E-02 0.32189461E+02</pdfrwt>
<pdfrwt beam="1">  1       -2 0.27712325E-02 0.32189461E+02</pdfrwt>
<totfact> 0.13101563E+06</totfact>
</mgrwt>
</event>
<event>
 4    1  0.3704929E-001  0.2653837E+02  0.7818608E-02  0.1639841E+00
         -2   -1    0    0    0  501 -0.00000000000E+00  0.00000000000E+00  0.53122165613E+01  0.53122171976E+01  0.26000000000E-02 0.  1.
          2   -1    0    0  501    0  0.00000000000E+00 -0.00000000000E+00 -0.33144604931E+02  0.33144605033E+02  0.26000000000E-02 0. -1.
        -13    1    1    2    0    0  0.53274647750E+00 -0.11624061429E+02 -0.46762444045E+01  0.12541174472E+02  0.10570000000E+00 0. -1.
         13    1    1    2    0    0 -0.53274647750E+00  0.11624061429E+02 -0.23156143965E+02  0.25915647759E+02  0.10570000000E+00 0.  1.
<mgrwt>
<rscale>  0 0.26538375E+02</rscale>
<asrwt>0</asrwt>
<pdfrwt beam="2">  1        2 0.50991699E-02 0.26538375E+02</pdfrwt>
<pdfrwt beam="1">  1       -2 0.81726416E-03 0.26538375E+02</pdfrwt>
<totfact> 0.22907709E+06</totfact>
</mgrwt>
</event>
<event>
 4    1  0.3704929E-001  0.2482355E+02  0.7818608E-02  0.1663549E+00
          2   -1    0    0  501    0  0.00000000000E+00  0.00000000000E+00  0.18576706116E+01  0.18576724311E+01  0.26000000000E-02 0. -1.
         -2   -1    0    0    0  501 -0.00000000000E+00 -0.00000000000E+00 -0.82927539106E+02  0.82927539147E+02  0.26000000000E-02 0.  1.
        -13    1    1    2    0    0 -0.10632311818E+02 -0.26562953208E+01 -0.60432766868E+02  0.61418502450E+02  0.10570000000E+00 0.  1.
         13    1    1    2    0    0  0.10632311818E+02  0.26562953208E+01 -0.20637101627E+02  0.23366709128E+02  0.10570000000E+00 0. -1.
<mgrwt>
<rscale>  0 0.24823548E+02</rscale>
<asrwt>0</asrwt>
<pdfrwt beam="1">  1        2 0.28579568E-03 0.24823548E+02</pdfrwt>
<pdfrwt beam="2">  1       -2 0.12758080E-01 0.24823548E+02</pdfrwt>
<totfact> 0.19196398E+06</totfact>
</mgrwt>
</event>
<event>
 4    1  0.3704929E-001  0.5726956E+02  0.7818608E-02  0.1409661E+00
         -2   -1    0    0    0  501 -0.00000000000E+00  0.00000000000E+00  0.22514339463E+02  0.22514339613E+02  0.26000000000E-02 0.  1.
          2   -1    0    0  501    0  0.00000000000E+00 -0.00000000000E+00 -0.36419036802E+02  0.36419036894E+02  0.26000000000E-02 0. -1.
        -13    1    1    2    0    0 -0.18089331642E+02 -0.21364701151E+02 -0.75534947060E+00  0.28004572838E+02  0.10570000000E+00 0. -1.
         13    1    1    2    0    0  0.18089331642E+02  0.21364701151E+02 -0.13149347868E+02  0.30928803669E+02  0.10570000000E+00 0.  1.
<mgrwt>
<rscale>  0 0.57269558E+02</rscale>
<asrwt>0</asrwt>
<pdfrwt beam="2">  1        2 0.56029288E-02 0.57269558E+02</pdfrwt>
<pdfrwt beam="1">  1       -2 0.34637445E-02 0.57269558E+02</pdfrwt>
<totfact> 0.33920036E+05</totfact>
</mgrwt>
</event>
<event>
 4    1  0.3704929E-001  0.4049249E+02  0.7818608E-02  0.1504618E+00
          2   -1    0    0  501    0  0.00000000000E+00  0.00000000000E+00  0.52105893718E+01  0.52105900205E+01  0.26000000000E-02 0. -1.
         -2   -1    0    0    0  501 -0.00000000000E+00 -0.00000000000E+00 -0.78668734133E+02  0.78668734175E+02  0.26000000000E-02 0.  1.
        -13    1    1    2    0    0 -0.13415650896E+02 -0.10049454850E+01 -0.53880957808E+01  0.14492492989E+02  0.10570000000E+00 0. -1.
         13    1    1    2    0    0  0.13415650896E+02  0.10049454850E+01 -0.68070048980E+02  0.69386831207E+02  0.10570000000E+00 0.  1.
<mgrwt>
<rscale>  0 0.40492493E+02</rscale>
<asrwt>0</asrwt>
<pdfrwt beam="1">  1        2 0.80162924E-03 0.40492493E+02</pdfrwt>
<pdfrwt beam="2">  1       -2 0.12102881E-01 0.40492493E+02</pdfrwt>
<totfact> 0.62080059E+05</totfact>
</mgrwt>
</event>
<event>
 4    1  0.3704929E-001  0.3978901E+02  0.7818608E-02  0.1509770E+00
          2   -1    0    0  501    0  0.00000000000E+00  0.00000000000E+00  0.12818219681E+03  0.12818219683E+03  0.26000000000E-02 0. -1.
         -2   -1    0    0    0  501 -0.00000000000E+00 -0.00000000000E+00 -0.30877243486E+01  0.30877254432E+01  0.26000000000E-02 0.  1.
        -13    1    1    2    0    0 -0.28344137476E+01 -0.18828222746E+02  0.81569438295E+02  0.83762284528E+02  0.10570000000E+00 0. -1.
         13    1    1    2    0    0  0.28344137476E+01  0.18828222746E+02  0.43525034162E+02  0.47507637748E+02  0.10570000000E+00 0.  1.
<mgrwt>
<rscale>  0 0.39789012E+02</rscale>
<asrwt>0</asrwt>
<pdfrwt beam="1">  1        2 0.19720335E-01 0.39789012E+02</pdfrwt>
<pdfrwt beam="2">  1       -2 0.47503467E-03 0.39789012E+02</pdfrwt>
<totfact> 0.11304497E+06</totfact>
</mgrwt>
</event>
<event>
 4    1  0.3704929E-001  0.5274396E+02  0.7818608E-02  0.1431079E+00
         -2   -1    0    0    0  501 -0.00000000000E+00  0.00000000000E+00  0.50959087487E+02  0.50959087553E+02  0.26000000000E-02 0.  1.
          2   -1    0    0  501    0  0.00000000000E+00 -0.00000000000E+00 -0.13647834768E+02  0.13647835016E+02  0.26000000000E-02 0. -1.
        -13    1    1    2    0    0  0.10498086465E+02  0.23753198209E+02  0.24275014961E+02  0.35548723865E+02  0.10570000000E+00 0. -1.
         13    1    1    2    0    0 -0.10498086465E+02 -0.23753198209E+02  0.13036237757E+02  0.29058198704E+02  0.10570000000E+00 0.  1.
<mgrwt>
<rscale>  0 0.52743956E+02</rscale>
<asrwt>0</asrwt>
<pdfrwt beam="2">  1        2 0.20996670E-02 0.52743956E+02</pdfrwt>
<pdfrwt beam="1">  1       -2 0.78398595E-02 0.52743956E+02</pdfrwt>
<totfact> 0.35738676E+05</totfact>
</mgrwt>
</event>
<event>
 4    1  0.3704929E-001  0.2529224E+02  0.7818608E-02  0.1656840E+00
          2   -1    0    0  501    0  0.00000000000E+00  0.00000000000E+00  0.13026601614E+01  0.13026627561E+01  0.26000000000E-02 0.  1.
         -2   -1    0    0    0  501 -0.00000000000E+00 -0.00000000000E+00 -0.12276737088E+03  0.12276737090E+03  0.26000000000E-02 0. -1.
        -13    1    1    2    0    0 -0.12193309428E+02  0.33520577535E+01 -0.60692098392E+02  0.61995605212E+02  0.10570000000E+00 0. -1.
         13    1    1    2    0    0  0.12193309428E+02 -0.33520577535E+01 -0.60772612322E+02  0.62074428446E+02  0.10570000000E+00 0.  1.
<mgrwt>
<rscale>  0 0.25292238E+02</rscale>
<asrwt>0</asrwt>
<pdfrwt beam="1">  1        2 0.20040955E-03 0.25292238E+02</pdfrwt>
<pdfrwt beam="2">  1       -2 0.18887279E-01 0.25292238E+02</pdfrwt>
<totfact> 0.16714424E+06</totfact>
</mgrwt>
</event>
<event>
 4    1  0.3704929E-001  0.2889684E+02  0.7818608E-02  0.1610613E+00
         -2   -1    0    0    0  501 -0.00000000000E+00  0.00000000000E+00  0.78555341314E+02  0.78555341357E+02  0.26000000000E-02 0.  1.
          2   -1    0    0  501    0  0.00000000000E+00 -0.00000000000E+00 -0.26574483275E+01  0.26574495994E+01  0.26000000000E-02 0. -1.
        -13    1    1    2    0    0  0.13524544584E+02 -0.44897315493E+01  0.44643837111E+02  0.46863145008E+02  0.10570000000E+00 0.  1.
         13    1    1    2    0    0 -0.13524544584E+02  0.44897315493E+01  0.31254055876E+02  0.34349645948E+02  0.10570000000E+00 0. -1.
<mgrwt>
<rscale>  0 0.28896838E+02</rscale>
<asrwt>0</asrwt>
<pdfrwt beam="2">  1        2 0.40883833E-03 0.28896838E+02</pdfrwt>
<pdfrwt beam="1">  1       -2 0.12085436E-01 0.28896838E+02</pdfrwt>
<totfact> 0.13722457E+06</totfact>
</mgrwt>
</event>
<event>
 4    1  0.3704929E-001  0.4294837E+02  0.7818608E-02  0.1487572E+00
          2   -1    0    0  501    0  0.00000000000E+00  0.00000000000E+00  0.23293951160E+03  0.23293951161E+03  0.26000000000E-02 0. -1.
         -2   -1    0    0    0  501 -0.00000000000E+00 -0.00000000000E+00 -0.19796571211E+01  0.19796588285E+01  0.26000000000E-02 0.  1.
        -13    1    1    2    0    0  0.35875911874E+01  0.21160982016E+02  0.11172434865E+03  0.11376730297E+03  0.10570000000E+00 0.  1.
         13    1    1    2    0    0 -0.35875911874E+01 -0.21160982016E+02  0.11923550582E+03  0.12115186747E+03  0.10570000000E+00 0. -1.
<mgrwt>
<rscale>  0 0.42948367E+02</rscale>
<asrwt>0</asrwt>
<pdfrwt beam="1">  1        2 0.35836823E-01 0.42948367E+02</pdfrwt>
<pdfrwt beam="2">  1       -2 0.30456298E-03 0.42948367E+02</pdfrwt>
<totfact> 0.11289464E+06</totfact>
</mgrwt>
</event>
<event>
 4    1  0.3704929E-001  0.3473611E+02  0.7818608E-02  0.1550957E+00
          2   -1    0    0  501    0  0.00000000000E+00  0.00000000000E+00  0.28058054566E+02  0.28058054686E+02  0.26000000000E-02 0. -1.
         -2   -1    0    0    0  501 -0.00000000000E+00 -0.00000000000E+00 -0.10750896959E+02  0.10750897274E+02  0.26000000000E-02 0.  1.
        -13    1    1    2    0    0  0.16584603954E+02 -0.22555691156E+01  0.34729288742E+01  0.17094124365E+02  0.10570000000E+00 0. -1.
         13    1    1    2    0    0 -0.16584603954E+02  0.22555691156E+01  0.13834228732E+02  0.21714827595E+02  0.10570000000E+00 0.  1.
<mgrwt>
<rscale>  0 0.34736106E+02</rscale>
<asrwt>0</asrwt>
<pdfrwt beam="1">  1        2 0.43166237E-02 0.34736106E+02</pdfrwt>
<pdfrwt beam="2">  1       -2 0.16539842E-02 0.34736106E+02</pdfrwt>
<totfact> 0.11730755E+06</totfact>
</mgrwt>
</event>
<event>
 4    1  0.3704929E-001  0.2179464E+02  0.7818608E-02  0.1711828E+00
          2   -1    0    0  501    0  0.00000000000E+00  0.00000000000E+00  0.56440772704E+02  0.56440772763E+02  0.26000000000E-02 0. -1.
         -2   -1    0    0    0  501 -0.00000000000E+00 -0.00000000000E+00 -0.21040023361E+01  0.21040039426E+01  0.26000000000E-02 0.  1.
        -13    1    1    2    0    0 -0.67104597276E+01 -0.75748528710E+01  0.16312767102E+02  0.19197036458E+02  0.10570000000E+00 0. -1.
         13    1    1    2    0    0  0.67104597276E+01  0.75748528710E+01  0.38024003265E+02  0.39347740248E+02  0.10570000000E+00 0.  1.
<mgrwt>
<rscale>  0 0.21794638E+02</rscale>
<asrwt>0</asrwt>
<pdfrwt beam="1">  1        2 0.86831966E-02 0.21794638E+02</pdfrwt>
<pdfrwt beam="2">  1       -2 0.32369277E-03 0.21794638E+02</pdfrwt>
<totfact> 0.38941012E+06</totfact>
</mgrwt>
</event>
<event>
 4    1  0.3704929E-001  0.2789899E+02  0.7818608E-02  0.1622545E+00
         -2   -1    0    0    0  501 -0.00000000000E+00  0.00000000000E+00  0.11523150023E+02  0.11523150317E+02  0.26000000000E-02 0.  1.
          2   -1    0    0  501    0  0.00000000000E+00 -0.00000000000E+00 -0.16886734529E+02  0.16886734729E+02  0.26000000000E-02 0. -1.
        -13    1    1    2    0    0 -0.85366084826E+01 -0.10027588651E+02  0.20014474931E+01  0.13320780123E+02  0.10570000000E+00 0.  1.
         13    1    1    2    0    0  0.85366084826E+01  0.10027588651E+02 -0.73650319989E+01  0.15089104923E+02  0.10570000000E+00 0. -1.
<mgrwt>
<rscale>  0 0.27898988E+02</rscale>
<asrwt>0</asrwt>
<pdfrwt beam="2">  1        2 0.25979592E-02 0.27898988E+02</pdfrwt>
<pdfrwt beam="1">  1       -2 0.17727924E-02 0.27898988E+02</pdfrwt>
<totfact> 0.18892977E+06</totfact>
</mgrwt>
</event>
<event>
 4    1  0.3704929E-001  0.3192727E+02  0.7818608E-02  0.1577713E+00
         -2   -1    0    0    0  501 -0.00000000000E+00  0.00000000000E+00  0.53832099002E+01  0.53832105281E+01  0.26000000000E-02 0. -1.
          2   -1    0    0  501    0  0.00000000000E+00 -0.00000000000E+00 -0.47339336959E+02  0.47339337030E+02  0.26000000000E-02 0.  1.
        -13    1    1    2    0    0 -0.21181395928E+01  0.15744695812E+02 -0.23559890583E+02  0.28415868424E+02  0.10570000000E+00 0.  1.
         13    1    1    2    0    0  0.21181395928E+01 -0.15744695812E+02 -0.18396236475E+02  0.24306679134E+02  0.10570000000E+00 0. -1.
<mgrwt>
<rscale>  0 0.31927268E+02</rscale>
<asrwt>0</asrwt>
<pdfrwt beam="2">  1        2 0.72829747E-02 0.31927268E+02</pdfrwt>
<pdfrwt beam="1">  1       -2 0.82818623E-03 0.31927268E+02</pdfrwt>
<totfact> 0.15523851E+06</totfact>
</mgrwt>
</event>
<event>
 4    1  0.3704929E-001  0.2863254E+02  0.7818608E-02  0.1613715E+00
          2   -1    0    0  501    0  0.00000000000E+00  0.00000000000E+00  0.56043940197E+02  0.56043940258E+02  0.26000000000E-02 0. -1.
         -2   -1    0    0    0  501 -0.00000000000E+00 -0.00000000000E+00 -0.36570520196E+01  0.36570529439E+01  0.26000000000E-02 0.  1.
        -13    1    1    2    0    0 -0.12363537917E+02  0.72171274574E+01  0.26148577154E+02  0.29811126417E+02  0.10570000000E+00 0. -1.
         13    1    1    2    0    0  0.12363537917E+02 -0.72171274574E+01  0.26238311023E+02  0.29889866785E+02  0.10570000000E+00 0.  1.
<mgrwt>
<rscale>  0 0.28632543E+02</rscale>
<asrwt>0</asrwt>
<pdfrwt beam="1">  1        2 0.86221443E-02 0.28632543E+02</pdfrwt>
<pdfrwt beam="2">  1       -2 0.56262349E-03 0.28632543E+02</pdfrwt>
<totfact> 0.20704220E+06</totfact>
</mgrwt>
</event>
<event>
 4    1  0.3704929E-001  0.3181583E+02  0.7818608E-02  0.1578843E+00
         -2   -1    0    0    0  501 -0.00000000000E+00  0.00000000000E+00  0.47623950039E+02  0.47623950110E+02  0.26000000000E-02 0. -1.
          2   -1    0    0  501    0  0.00000000000E+00 -0.00000000000E+00 -0.53137501494E+01  0.53137507855E+01  0.26000000000E-02 0.  1.
        -13    1    1    2    0    0  0.55811358385E+01 -0.14373414443E+02  0.14645418904E+02  0.21266019546E+02  0.10570000000E+00 0.  1.
         13    1    1    2    0    0 -0.55811358385E+01  0.14373414443E+02  0.27664780986E+02  0.31671681349E+02  0.10570000000E+00 0. -1.
<mgrwt>
<rscale>  0 0.31815832E+02</rscale>
<asrwt>0</asrwt>
<pdfrwt beam="2">  1        2 0.81750008E-03 0.31815832E+02</pdfrwt>
<pdfrwt beam="1">  1       -2 0.73267616E-02 0.31815832E+02</pdfrwt>
<totfact> 0.11966870E+06</totfact>
</mgrwt>
</event>
<event>
 4    1  0.3704929E-001  0.3213959E+02  0.7818608E-02  0.1575575E+00
         -2   -1    0    0    0  501 -0.00000000000E+00  0.00000000000E+00  0.56227729185E+01  0.56227735197E+01  0.26000000000E-02 0. -1.
          2   -1    0    0  501    0  0.00000000000E+00 -0.00000000000E+00 -0.45927215723E+02  0.45927215796E+02  0.26000000000E-02 0.  1.
        -13    1    1    2    0    0 -0.93819471009E+01 -0.92832555390E+01 -0.54494683781E+01  0.14279623346E+02  0.10570000000E+00 0.  1.
         13    1    1    2    0    0  0.93819471009E+01  0.92832555390E+01 -0.34854974426E+02  0.37270365970E+02  0.10570000000E+00 0. -1.
<mgrwt>
<rscale>  0 0.32139591E+02</rscale>
<asrwt>0</asrwt>
<pdfrwt beam="2">  1        2 0.70657253E-02 0.32139591E+02</pdfrwt>
<pdfrwt beam="1">  1       -2 0.86504207E-03 0.32139591E+02</pdfrwt>
<totfact> 0.15204051E+06</totfact>
</mgrwt>
</event>
<event>
 4    1  0.3704929E-001  0.2344287E+02  0.7818608E-02  0.1684430E+00
          2   -1    0    0  501    0  0.00000000000E+00  0.00000000000E+00  0.19584012564E+01  0.19584029823E+01  0.26000000000E-02 0. -1.
         -2   -1    0    0    0  501 -0.00000000000E+00 -0.00000000000E+00 -0.70155192136E+02  0.70155192185E+02  0.26000000000E-02 0.  1.
        -13    1    1    2    0    0  0.39990024169E-01  0.10654987675E+02 -0.49121353952E+02  0.50263793610E+02  0.10570000000E+00 0.  1.
         13    1    1    2    0    0 -0.39990024169E-01 -0.10654987675E+02 -0.19075436928E+02  0.21849801557E+02  0.10570000000E+00 0. -1.
<mgrwt>
<rscale>  0 0.23442874E+02</rscale>
<asrwt>0</asrwt>
<pdfrwt beam="1">  1        2 0.30129269E-03 0.23442874E+02</pdfrwt>
<pdfrwt beam="2">  1       -2 0.10793105E-01 0.23442874E+02</pdfrwt>
<totfact> 0.22564806E+06</totfact>
</mgrwt>
</event>
<event>
 4    1  0.3704929E-001  0.3508097E+02  0.7818608E-02  0.1547883E+00
          2   -1    0    0  501    0  0.00000000000E+00  0.00000000000E+00  0.13065972349E+02  0.13065972608E+02  0.26000000000E-02 0.  1.
         -2   -1    0    0    0  501 -0.00000000000E+00 -0.00000000000E+00 -0.23547318925E+02  0.23547319069E+02  0.26000000000E-02 0. -1.
        -13    1    1    2    0    0 -0.12848115218E+02  0.11714241229E+02 -0.28243938181E+01  0.17614933583E+02  0.10570000000E+00 0. -1.
         13    1    1    2    0    0  0.12848115218E+02 -0.11714241229E+02 -0.76569527577E+01  0.18998358093E+02  0.10570000000E+00 0.  1.
<mgrwt>
<rscale>  0 0.35080971E+02</rscale>
<asrwt>0</asrwt>
<pdfrwt beam="1">  1        2 0.20101496E-02 0.35080971E+02</pdfrwt>
<pdfrwt beam="2">  1       -2 0.36226645E-02 0.35080971E+02</pdfrwt>
<totfact> 0.10446432E+06</totfact>
</mgrwt>
</event>
<event>
 4    1  0.3704929E-001  0.2082544E+02  0.7818608E-02  0.1729395E+00
          2   -1    0    0  501    0  0.00000000000E+00  0.00000000000E+00  0.52314057155E+01  0.52314063616E+01  0.26000000000E-02 0.  1.
         -2   -1    0    0    0  501 -0.00000000000E+00 -0.00000000000E+00 -0.20725728866E+02  0.20725729029E+02  0.26000000000E-02 0. -1.
        -13    1    1    2    0    0 -0.35851702276E+01  0.95612771824E+01 -0.52104492072E+01  0.11464354336E+02  0.10570000000E+00 0.  1.
         13    1    1    2    0    0  0.35851702276E+01 -0.95612771824E+01 -0.10283873944E+02  0.14492781055E+02  0.10570000000E+00 0. -1.
<mgrwt>
<rscale>  0 0.20825437E+02</rscale>
<asrwt>0</asrwt>
<pdfrwt beam="1">  1        2 0.80483172E-03 0.20825437E+02</pdfrwt>
<pdfrwt beam="2">  1       -2 0.31885737E-02 0.20825437E+02</pdfrwt>
<totfact> 0.34172560E+06</totfact>
</mgrwt>
</event>
<event>
 4    1  0.3704929E-001  0.4411004E+02  0.7818608E-02  0.1479975E+00
          2   -1    0    0  501    0  0.00000000000E+00  0.00000000000E+00  0.61602619261E+02  0.61602619315E+02  0.26000000000E-02 0. -1.
         -2   -1    0    0    0  501 -0.00000000000E+00 -0.00000000000E+00 -0.78961574701E+01  0.78961578982E+01  0.26000000000E-02 0.  1.
        -13    1    1    2    0    0 -0.11013635015E+02 -0.10977707296E+01 -0.32030482600E+01  0.11522844591E+02  0.10570000000E+00 0.  1.
         13    1    1    2    0    0  0.11013635015E+02  0.10977707296E+01  0.56909510051E+02  0.57975932623E+02  0.10570000000E+00 0. -1.
<mgrwt>
<rscale>  0 0.44110044E+02</rscale>
<asrwt>0</asrwt>
<pdfrwt beam="1">  1        2 0.94773261E-02 0.44110044E+02</pdfrwt>
<pdfrwt beam="2">  1       -2 0.12147935E-02 0.44110044E+02</pdfrwt>
<totfact> 0.73484822E+05</totfact>
</mgrwt>
</event>
<event>
 4    1  0.3704929E-001  0.4041576E+02  0.7818608E-02  0.1505174E+00
         -2   -1    0    0    0  501 -0.00000000000E+00  0.00000000000E+00  0.54965149305E+01  0.54965155454E+01  0.26000000000E-02 0. -1.
          2   -1    0    0  501    0  0.00000000000E+00 -0.00000000000E+00 -0.74294068399E+02  0.74294068444E+02  0.26000000000E-02 0.  1.
        -13    1    1    2    0    0  0.10404616177E+02 -0.45739603459E+01 -0.67385209647E+02  0.68337067560E+02  0.10570000000E+00 0.  1.
         13    1    1    2    0    0 -0.10404616177E+02  0.45739603459E+01 -0.14123438213E+01  0.11453516430E+02  0.10570000000E+00 0. -1.
<mgrwt>
<rscale>  0 0.40415763E+02</rscale>
<asrwt>0</asrwt>
<pdfrwt beam="2">  1        2 0.11429856E-01 0.40415763E+02</pdfrwt>
<pdfrwt beam="1">  1       -2 0.84561778E-03 0.40415763E+02</pdfrwt>
<totfact> 0.95028142E+05</totfact>
</mgrwt>
</event>
<event>
 4    1  0.3704929E-001  0.2325553E+02  0.7818608E-02  0.1687401E+00
         -2   -1    0    0    0  501 -0.00000000000E+00  0.00000000000E+00  0.56869300837E+01  0.56869306780E+01  0.26000000000E-02 0.  1.
          2   -1    0    0  501    0  0.00000000000E+00 -0.00000000000E+00 -0.23774681742E+02  0.23774681884E+02  0.26000000000E-02 0. -1.
        -13    1    1    2    0    0 -0.10300926396E+02 -0.52285875971E+01 -0.10718140960E+02  0.15758709687E+02  0.10570000000E+00 0. -1.
         13    1    1    2    0    0  0.10300926396E+02  0.52285875971E+01 -0.73696106984E+01  0.13702902875E+02  0.10570000000E+00 0.  1.
<mgrwt>
<rscale>  0 0.23255534E+02</rscale>
<asrwt>0</asrwt>
<pdfrwt beam="2">  1        2 0.36576434E-02 0.23255534E+02</pdfrwt>
<pdfrwt beam="1">  1       -2 0.87491239E-03 0.23255534E+02</pdfrwt>
<totfact> 0.30019055E+06</totfact>
</mgrwt>
</event>
<event>
 4    1  0.3704929E-001  0.2453954E+02  0.7818608E-02  0.1667705E+00
         -2   -1    0    0    0  501 -0.00000000000E+00  0.00000000000E+00  0.17518851924E+02  0.17518852117E+02  0.26000000000E-02 0.  1.
          2   -1    0    0  501    0  0.00000000000E+00 -0.00000000000E+00 -0.85934457903E+01  0.85934461836E+01  0.26000000000E-02 0. -1.
        -13    1    1    2    0    0 -0.12020091481E+02  0.10191623511E+01  0.20797938180E+01  0.12241650458E+02  0.10570000000E+00 0. -1.
         13    1    1    2    0    0  0.12020091481E+02 -0.10191623511E+01  0.68456123157E+01  0.13870647843E+02  0.10570000000E+00 0.  1.
<mgrwt>
<rscale>  0 0.24539545E+02</rscale>
<asrwt>0</asrwt>
<pdfrwt beam="2">  1        2 0.13220686E-02 0.24539545E+02</pdfrwt>
<pdfrwt beam="1">  1       -2 0.26952080E-02 0.24539545E+02</pdfrwt>
<totfact> 0.24157407E+06</totfact>
</mgrwt>
</event>
<event>
 4    1  0.3704929E-001  0.2777232E+02  0.7818608E-02  0.1624104E+00
          2   -1    0    0  501    0  0.00000000000E+00  0.00000000000E+00  0.97763528812E+01  0.97763532269E+01  0.26000000000E-02 0.  1.
         -2   -1    0    0    0  501 -0.00000000000E+00 -0.00000000000E+00 -0.19723650022E+02  0.19723650193E+02  0.26000000000E-02 0. -1.
        -13    1    1    2    0    0  0.91009655108E+01  0.64947260084E+01 -0.13720290586E+02  0.17699338558E+02  0.10570000000E+00 0. -1.
         13    1    1    2    0    0 -0.91009655108E+01 -0.64947260084E+01  0.37729934450E+01  0.11800664862E+02  0.10570000000E+00 0.  1.
<mgrwt>
<rscale>  0 0.27772315E+02</rscale>
<asrwt>0</asrwt>
<pdfrwt beam="1">  1        2 0.15040543E-02 0.27772315E+02</pdfrwt>
<pdfrwt beam="2">  1       -2 0.30344077E-02 0.27772315E+02</pdfrwt>
<totfact> 0.18117848E+06</totfact>
</mgrwt>
</event>
<event>
 4    1  0.3704929E-001  0.5516796E+02  0.7818608E-02  0.1419306E+00
         -2   -1    0    0    0  501 -0.00000000000E+00  0.00000000000E+00  0.53136128004E+01  0.53136134365E+01  0.26000000000E-02 0. -1.
          2   -1    0    0  501    0  0.00000000000E+00 -0.00000000000E+00 -0.14319371907E+03  0.14319371910E+03  0.26000000000E-02 0.  1.
        -13    1    1    2    0    0  0.20739672988E+02  0.15981337982E+02 -0.92303567865E+02  0.95945281345E+02  0.10570000000E+00 0.  1.
         13    1    1    2    0    0 -0.20739672988E+02 -0.15981337982E+02 -0.45576538407E+02  0.52562051187E+02  0.10570000000E+00 0. -1.
<mgrwt>
<rscale>  0 0.55167963E+02</rscale>
<asrwt>0</asrwt>
<pdfrwt beam="2">  1        2 0.22029800E-01 0.55167963E+02</pdfrwt>
<pdfrwt beam="1">  1       -2 0.81747905E-03 0.55167963E+02</pdfrwt>
<totfact> 0.51616953E+05</totfact>
</mgrwt>
</event>
<event>
 4    1  0.3704929E-001  0.2112095E+02  0.7818608E-02  0.1723914E+00
          2   -1    0    0  501    0  0.00000000000E+00  0.00000000000E+00  0.11769842703E+03  0.11769842706E+03  0.26000000000E-02 0. -1.
         -2   -1    0    0    0  501 -0.00000000000E+00 -0.00000000000E+00 -0.94753507956E+00  0.94753864671E+00  0.26000000000E-02 0.  1.
        -13    1    1    2    0    0 -0.93188494814E+01 -0.49106275074E+01  0.54182208516E+02  0.55196721917E+02  0.10570000000E+00 0. -1.
         13    1    1    2    0    0  0.93188494814E+01  0.49106275074E+01  0.62568683437E+02  0.63449243791E+02  0.10570000000E+00 0.  1.
<mgrwt>
<rscale>  0 0.21120947E+02</rscale>
<asrwt>0</asrwt>
<pdfrwt beam="1">  1        2 0.18107446E-01 0.21120947E+02</pdfrwt>
<pdfrwt beam="2">  1       -2 0.14577494E-03 0.21120947E+02</pdfrwt>
<totfact> 0.48599313E+06</totfact>
</mgrwt>
</event>
<event>
 4    1  0.3704929E-001  0.1304441E+03  0.7818608E-02  0.1226798E+00
          2   -1    0    0  501    0  0.00000000000E+00  0.00000000000E+00  0.40723216657E+03  0.40723216658E+03  0.26000000000E-02 0. -1.
         -2   -1    0    0    0  501 -0.00000000000E+00 -0.00000000000E+00 -0.10445915452E+02  0.10445915776E+02  0.26000000000E-02 0.  1.
        -13    1    1    2    0    0  0.46310291638E+02 -0.31340128128E+02  0.90897710964E+02  0.10672043747E+03  0.10570000000E+00 0.  1.
         13    1    1    2    0    0 -0.46310291638E+02  0.31340128128E+02  0.30588854015E+03  0.31095764489E+03  0.10570000000E+00 0. -1.
<mgrwt>
<rscale>  0 0.13044405E+03</rscale>
<asrwt>0</asrwt>
<pdfrwt beam="1">  1        2 0.62651101E-01 0.13044405E+03</pdfrwt>
<pdfrwt beam="2">  1       -2 0.16070640E-02 0.13044405E+03</pdfrwt>
<totfact> 0.76209835E+04</totfact>
</mgrwt>
</event>
<event>
 4    1  0.3704929E-001  0.6793007E+02  0.7818608E-02  0.1367277E+00
          2   -1    0    0  501    0  0.00000000000E+00  0.00000000000E+00  0.89909795216E+01  0.89909798975E+01  0.26000000000E-02 0. -1.
         -2   -1    0    0    0  501 -0.00000000000E+00 -0.00000000000E+00 -0.12830899849E+03  0.12830899852E+03  0.26000000000E-02 0.  1.
        -13    1    1    2    0    0 -0.27989607749E+02  0.11727594904E+02 -0.28829456828E+02  0.41858133949E+02  0.10570000000E+00 0. -1.
         13    1    1    2    0    0  0.27989607749E+02 -0.11727594904E+02 -0.90488562141E+02  0.95441844466E+02  0.10570000000E+00 0.  1.
<mgrwt>
<rscale>  0 0.67930070E+02</rscale>
<asrwt>0</asrwt>
<pdfrwt beam="1">  1        2 0.13832277E-02 0.67930070E+02</pdfrwt>
<pdfrwt beam="2">  1       -2 0.19739845E-01 0.67930070E+02</pdfrwt>
<totfact> 0.15439309E+05</totfact>
</mgrwt>
</event>
<event>
 4    1  0.3704929E-001  0.2241585E+02  0.7818608E-02  0.1701158E+00
         -2   -1    0    0    0  501 -0.00000000000E+00  0.00000000000E+00  0.11226992924E+02  0.11226993225E+02  0.26000000000E-02 0.  1.
          2   -1    0    0  501    0  0.00000000000E+00 -0.00000000000E+00 -0.11188889609E+02  0.11188889911E+02  0.26000000000E-02 0. -1.
        -13    1    1    2    0    0  0.93333629194E+01 -0.55268878193E+01 -0.28002194093E+01  0.11203149271E+02  0.10570000000E+00 0.  1.
         13    1    1    2    0    0 -0.93333629194E+01  0.55268878193E+01  0.28383227248E+01  0.11212733865E+02  0.10570000000E+00 0. -1.
<mgrwt>
<rscale>  0 0.22415851E+02</rscale>
<asrwt>0</asrwt>
<pdfrwt beam="2">  1        2 0.17213677E-02 0.22415851E+02</pdfrwt>
<pdfrwt beam="1">  1       -2 0.17272297E-02 0.22415851E+02</pdfrwt>
<totfact> 0.30585113E+06</totfact>
</mgrwt>
</event>
<event>
 4    1  0.3704929E-001  0.2236027E+02  0.7818608E-02  0.1702095E+00
          2   -1    0    0  501    0  0.00000000000E+00  0.00000000000E+00  0.43295702620E+02  0.43295702698E+02  0.26000000000E-02 0. -1.
         -2   -1    0    0    0  501 -0.00000000000E+00 -0.00000000000E+00 -0.28870153982E+01  0.28870165690E+01  0.26000000000E-02 0.  1.
        -13    1    1    2    0    0  0.86138051439E+01 -0.60355134302E+01  0.12377855105E+02  0.16243384220E+02  0.10570000000E+00 0. -1.
         13    1    1    2    0    0 -0.86138051439E+01  0.60355134302E+01  0.28030832116E+02  0.29939335047E+02  0.10570000000E+00 0.  1.
<mgrwt>
<rscale>  0 0.22360267E+02</rscale>
<asrwt>0</asrwt>
<pdfrwt beam="1">  1        2 0.66608773E-02 0.22360267E+02</pdfrwt>
<pdfrwt beam="2">  1       -2 0.44415632E-03 0.22360267E+02</pdfrwt>
<totfact> 0.35282809E+06</totfact>
</mgrwt>
</event>
<event>
 4    1  0.3704929E-001  0.3390321E+02  0.7818608E-02  0.1558562E+00
         -2   -1    0    0    0  501 -0.00000000000E+00  0.00000000000E+00  0.80704439759E+02  0.80704439801E+02  0.26000000000E-02 0.  1.
          2   -1    0    0  501    0  0.00000000000E+00 -0.00000000000E+00 -0.35606070050E+01  0.35606079542E+01  0.26000000000E-02 0. -1.
        -13    1    1    2    0    0 -0.12597423146E+01  0.16862209834E+02  0.35605364808E+02  0.39416674730E+02  0.10570000000E+00 0.  1.
         13    1    1    2    0    0  0.12597423146E+01 -0.16862209834E+02  0.41538467946E+02  0.44848373025E+02  0.10570000000E+00 0. -1.
<mgrwt>
<rscale>  0 0.33903205E+02</rscale>
<asrwt>0</asrwt>
<pdfrwt beam="2">  1        2 0.54778581E-03 0.33903205E+02</pdfrwt>
<pdfrwt beam="1">  1       -2 0.12416067E-01 0.33903205E+02</pdfrwt>
<totfact> 0.94076959E+05</totfact>
</mgrwt>
</event>
<event>
 4    1  0.3704929E-001  0.2164928E+02  0.7818608E-02  0.1714389E+00
          2   -1    0    0  501    0  0.00000000000E+00  0.00000000000E+00  0.13760590189E+01  0.13760614752E+01  0.26000000000E-02 0.  1.
         -2   -1    0    0    0  501 -0.00000000000E+00 -0.00000000000E+00 -0.85150941404E+02  0.85150941444E+02  0.26000000000E-02 0. -1.
        -13    1    1    2    0    0 -0.43593070350E+01  0.96584799463E+01 -0.33065670357E+02  0.34722320219E+02  0.10570000000E+00 0. -1.
         13    1    1    2    0    0  0.43593070350E+01 -0.96584799463E+01 -0.50709212028E+02  0.51804682700E+02  0.10570000000E+00 0.  1.
<mgrwt>
<rscale>  0 0.21649280E+02</rscale>
<asrwt>0</asrwt>
<pdfrwt beam="1">  1        2 0.21170165E-03 0.21649280E+02</pdfrwt>
<pdfrwt beam="2">  1       -2 0.13100141E-01 0.21649280E+02</pdfrwt>
<totfact> 0.25919000E+06</totfact>
</mgrwt>
</event>
<event>
 4    1  0.3704929E-001  0.4409403E+02  0.7818608E-02  0.1480078E+00
         -2   -1    0    0    0  501 -0.00000000000E+00  0.00000000000E+00  0.62381939782E+01  0.62381945200E+01  0.26000000000E-02 0. -1.
          2   -1    0    0  501    0  0.00000000000E+00 -0.00000000000E+00 -0.77918519099E+02  0.77918519142E+02  0.26000000000E-02 0.  1.
        -13    1    1    2    0    0  0.17835748789E+02  0.11817691996E+02 -0.45991176117E+02  0.50724463843E+02  0.10570000000E+00 0.  1.
         13    1    1    2    0    0 -0.17835748789E+02 -0.11817691996E+02 -0.25689149003E+02  0.33432249819E+02  0.10570000000E+00 0. -1.
<mgrwt>
<rscale>  0 0.44094030E+02</rscale>
<asrwt>0</asrwt>
<pdfrwt beam="2">  1        2 0.11987464E-01 0.44094030E+02</pdfrwt>
<pdfrwt beam="1">  1       -2 0.95972225E-03 0.44094030E+02</pdfrwt>
<totfact> 0.77329523E+05</totfact>
</mgrwt>
</event>
<event>
 4    1  0.3704929E-001  0.4274811E+02  0.7818608E-02  0.1488910E+00
          2   -1    0    0  501    0  0.00000000000E+00  0.00000000000E+00  0.41874249466E+01  0.41874257537E+01  0.26000000000E-02 0.  1.
         -2   -1    0    0    0  501 -0.00000000000E+00 -0.00000000000E+00 -0.10910050962E+03  0.10910050965E+03  0.26000000000E-02 0. -1.
        -13    1    1    2    0    0  0.12178655469E+02 -0.15853804462E+02 -0.72495484038E+02  0.75201523544E+02  0.10570000000E+00 0.  1.
         13    1    1    2    0    0 -0.12178655469E+02  0.15853804462E+02 -0.32417600635E+02  0.38086411860E+02  0.10570000000E+00 0. -1.
<mgrwt>
<rscale>  0 0.42748111E+02</rscale>
<asrwt>0</asrwt>
<pdfrwt beam="1">  1        2 0.64421937E-03 0.42748111E+02</pdfrwt>
<pdfrwt beam="2">  1       -2 0.16784692E-01 0.42748111E+02</pdfrwt>
<totfact> 0.50482178E+05</totfact>
</mgrwt>
</event>
<event>
 4    1  0.3704929E-001  0.2786476E+02  0.7818608E-02  0.1622966E+00
         -2   -1    0    0    0  501 -0.00000000000E+00  0.00000000000E+00  0.17751458201E+01  0.17751477242E+01  0.26000000000E-02 0. -1.
          2   -1    0    0  501    0  0.00000000000E+00 -0.00000000000E+00 -0.10934940026E+03  0.10934940030E+03  0.26000000000E-02 0.  1.
        -13    1    1    2    0    0 -0.80304920218E+01  0.10495014681E+02 -0.71382248183E+02  0.72595252348E+02  0.10570000000E+00 0.  1.
         13    1    1    2    0    0  0.80304920218E+01 -0.10495014681E+02 -0.36192006261E+02  0.38529295672E+02  0.10570000000E+00 0. -1.
<mgrwt>
<rscale>  0 0.27864762E+02</rscale>
<asrwt>0</asrwt>
<pdfrwt beam="2">  1        2 0.16822980E-01 0.27864762E+02</pdfrwt>
<pdfrwt beam="1">  1       -2 0.27309959E-03 0.27864762E+02</pdfrwt>
<totfact> 0.25391632E+06</totfact>
</mgrwt>
</event>
<event>
 4    1  0.3704929E-001  0.2041287E+02  0.7818608E-02  0.1737240E+00
          2   -1    0    0  501    0  0.00000000000E+00  0.00000000000E+00  0.81077833716E+01  0.81077837885E+01  0.26000000000E-02 0. -1.
         -2   -1    0    0    0  501 -0.00000000000E+00 -0.00000000000E+00 -0.12848309576E+02  0.12848309840E+02  0.26000000000E-02 0.  1.
        -13    1    1    2    0    0  0.36822040787E+01 -0.93993996528E+01 -0.82938592266E+00  0.10129481438E+02  0.10570000000E+00 0.  1.
         13    1    1    2    0    0 -0.36822040787E+01  0.93993996528E+01 -0.39111402822E+01  0.10826612190E+02  0.10570000000E+00 0. -1.
<mgrwt>
<rscale>  0 0.20412870E+02</rscale>
<asrwt>0</asrwt>
<pdfrwt beam="1">  1        2 0.12473513E-02 0.20412870E+02</pdfrwt>
<pdfrwt beam="2">  1       -2 0.19766631E-02 0.20412870E+02</pdfrwt>
<totfact> 0.37074308E+06</totfact>
</mgrwt>
</event>
<event>
 4    1  0.3704929E-001  0.2117605E+02  0.7818608E-02  0.1722904E+00
         -2   -1    0    0    0  501 -0.00000000000E+00  0.00000000000E+00  0.30667814517E+01  0.30667825539E+01  0.26000000000E-02 0. -1.
          2   -1    0    0  501    0  0.00000000000E+00 -0.00000000000E+00 -0.36555030058E+02  0.36555030150E+02  0.26000000000E-02 0.  1.
        -13    1    1    2    0    0  0.10526183993E+02 -0.11057835258E+01 -0.16242648139E+02  0.19387060059E+02  0.10570000000E+00 0. -1.
         13    1    1    2    0    0 -0.10526183993E+02  0.11057835258E+01 -0.17245600467E+02  0.20234752645E+02  0.10570000000E+00 0.  1.
<mgrwt>
<rscale>  0 0.21176054E+02</rscale>
<asrwt>0</asrwt>
<pdfrwt beam="2">  1        2 0.56238506E-02 0.21176054E+02</pdfrwt>
<pdfrwt beam="1">  1       -2 0.47181265E-03 0.21176054E+02</pdfrwt>
<totfact> 0.39030017E+06</totfact>
</mgrwt>
</event>
<event>
 4    1  0.3704929E-001  0.8534350E+02  0.7818608E-02  0.1314537E+00
          2   -1    0    0  501    0  0.00000000000E+00  0.00000000000E+00  0.27300283502E+02  0.27300283626E+02  0.26000000000E-02 0.  1.
         -2   -1    0    0    0  501 -0.00000000000E+00 -0.00000000000E+00 -0.66698149689E+02  0.66698149740E+02  0.26000000000E-02 0. -1.
        -13    1    1    2    0    0  0.14891212960E+02 -0.15320423381E+02  0.20984873513E+02  0.29947281760E+02  0.10570000000E+00 0.  1.
         13    1    1    2    0    0 -0.14891212960E+02  0.15320423381E+02 -0.60382739699E+02  0.64051151606E+02  0.10570000000E+00 0. -1.
<mgrwt>
<rscale>  0 0.85343504E+02</rscale>
<asrwt>0</asrwt>
<pdfrwt beam="1">  1        2 0.42000437E-02 0.85343504E+02</pdfrwt>
<pdfrwt beam="2">  1       -2 0.10261254E-01 0.85343504E+02</pdfrwt>
<totfact> 0.10493589E+05</totfact>
</mgrwt>
</event>
<event>
 4    1  0.3704929E-001  0.2758062E+02  0.7818608E-02  0.1626482E+00
          2   -1    0    0  501    0  0.00000000000E+00  0.00000000000E+00  0.55763648792E+01  0.55763654853E+01  0.26000000000E-02 0.  1.
         -2   -1    0    0    0  501 -0.00000000000E+00 -0.00000000000E+00 -0.34103335650E+02  0.34103335750E+02  0.26000000000E-02 0. -1.
        -13    1    1    2    0    0  0.91669674634E+01 -0.64866210679E+01 -0.27493719882E+01  0.11561996548E+02  0.10570000000E+00 0.  1.
         13    1    1    2    0    0 -0.91669674634E+01  0.64866210679E+01 -0.25777598783E+02  0.28117704687E+02  0.10570000000E+00 0. -1.
<mgrwt>
<rscale>  0 0.27580621E+02</rscale>
<asrwt>0</asrwt>
<pdfrwt beam="1">  1        2 0.85790236E-03 0.27580621E+02</pdfrwt>
<pdfrwt beam="2">  1       -2 0.52466670E-02 0.27580621E+02</pdfrwt>
<totfact> 0.17364402E+06</totfact>
</mgrwt>
</event>
<event>
 4    1  0.3704929E-001  0.3555556E+02  0.7818608E-02  0.1543722E+00
         -2   -1    0    0    0  501 -0.00000000000E+00  0.00000000000E+00  0.62249773825E+02  0.62249773879E+02  0.26000000000E-02 0.  1.
          2   -1    0    0  501    0  0.00000000000E+00 -0.00000000000E+00 -0.50771165053E+01  0.50771171710E+01  0.26000000000E-02 0. -1.
        -13    1    1    2    0    0  0.10591082430E+02 -0.55416612018E+01  0.36690083957E+01  0.12504152551E+02  0.10570000000E+00 0. -1.
         13    1    1    2    0    0 -0.10591082430E+02  0.55416612018E+01  0.53503648924E+02  0.54822738499E+02  0.10570000000E+00 0.  1.
<mgrwt>
<rscale>  0 0.35555555E+02</rscale>
<asrwt>0</asrwt>
<pdfrwt beam="2">  1        2 0.78109490E-03 0.35555555E+02</pdfrwt>
<pdfrwt beam="1">  1       -2 0.95768884E-02 0.35555555E+02</pdfrwt>
<totfact> 0.88410148E+05</totfact>
</mgrwt>
</event>
<event>
 4    1  0.3704929E-001  0.2403919E+02  0.7818608E-02  0.1675199E+00
          2   -1    0    0  501    0  0.00000000000E+00  0.00000000000E+00  0.14633602083E+02  0.14633602314E+02  0.26000000000E-02 0. -1.
         -2   -1    0    0    0  501 -0.00000000000E+00 -0.00000000000E+00 -0.98725265787E+01  0.98725269210E+01  0.26000000000E-02 0.  1.
        -13    1    1    2    0    0  0.80333153967E+01 -0.75720742550E+01  0.72256449902E+01  0.13194376939E+02  0.10570000000E+00 0. -1.
         13    1    1    2    0    0 -0.80333153967E+01  0.75720742550E+01 -0.24645694854E+01  0.11311752297E+02  0.10570000000E+00 0.  1.
<mgrwt>
<rscale>  0 0.24039187E+02</rscale>
<asrwt>0</asrwt>
<pdfrwt beam="1">  1        2 0.22513234E-02 0.24039187E+02</pdfrwt>
<pdfrwt beam="2">  1       -2 0.15188503E-02 0.24039187E+02</pdfrwt>
<totfact> 0.26561313E+06</totfact>
</mgrwt>
</event>
<event>
 4    1  0.3704929E-001  0.3958159E+02  0.7818608E-02  0.1511313E+00
         -2   -1    0    0    0  501 -0.00000000000E+00  0.00000000000E+00  0.47525080753E+01  0.47525087865E+01  0.26000000000E-02 0. -1.
          2   -1    0    0  501    0  0.00000000000E+00 -0.00000000000E+00 -0.82414497621E+02  0.82414497662E+02  0.26000000000E-02 0.  1.
        -13    1    1    2    0    0  0.12652943335E+02  0.13161862562E+02 -0.55650583850E+02  0.58569021304E+02  0.10570000000E+00 0.  1.
         13    1    1    2    0    0 -0.12652943335E+02 -0.13161862562E+02 -0.22011405696E+02  0.28597985145E+02  0.10570000000E+00 0. -1.
<mgrwt>
<rscale>  0 0.39581592E+02</rscale>
<asrwt>0</asrwt>
<pdfrwt beam="2">  1        2 0.12679152E-01 0.39581592E+02</pdfrwt>
<pdfrwt beam="1">  1       -2 0.73115521E-03 0.39581592E+02</pdfrwt>
<totfact> 0.10237477E+06</totfact>
</mgrwt>
</event>
<event>
 4    1  0.3704929E-001  0.4104654E+02  0.7818608E-02  0.1500648E+00
         -2   -1    0    0    0  501 -0.00000000000E+00  0.00000000000E+00  0.36006563576E+02  0.36006563670E+02  0.26000000000E-02 0.  1.
          2   -1    0    0  501    0  0.00000000000E+00 -0.00000000000E+00 -0.11697993887E+02  0.11697994176E+02  0.26000000000E-02 0. -1.
        -13    1    1    2    0    0 -0.60997197300E+01 -0.18780122542E+02  0.18655770204E+02  0.27165207857E+02  0.10570000000E+00 0. -1.
         13    1    1    2    0    0  0.60997197300E+01  0.18780122542E+02  0.56527994851E+01  0.20539349990E+02  0.10570000000E+00 0.  1.
<mgrwt>
<rscale>  0 0.41046538E+02</rscale>
<asrwt>0</asrwt>
<pdfrwt beam="2">  1        2 0.17996914E-02 0.41046538E+02</pdfrwt>
<pdfrwt beam="1">  1       -2 0.55394713E-02 0.41046538E+02</pdfrwt>
<totfact> 0.68622410E+05</totfact>
</mgrwt>
</event>
<event>
 4    1  0.3704929E-001  0.3806551E+02  0.7818608E-02  0.1522950E+00
         -2   -1    0    0    0  501 -0.00000000000E+00  0.00000000000E+00  0.25592147908E+01  0.25592161115E+01  0.26000000000E-02 0.  1.
          2   -1    0    0  501    0  0.00000000000E+00 -0.00000000000E+00 -0.14154560557E+03  0.14154560559E+03  0.26000000000E-02 0. -1.
        -13    1    1    2    0    0 -0.18634589000E+02 -0.14075854845E+01 -0.55840841297E+02  0.58884972050E+02  0.10570000000E+00 0. -1.
         13    1    1    2    0    0  0.18634589000E+02  0.14075854845E+01 -0.83145549483E+02  0.85219849656E+02  0.10570000000E+00 0.  1.
<mgrwt>
<rscale>  0 0.38065507E+02</rscale>
<asrwt>0</asrwt>
<pdfrwt beam="2">  1        2 0.21776241E-01 0.38065507E+02</pdfrwt>
<pdfrwt beam="1">  1       -2 0.39372557E-03 0.38065507E+02</pdfrwt>
<totfact> 0.12953576E+06</totfact>
</mgrwt>
</event>
<event>
 4    1  0.3704929E-001  0.2071278E+02  0.7818608E-02  0.1731514E+00
         -2   -1    0    0    0  501 -0.00000000000E+00  0.00000000000E+00  0.34734495552E+01  0.34734505282E+01  0.26000000000E-02 0. -1.
          2   -1    0    0  501    0  0.00000000000E+00 -0.00000000000E+00 -0.30878468611E+02  0.30878468721E+02  0.26000000000E-02 0.  1.
        -13    1    1    2    0    0  0.55292185394E+01 -0.84202833387E+01 -0.17686412788E+02  0.20354208385E+02  0.10570000000E+00 0.  1.
         13    1    1    2    0    0 -0.55292185394E+01  0.84202833387E+01 -0.97186062680E+01  0.13997710864E+02  0.10570000000E+00 0. -1.
<mgrwt>
<rscale>  0 0.20712781E+02</rscale>
<asrwt>0</asrwt>
<pdfrwt beam="2">  1        2 0.47505335E-02 0.20712781E+02</pdfrwt>
<pdfrwt beam="1">  1       -2 0.53437696E-03 0.20712781E+02</pdfrwt>
<totfact> 0.40215073E+06</totfact>
</mgrwt>
</event>
<event>
 4    1  0.3704929E-001  0.2964379E+02  0.7818608E-02  0.1602060E+00
          2   -1    0    0  501    0  0.00000000000E+00  0.00000000000E+00  0.16114706650E+03  0.16114706652E+03  0.26000000000E-02 0.  1.
         -2   -1    0    0    0  501 -0.00000000000E+00 -0.00000000000E+00 -0.13632787297E+01  0.13632812090E+01  0.26000000000E-02 0. -1.
        -13    1    1    2    0    0 -0.56312623776E+01  0.13652113096E+02  0.72987726416E+02  0.74466842875E+02  0.10570000000E+00 0. -1.
         13    1    1    2    0    0  0.56312623776E+01 -0.13652113096E+02  0.86796061351E+02  0.88043504851E+02  0.10570000000E+00 0.  1.
<mgrwt>
<rscale>  0 0.29643790E+02</rscale>
<asrwt>0</asrwt>
<pdfrwt beam="1">  1        2 0.24791863E-01 0.29643790E+02</pdfrwt>
<pdfrwt beam="2">  1       -2 0.20973533E-03 0.29643790E+02</pdfrwt>
<totfact> 0.24419714E+06</totfact>
</mgrwt>
</event>
<event>
 4    1  0.3704929E-001  0.2168404E+02  0.7818608E-02  0.1713774E+00
          2   -1    0    0  501    0  0.00000000000E+00  0.00000000000E+00  0.23426611531E+02  0.23426611675E+02  0.26000000000E-02 0. -1.
         -2   -1    0    0    0  501 -0.00000000000E+00 -0.00000000000E+00 -0.50177736709E+01  0.50177743445E+01  0.26000000000E-02 0.  1.
        -13    1    1    2    0    0 -0.81157747430E+01  0.71870809906E+01  0.93820691839E+01  0.14337165951E+02  0.10570000000E+00 0.  1.
         13    1    1    2    0    0  0.81157747430E+01 -0.71870809906E+01  0.90267686758E+01  0.14107220068E+02  0.10570000000E+00 0. -1.
<mgrwt>
<rscale>  0 0.21684044E+02</rscale>
<asrwt>0</asrwt>
<pdfrwt beam="1">  1        2 0.36040940E-02 0.21684044E+02</pdfrwt>
<pdfrwt beam="2">  1       -2 0.77196527E-03 0.21684044E+02</pdfrwt>
<totfact> 0.35202436E+06</totfact>
</mgrwt>
</event>
<event>
 4    1  0.3704929E-001  0.2359889E+02  0.7818608E-02  0.1681982E+00
          2   -1    0    0  501    0  0.00000000000E+00  0.00000000000E+00  0.54026432643E+02  0.54026432706E+02  0.26000000000E-02 0.  1.
         -2   -1    0    0    0  501 -0.00000000000E+00 -0.00000000000E+00 -0.25770143623E+01  0.25770156739E+01  0.26000000000E-02 0. -1.
        -13    1    1    2    0    0  0.28057480330E+01  0.10173249544E+02  0.13067078650E+02  0.16796634938E+02  0.10570000000E+00 0. -1.
         13    1    1    2    0    0 -0.28057480330E+01 -0.10173249544E+02  0.38382339631E+02  0.39806813442E+02  0.10570000000E+00 0.  1.
<mgrwt>
<rscale>  0 0.23598892E+02</rscale>
<asrwt>0</asrwt>
<pdfrwt beam="1">  1        2 0.83117587E-02 0.23598892E+02</pdfrwt>
<pdfrwt beam="2">  1       -2 0.39646387E-03 0.23598892E+02</pdfrwt>
<totfact> 0.32264359E+06</totfact>
</mgrwt>
</event>
<event>
 4    1  0.3704929E-001  0.2694109E+02  0.7818608E-02  0.1634591E+00
          2   -1    0    0  501    0  0.00000000000E+00  0.00000000000E+00  0.18244241093E+01  0.18244259620E+01  0.26000000000E-02 0.  1.
         -2   -1    0    0    0  501 -0.00000000000E+00 -0.00000000000E+00 -0.99459021739E+02  0.99459021773E+02  0.26000000000E-02 0. -1.
        -13    1    1    2    0    0 -0.11566360059E+02 -0.39074750628E+01 -0.27419728149E+02  0.30015024748E+02  0.10570000000E+00 0.  1.
         13    1    1    2    0    0  0.11566360059E+02  0.39074750628E+01 -0.70214869480E+02  0.71268422987E+02  0.10570000000E+00 0. -1.
<mgrwt>
<rscale>  0 0.26941086E+02</rscale>
<asrwt>0</asrwt>
<pdfrwt beam="1">  1        2 0.28068085E-03 0.26941086E+02</pdfrwt>
<pdfrwt beam="2">  1       -2 0.15301384E-01 0.26941086E+02</pdfrwt>
<totfact> 0.15298086E+06</totfact>
</mgrwt>
</event>
<event>
 4    1  0.3704929E-001  0.5490811E+02  0.7818608E-02  0.1420534E+00
         -2   -1    0    0    0  501 -0.00000000000E+00  0.00000000000E+00  0.22381308085E+02  0.22381308236E+02  0.26000000000E-02 0.  1.
          2   -1    0    0  501    0  0.00000000000E+00 -0.00000000000E+00 -0.33676551124E+02  0.33676551224E+02  0.26000000000E-02 0. -1.
        -13    1    1    2    0    0 -0.11183545916E+02 -0.22830222706E+02 -0.16229171467E+02  0.30161033587E+02  0.10570000000E+00 0. -1.
         13    1    1    2    0    0  0.11183545916E+02  0.22830222706E+02  0.49339284279E+01  0.25896825873E+02  0.10570000000E+00 0.  1.
<mgrwt>
<rscale>  0 0.54908115E+02</rscale>
<asrwt>0</asrwt>
<pdfrwt beam="2">  1        2 0.51810079E-02 0.54908115E+02</pdfrwt>
<pdfrwt beam="1">  1       -2 0.34432782E-02 0.54908115E+02</pdfrwt>
<totfact> 0.37403917E+05</totfact>
</mgrwt>
</event>
<event>
 4    1  0.3704929E-001  0.4611507E+02  0.7818608E-02  0.1467498E+00
         -2   -1    0    0    0  501 -0.00000000000E+00  0.00000000000E+00  0.12459801809E+02  0.12459802080E+02  0.26000000000E-02 0.  1.
          2   -1    0    0  501    0  0.00000000000E+00 -0.00000000000E+00 -0.42669218727E+02  0.42669218807E+02  0.26000000000E-02 0. -1.
        -13    1    1    2    0    0 -0.28699797610E+01 -0.13166379670E+02 -0.37471386317E+02  0.39820927946E+02  0.10570000000E+00 0. -1.
         13    1    1    2    0    0  0.28699797610E+01  0.13166379670E+02  0.72619693987E+01  0.15308092941E+02  0.10570000000E+00 0.  1.
<mgrwt>
<rscale>  0 0.46115074E+02</rscale>
<asrwt>0</asrwt>
<pdfrwt beam="2">  1        2 0.65644951E-02 0.46115074E+02</pdfrwt>
<pdfrwt beam="1">  1       -2 0.19168926E-02 0.46115074E+02</pdfrwt>
<totfact> 0.61327745E+05</totfact>
</mgrwt>
</event>
<event>
 4    1  0.3704929E-001  0.6641653E+02  0.7818608E-02  0.1372721E+00
         -2   -1    0    0    0  501 -0.00000000000E+00  0.00000000000E+00  0.17483047263E+02  0.17483047456E+02  0.26000000000E-02 0.  1.
          2   -1    0    0  501    0  0.00000000000E+00 -0.00000000000E+00 -0.63077603966E+02  0.63077604020E+02  0.26000000000E-02 0. -1.
        -13    1    1    2    0    0 -0.68609169573E+01  0.32367508361E+02 -0.26238709480E+02  0.42228057340E+02  0.10570000000E+00 0. -1.
         13    1    1    2    0    0  0.68609169573E+01 -0.32367508361E+02 -0.19355847223E+02  0.38332594136E+02  0.10570000000E+00 0.  1.
<mgrwt>
<rscale>  0 0.66416526E+02</rscale>
<asrwt>0</asrwt>
<pdfrwt beam="2">  1        2 0.97042466E-02 0.66416526E+02</pdfrwt>
<pdfrwt beam="1">  1       -2 0.26896996E-02 0.66416526E+02</pdfrwt>
<totfact> 0.25596193E+05</totfact>
</mgrwt>
</event>
<event>
 4    1  0.3704929E-001  0.2421572E+02  0.7818608E-02  0.1672529E+00
         -2   -1    0    0    0  501 -0.00000000000E+00  0.00000000000E+00  0.41334908967E+02  0.41334909049E+02  0.26000000000E-02 0.  1.
          2   -1    0    0  501    0  0.00000000000E+00 -0.00000000000E+00 -0.35466444942E+01  0.35466454472E+01  0.26000000000E-02 0. -1.
        -13    1    1    2    0    0 -0.37851606189E+01 -0.11355066035E+02  0.15514975053E+02  0.19595677813E+02  0.10570000000E+00 0. -1.
         13    1    1    2    0    0  0.37851606189E+01  0.11355066035E+02  0.22273289419E+02  0.25285876683E+02  0.10570000000E+00 0.  1.
<mgrwt>
<rscale>  0 0.24215718E+02</rscale>
<asrwt>0</asrwt>
<pdfrwt beam="2">  1        2 0.54563769E-03 0.24215718E+02</pdfrwt>
<pdfrwt beam="1">  1       -2 0.63592169E-02 0.24215718E+02</pdfrwt>
<totfact> 0.22762728E+06</totfact>
</mgrwt>
</event>
<event>
 4    1  0.3704929E-001  0.1188405E+03  0.7818608E-02  0.1245022E+00
          2   -1    0    0  501    0  0.00000000000E+00  0.00000000000E+00  0.28352680684E+02  0.28352680803E+02  0.26000000000E-02 0. -1.
         -2   -1    0    0    0  501 -0.00000000000E+00 -0.00000000000E+00 -0.12453021947E+03  0.12453021950E+03  0.26000000000E-02 0.  1.
        -13    1    1    2    0    0  0.26804206289E+02 -0.11395568096E+02 -0.11471705987E+03  0.11835683100E+03  0.10570000000E+00 0.  1.
         13    1    1    2    0    0 -0.26804206289E+02  0.11395568096E+02  0.18539521081E+02  0.34526069302E+02  0.10570000000E+00 0. -1.
<mgrwt>
<rscale>  0 0.11884049E+03</rscale>
<asrwt>0</asrwt>
<pdfrwt beam="1">  1        2 0.43619509E-02 0.11884049E+03</pdfrwt>
<pdfrwt beam="2">  1       -2 0.19158495E-01 0.11884049E+03</pdfrwt>
<totfact> 0.38328165E+04</totfact>
</mgrwt>
</event>
<event>
 4    1  0.3704929E-001  0.2590888E+02  0.7818608E-02  0.1648280E+00
         -2   -1    0    0    0  501 -0.00000000000E+00  0.00000000000E+00  0.98457884583E+02  0.98457884617E+02  0.26000000000E-02 0.  1.
          2   -1    0    0  501    0  0.00000000000E+00 -0.00000000000E+00 -0.17044583467E+01  0.17044603298E+01  0.26000000000E-02 0. -1.
        -13    1    1    2    0    0 -0.55543804688E+01  0.11516339320E+02  0.56420371470E+02  0.57851073482E+02  0.10570000000E+00 0.  1.
         13    1    1    2    0    0  0.55543804688E+01 -0.11516339320E+02  0.40333054766E+02  0.42311271464E+02  0.10570000000E+00 0. -1.
<mgrwt>
<rscale>  0 0.25908876E+02</rscale>
<asrwt>0</asrwt>
<pdfrwt beam="2">  1        2 0.26222447E-03 0.25908876E+02</pdfrwt>
<pdfrwt beam="1">  1       -2 0.15147370E-01 0.25908876E+02</pdfrwt>
<totfact> 0.16763333E+06</totfact>
</mgrwt>
</event>
<event>
 4    1  0.3704929E-001  0.2824777E+02  0.7818608E-02  0.1618306E+00
          2   -1    0    0  501    0  0.00000000000E+00  0.00000000000E+00  0.64043070752E+02  0.64043070805E+02  0.26000000000E-02 0.  1.
         -2   -1    0    0    0  501 -0.00000000000E+00 -0.00000000000E+00 -0.31148423565E+01  0.31148434417E+01  0.26000000000E-02 0. -1.
        -13    1    1    2    0    0 -0.69257513081E+01 -0.74251220556E+01  0.71244799461E+01  0.12404348258E+02  0.10570000000E+00 0. -1.
         13    1    1    2    0    0  0.69257513081E+01  0.74251220556E+01  0.53803748449E+02  0.54753565988E+02  0.10570000000E+00 0.  1.
<mgrwt>
<rscale>  0 0.28247769E+02</rscale>
<asrwt>0</asrwt>
<pdfrwt beam="1">  1        2 0.98527798E-02 0.28247769E+02</pdfrwt>
<pdfrwt beam="2">  1       -2 0.47920662E-03 0.28247769E+02</pdfrwt>
<totfact> 0.21894408E+06</totfact>
</mgrwt>
</event>
<event>
 4    1  0.3704929E-001  0.2439353E+02  0.7818608E-02  0.1669869E+00
          2   -1    0    0  501    0  0.00000000000E+00  0.00000000000E+00  0.82003627200E+01  0.82003631322E+01  0.26000000000E-02 0. -1.
         -2   -1    0    0    0  501 -0.00000000000E+00 -0.00000000000E+00 -0.18140787302E+02  0.18140787488E+02  0.26000000000E-02 0.  1.
        -13    1    1    2    0    0  0.11479967668E+02  0.35873565061E+01 -0.71543473601E+01  0.13994807715E+02  0.10570000000E+00 0.  1.
         13    1    1    2    0    0 -0.11479967668E+02 -0.35873565061E+01 -0.27860772221E+01  0.12346342905E+02  0.10570000000E+00 0. -1.
<mgrwt>
<rscale>  0 0.24393527E+02</rscale>
<asrwt>0</asrwt>
<pdfrwt beam="1">  1        2 0.12615943E-02 0.24393527E+02</pdfrwt>
<pdfrwt beam="2">  1       -2 0.27908904E-02 0.24393527E+02</pdfrwt>
<totfact> 0.24403915E+06</totfact>
</mgrwt>
</event>
<event>
 4    1  0.3704929E-001  0.5518898E+02  0.7818608E-02  0.1419207E+00
         -2   -1    0    0    0  501 -0.00000000000E+00  0.00000000000E+00  0.33473174146E+01  0.33473184243E+01  0.26000000000E-02 0.  1.
          2   -1    0    0  501    0  0.00000000000E+00 -0.00000000000E+00 -0.22748241716E+03  0.22748241718E+03  0.26000000000E-02 0. -1.
        -13    1    1    2    0    0 -0.24499516396E+02 -0.12657379358E+02 -0.11626937482E+03  0.11949482939E+03  0.10570000000E+00 0.  1.
         13    1    1    2    0    0  0.24499516396E+02  0.12657379358E+02 -0.10786572492E+03  0.11133490621E+03  0.10570000000E+00 0. -1.
<mgrwt>
<rscale>  0 0.55188983E+02</rscale>
<asrwt>0</asrwt>
<pdfrwt beam="2">  1        2 0.34997283E-01 0.55188983E+02</pdfrwt>
<pdfrwt beam="1">  1       -2 0.51497217E-03 0.55188983E+02</pdfrwt>
<totfact> 0.59972877E+05</totfact>
</mgrwt>
</event>
<event>
 4    1  0.3704929E-001  0.2373430E+02  0.7818608E-02  0.1679877E+00
          2   -1    0    0  501    0  0.00000000000E+00  0.00000000000E+00  0.49083252166E+01  0.49083259052E+01  0.26000000000E-02 0. -1.
         -2   -1    0    0    0  501 -0.00000000000E+00 -0.00000000000E+00 -0.28691915206E+02  0.28691915324E+02  0.26000000000E-02 0.  1.
        -13    1    1    2    0    0 -0.43635169213E+01 -0.96665086603E+01 -0.43558372807E+01  0.11465869374E+02  0.10570000000E+00 0.  1.
         13    1    1    2    0    0  0.43635169213E+01  0.96665086603E+01 -0.19427752709E+02  0.22134371855E+02  0.10570000000E+00 0. -1.
<mgrwt>
<rscale>  0 0.23734301E+02</rscale>
<asrwt>0</asrwt>
<pdfrwt beam="1">  1        2 0.75512704E-03 0.23734301E+02</pdfrwt>
<pdfrwt beam="2">  1       -2 0.44141407E-02 0.23734301E+02</pdfrwt>
<totfact> 0.24829808E+06</totfact>
</mgrwt>
</event>
<event>
 4    1  0.3704929E-001  0.4904660E+02  0.7818608E-02  0.1450553E+00
         -2   -1    0    0    0  501 -0.00000000000E+00  0.00000000000E+00  0.14321568279E+03  0.14321568281E+03  0.26000000000E-02 0. -1.
          2   -1    0    0  501    0  0.00000000000E+00 -0.00000000000E+00 -0.41992063801E+01  0.41992071850E+01  0.26000000000E-02 0.  1.
        -13    1    1    2    0    0 -0.14909479806E+02 -0.18161586334E+02  0.90600093891E+02  0.93597670868E+02  0.10570000000E+00 0.  1.
         13    1    1    2    0    0  0.14909479806E+02  0.18161586334E+02  0.48416382516E+02  0.53817219128E+02  0.10570000000E+00 0. -1.
<mgrwt>
<rscale>  0 0.49046601E+02</rscale>
<asrwt>0</asrwt>
<pdfrwt beam="2">  1        2 0.64603192E-03 0.49046601E+02</pdfrwt>
<pdfrwt beam="1">  1       -2 0.22033178E-01 0.49046601E+02</pdfrwt>
<totfact> 0.33390489E+05</totfact>
</mgrwt>
</event>
<event>
 4    1  0.3704929E-001  0.7487374E+02  0.7818608E-02  0.1344262E+00
         -2   -1    0    0    0  501 -0.00000000000E+00  0.00000000000E+00  0.21615167017E+03  0.21615167018E+03  0.26000000000E-02 0.  1.
          2   -1    0    0  501    0  0.00000000000E+00 -0.00000000000E+00 -0.64839624990E+01  0.64839630203E+01  0.26000000000E-02 0. -1.
        -13    1    1    2    0    0  0.33407747290E+02 -0.15065458628E+02  0.82098372992E+02  0.89906616236E+02  0.10570000000E+00 0. -1.
         13    1    1    2    0    0 -0.33407747290E+02  0.15065458628E+02  0.12756933468E+03  0.13272901697E+03  0.10570000000E+00 0.  1.
<mgrwt>
<rscale>  0 0.74873744E+02</rscale>
<asrwt>0</asrwt>
<pdfrwt beam="2">  1        2 0.99753277E-03 0.74873744E+02</pdfrwt>
<pdfrwt beam="1">  1       -2 0.33254102E-01 0.74873744E+02</pdfrwt>
<totfact> 0.99453393E+04</totfact>
</mgrwt>
</event>
<event>
 4    1  0.3704929E-001  0.4597765E+02  0.7818608E-02  0.1468329E+00
          2   -1    0    0  501    0  0.00000000000E+00  0.00000000000E+00  0.17736057615E+02  0.17736057806E+02  0.26000000000E-02 0.  1.
         -2   -1    0    0    0  501 -0.00000000000E+00 -0.00000000000E+00 -0.29797263762E+02  0.29797263876E+02  0.26000000000E-02 0. -1.
        -13    1    1    2    0    0  0.10699004639E+02  0.19877000756E+02 -0.15347900404E+01  0.22625883679E+02  0.10570000000E+00 0.  1.
         13    1    1    2    0    0 -0.10699004639E+02 -0.19877000756E+02 -0.10526416107E+02  0.24907438002E+02  0.10570000000E+00 0. -1.
<mgrwt>
<rscale>  0 0.45977646E+02</rscale>
<asrwt>0</asrwt>
<pdfrwt beam="1">  1        2 0.27286243E-02 0.45977646E+02</pdfrwt>
<pdfrwt beam="2">  1       -2 0.45841944E-02 0.45977646E+02</pdfrwt>
<totfact> 0.54010584E+05</totfact>
</mgrwt>
</event>
<event>
 4    1  0.3704929E-001  0.6646400E+02  0.7818608E-02  0.1372548E+00
         -2   -1    0    0    0  501 -0.00000000000E+00  0.00000000000E+00  0.50735031189E+02  0.50735031256E+02  0.26000000000E-02 0.  1.
          2   -1    0    0  501    0  0.00000000000E+00 -0.00000000000E+00 -0.21767325361E+02  0.21767325516E+02  0.26000000000E-02 0. -1.
        -13    1    1    2    0    0  0.23432210559E+01 -0.24380165485E+02  0.38984863221E+02  0.46040350637E+02  0.10570000000E+00 0. -1.
         13    1    1    2    0    0 -0.23432210559E+01  0.24380165485E+02 -0.10017157392E+02  0.26462006135E+02  0.10570000000E+00 0.  1.
<mgrwt>
<rscale>  0 0.66464003E+02</rscale>
<asrwt>0</asrwt>
<pdfrwt beam="2">  1        2 0.33488193E-02 0.66464003E+02</pdfrwt>
<pdfrwt beam="1">  1       -2 0.78053894E-02 0.66464003E+02</pdfrwt>
<totfact> 0.20481232E+05</totfact>
</mgrwt>
</event>
<event>
 4    1  0.3704929E-001  0.4385812E+02  0.7818608E-02  0.1481599E+00
         -2   -1    0    0    0  501 -0.00000000000E+00  0.00000000000E+00  0.20483363082E+03  0.20483363084E+03  0.26000000000E-02 0.  1.
          2   -1    0    0  501    0  0.00000000000E+00 -0.00000000000E+00 -0.23476787013E+01  0.23476801410E+01  0.26000000000E-02 0. -1.
        -13    1    1    2    0    0 -0.21912151257E+02 -0.44447429729E+00  0.97795498900E+02  0.10022130865E+03  0.10570000000E+00 0. -1.
         13    1    1    2    0    0  0.21912151257E+02  0.44447429729E+00  0.10469045322E+03  0.10696000233E+03  0.10570000000E+00 0.  1.
<mgrwt>
<rscale>  0 0.43858121E+02</rscale>
<asrwt>0</asrwt>
<pdfrwt beam="2">  1        2 0.36118133E-03 0.43858121E+02</pdfrwt>
<pdfrwt beam="1">  1       -2 0.31512877E-01 0.43858121E+02</pdfrwt>
<totfact> 0.38444462E+05</totfact>
</mgrwt>
</event>
<event>
 4    1  0.3704929E-001  0.7642024E+02  0.7818608E-02  0.1339529E+00
         -2   -1    0    0    0  501 -0.00000000000E+00  0.00000000000E+00  0.12400919352E+03  0.12400919355E+03  0.26000000000E-02 0.  1.
          2   -1    0    0  501    0  0.00000000000E+00 -0.00000000000E+00 -0.11773429025E+02  0.11773429312E+02  0.26000000000E-02 0. -1.
        -13    1    1    2    0    0  0.34685678198E+02  0.98709794603E+01  0.33680356458E+02  0.49344808148E+02  0.10570000000E+00 0. -1.
         13    1    1    2    0    0 -0.34685678198E+02 -0.98709794603E+01  0.78555408037E+02  0.86437814711E+02  0.10570000000E+00 0.  1.
<mgrwt>
<rscale>  0 0.76420245E+02</rscale>
<asrwt>0</asrwt>
<pdfrwt beam="2">  1        2 0.18112967E-02 0.76420245E+02</pdfrwt>
<pdfrwt beam="1">  1       -2 0.19078339E-01 0.76420245E+02</pdfrwt>
<totfact> 0.11622909E+05</totfact>
</mgrwt>
</event>
<event>
 4    1  0.3704929E-001  0.2835312E+02  0.7818608E-02  0.1617040E+00
         -2   -1    0    0    0  501 -0.00000000000E+00  0.00000000000E+00  0.83736249695E+01  0.83736253732E+01  0.26000000000E-02 0.  1.
          2   -1    0    0  501    0  0.00000000000E+00 -0.00000000000E+00 -0.24000930645E+02  0.24000930786E+02  0.26000000000E-02 0. -1.
        -13    1    1    2    0    0 -0.26997734976E+01 -0.11216237225E+02 -0.17220514232E+02  0.20728001286E+02  0.10570000000E+00 0. -1.
         13    1    1    2    0    0  0.26997734976E+01  0.11216237225E+02  0.15932085562E+01  0.11646554873E+02  0.10570000000E+00 0.  1.
<mgrwt>
<rscale>  0 0.28353116E+02</rscale>
<asrwt>0</asrwt>
<pdfrwt beam="2">  1        2 0.36924509E-02 0.28353116E+02</pdfrwt>
<pdfrwt beam="1">  1       -2 0.12882500E-02 0.28353116E+02</pdfrwt>
<totfact> 0.18853889E+06</totfact>
</mgrwt>
</event>
<event>
 4    1  0.3704929E-001  0.2499212E+02  0.7818608E-02  0.1661115E+00
          2   -1    0    0  501    0  0.00000000000E+00  0.00000000000E+00  0.51032993271E+01  0.51032999894E+01  0.26000000000E-02 0. -1.
         -2   -1    0    0    0  501 -0.00000000000E+00 -0.00000000000E+00 -0.30598149218E+02  0.30598149329E+02  0.26000000000E-02 0.  1.
        -13    1    1    2    0    0  0.10421649748E+02 -0.66976444568E+01 -0.15082120823E+02  0.19517960081E+02  0.10570000000E+00 0.  1.
         13    1    1    2    0    0 -0.10421649748E+02  0.66976444568E+01 -0.10412729068E+02  0.16183489237E+02  0.10570000000E+00 0. -1.
<mgrwt>
<rscale>  0 0.24992121E+02</rscale>
<asrwt>0</asrwt>
<pdfrwt beam="1">  1        2 0.78512305E-03 0.24992121E+02</pdfrwt>
<pdfrwt beam="2">  1       -2 0.47074075E-02 0.24992121E+02</pdfrwt>
<totfact> 0.21968503E+06</totfact>
</mgrwt>
</event>
<event>
 4    1  0.3704929E-001  0.3047498E+02  0.7818608E-02  0.1592897E+00
          2   -1    0    0  501    0  0.00000000000E+00  0.00000000000E+00  0.73799980450E+01  0.73799985030E+01  0.26000000000E-02 0.  1.
         -2   -1    0    0    0  501 -0.00000000000E+00 -0.00000000000E+00 -0.31460857011E+02  0.31460857118E+02  0.26000000000E-02 0. -1.
        -13    1    1    2    0    0  0.10972979325E+01 -0.14666987419E+02 -0.17113791793E+02  0.22565850853E+02  0.10570000000E+00 0. -1.
         13    1    1    2    0    0 -0.10972979325E+01  0.14666987419E+02 -0.69670671724E+01  0.16275004768E+02  0.10570000000E+00 0.  1.
<mgrwt>
<rscale>  0 0.30474978E+02</rscale>
<asrwt>0</asrwt>
<pdfrwt beam="1">  1        2 0.11353844E-02 0.30474978E+02</pdfrwt>
<pdfrwt beam="2">  1       -2 0.48401318E-02 0.30474978E+02</pdfrwt>
<totfact> 0.13956520E+06</totfact>
</mgrwt>
</event>
<event>
 4    1  0.3704929E-001  0.2397893E+02  0.7818608E-02  0.1676116E+00
          2   -1    0    0  501    0  0.00000000000E+00  0.00000000000E+00  0.14031335382E+02  0.14031335623E+02  0.26000000000E-02 0.  1.
         -2   -1    0    0    0  501 -0.00000000000E+00 -0.00000000000E+00 -0.10244733253E+02  0.10244733583E+02  0.26000000000E-02 0. -1.
        -13    1    1    2    0    0  0.10923450039E+02  0.29780005611E+01  0.58849846611E+01  0.12760660839E+02  0.10570000000E+00 0.  1.
         13    1    1    2    0    0 -0.10923450039E+02 -0.29780005611E+01 -0.20983825319E+01  0.11515408366E+02  0.10570000000E+00 0. -1.
<mgrwt>
<rscale>  0 0.23978932E+02</rscale>
<asrwt>0</asrwt>
<pdfrwt beam="1">  1        2 0.21586670E-02 0.23978932E+02</pdfrwt>
<pdfrwt beam="2">  1       -2 0.15761128E-02 0.23978932E+02</pdfrwt>
<totfact> 0.26620648E+06</totfact>
</mgrwt>
</event>
<event>
 4    1  0.3704929E-001  0.2625618E+02  0.7818608E-02  0.1643588E+00
          2   -1    0    0  501    0  0.00000000000E+00  0.00000000000E+00  0.74516021137E+02  0.74516021183E+02  0.26000000000E-02 0. -1.
         -2   -1    0    0    0  501 -0.00000000000E+00 -0.00000000000E+00 -0.23128805284E+01  0.23128819898E+01  0.26000000000E-02 0.  1.
        -13    1    1    2    0    0  0.36284965842E+01  0.10429968108E+02  0.56871983486E+02  0.57934306765E+02  0.10570000000E+00 0. -1.
         13    1    1    2    0    0 -0.36284965842E+01 -0.10429968108E+02  0.15331157122E+02  0.18894596407E+02  0.10570000000E+00 0.  1.
<mgrwt>
<rscale>  0 0.26256177E+02</rscale>
<asrwt>0</asrwt>
<pdfrwt beam="1">  1        2 0.11464005E-01 0.26256177E+02</pdfrwt>
<pdfrwt beam="2">  1       -2 0.35582783E-03 0.26256177E+02</pdfrwt>
<totfact> 0.26747333E+06</totfact>
</mgrwt>
</event>
<event>
 4    1  0.3704929E-001  0.7914612E+02  0.7818608E-02  0.1331492E+00
         -2   -1    0    0    0  501 -0.00000000000E+00  0.00000000000E+00  0.77017276149E+02  0.77017276193E+02  0.26000000000E-02 0. -1.
          2   -1    0    0  501    0  0.00000000000E+00 -0.00000000000E+00 -0.20333449638E+02  0.20333449804E+02  0.26000000000E-02 0.  1.
        -13    1    1    2    0    0 -0.26210704962E+02  0.28144733278E+02  0.16876461220E+02  0.41999442636E+02  0.10570000000E+00 0.  1.
         13    1    1    2    0    0  0.26210704962E+02 -0.28144733278E+02  0.39807365291E+02  0.55351283362E+02  0.10570000000E+00 0. -1.
<mgrwt>
<rscale>  0 0.79146116E+02</rscale>
<asrwt>0</asrwt>
<pdfrwt beam="2">  1        2 0.31282230E-02 0.79146116E+02</pdfrwt>
<pdfrwt beam="1">  1       -2 0.11848812E-01 0.79146116E+02</pdfrwt>
<totfact> 0.12169797E+05</totfact>
</mgrwt>
</event>
<event>
 4    1  0.3704929E-001  0.3598165E+02  0.7818608E-02  0.1540052E+00
         -2   -1    0    0    0  501 -0.00000000000E+00  0.00000000000E+00  0.19024188557E+02  0.19024188735E+02  0.26000000000E-02 0. -1.
          2   -1    0    0  501    0  0.00000000000E+00 -0.00000000000E+00 -0.17013594220E+02  0.17013594419E+02  0.26000000000E-02 0.  1.
        -13    1    1    2    0    0  0.12661114997E+02 -0.62720486699E+01 -0.10148332640E+02  0.17396616204E+02  0.10570000000E+00 0.  1.
         13    1    1    2    0    0 -0.12661114997E+02  0.62720486699E+01  0.12158926978E+02  0.18641166949E+02  0.10570000000E+00 0. -1.
<mgrwt>
<rscale>  0 0.35981653E+02</rscale>
<asrwt>0</asrwt>
<pdfrwt beam="2">  1        2 0.26174761E-02 0.35981653E+02</pdfrwt>
<pdfrwt beam="1">  1       -2 0.29267983E-02 0.35981653E+02</pdfrwt>
<totfact> 0.10108174E+06</totfact>
</mgrwt>
</event>
<event>
 4    1  0.3704929E-001  0.2136159E+02  0.7818608E-02  0.1719533E+00
         -2   -1    0    0    0  501 -0.00000000000E+00  0.00000000000E+00  0.48987311369E+02  0.48987311438E+02  0.26000000000E-02 0. -1.
          2   -1    0    0  501    0  0.00000000000E+00 -0.00000000000E+00 -0.23287531182E+01  0.23287545696E+01  0.26000000000E-02 0.  1.
        -13    1    1    2    0    0 -0.14062977509E+01  0.10034432361E+02  0.15218066376E+02  0.18283003661E+02  0.10570000000E+00 0.  1.
         13    1    1    2    0    0  0.14062977509E+01 -0.10034432361E+02  0.31440491874E+02  0.33033062346E+02  0.10570000000E+00 0. -1.
<mgrwt>
<rscale>  0 0.21361591E+02</rscale>
<asrwt>0</asrwt>
<pdfrwt beam="2">  1        2 0.35826984E-03 0.21361591E+02</pdfrwt>
<pdfrwt beam="1">  1       -2 0.75365093E-02 0.21361591E+02</pdfrwt>
<totfact> 0.29415620E+06</totfact>
</mgrwt>
</event>
<event>
 4    1  0.3704929E-001  0.2834592E+02  0.7818608E-02  0.1617126E+00
          2   -1    0    0  501    0  0.00000000000E+00  0.00000000000E+00  0.55637213077E+01  0.55637219152E+01  0.26000000000E-02 0.  1.
         -2   -1    0    0    0  501 -0.00000000000E+00 -0.00000000000E+00 -0.36104040233E+02  0.36104040327E+02  0.26000000000E-02 0. -1.
        -13    1    1    2    0    0  0.26490406444E+01 -0.12990651777E+02 -0.79074822054E+01  0.15437418736E+02  0.10570000000E+00 0.  1.
         13    1    1    2    0    0 -0.26490406444E+01  0.12990651777E+02 -0.22632836720E+02  0.26230343505E+02  0.10570000000E+00 0. -1.
<mgrwt>
<rscale>  0 0.28345923E+02</rscale>
<asrwt>0</asrwt>
<pdfrwt beam="1">  1        2 0.85595720E-03 0.28345923E+02</pdfrwt>
<pdfrwt beam="2">  1       -2 0.55544676E-02 0.28345923E+02</pdfrwt>
<totfact> 0.16203279E+06</totfact>
</mgrwt>
</event>
<event>
 4    1  0.3704929E-001  0.4505385E+02  0.7818608E-02  0.1474006E+00
          2   -1    0    0  501    0  0.00000000000E+00  0.00000000000E+00  0.53218808428E+01  0.53218814779E+01  0.26000000000E-02 0.  1.
         -2   -1    0    0    0  501 -0.00000000000E+00 -0.00000000000E+00 -0.95353958658E+02  0.95353958694E+02  0.26000000000E-02 0. -1.
        -13    1    1    2    0    0 -0.91390293861E+01 -0.12691537264E+02 -0.81244580450E+02  0.82736267750E+02  0.10570000000E+00 0. -1.
         13    1    1    2    0    0  0.91390293861E+01  0.12691537264E+02 -0.87874973658E+01  0.17939572422E+02  0.10570000000E+00 0.  1.
<mgrwt>
<rscale>  0 0.45053854E+02</rscale>
<asrwt>0</asrwt>
<pdfrwt beam="1">  1        2 0.81875102E-03 0.45053854E+02</pdfrwt>
<pdfrwt beam="2">  1       -2 0.14669839E-01 0.45053854E+02</pdfrwt>
<totfact> 0.45996779E+05</totfact>
</mgrwt>
</event>
<event>
 4    1  0.3704929E-001  0.5527646E+02  0.7818608E-02  0.1418796E+00
          2   -1    0    0  501    0  0.00000000000E+00  0.00000000000E+00  0.16185580581E+03  0.16185580583E+03  0.26000000000E-02 0. -1.
         -2   -1    0    0    0  501 -0.00000000000E+00 -0.00000000000E+00 -0.47194586255E+01  0.47194593417E+01  0.26000000000E-02 0.  1.
        -13    1    1    2    0    0 -0.11031855707E+02 -0.21188228835E+02  0.12045657806E+03  0.12280244807E+03  0.10570000000E+00 0. -1.
         13    1    1    2    0    0  0.11031855707E+02  0.21188228835E+02  0.36679769118E+02  0.43772817096E+02  0.10570000000E+00 0.  1.
<mgrwt>
<rscale>  0 0.55276463E+02</rscale>
<asrwt>0</asrwt>
<pdfrwt beam="1">  1        2 0.24900894E-01 0.55276463E+02</pdfrwt>
<pdfrwt beam="2">  1       -2 0.72607060E-03 0.55276463E+02</pdfrwt>
<totfact> 0.53353599E+05</totfact>
</mgrwt>
</event>
<event>
 4    1  0.3704929E-001  0.9953088E+02  0.7818608E-02  0.1281286E+00
         -2   -1    0    0    0  501 -0.00000000000E+00  0.00000000000E+00  0.10108771369E+03  0.10108771373E+03  0.26000000000E-02 0. -1.
          2   -1    0    0  501    0  0.00000000000E+00 -0.00000000000E+00 -0.24499507000E+02  0.24499507138E+02  0.26000000000E-02 0.  1.
        -13    1    1    2    0    0  0.24654281951E+02  0.35667289617E+02  0.69113830445E+02  0.81588736345E+02  0.10570000000E+00 0. -1.
         13    1    1    2    0    0 -0.24654281951E+02 -0.35667289617E+02  0.74743762468E+01  0.43998484518E+02  0.10570000000E+00 0.  1.
<mgrwt>
<rscale>  0 0.99530883E+02</rscale>
<asrwt>0</asrwt>
<pdfrwt beam="2">  1        2 0.37691550E-02 0.99530883E+02</pdfrwt>
<pdfrwt beam="1">  1       -2 0.15551956E-01 0.99530883E+02</pdfrwt>
<totfact> 0.63956308E+04</totfact>
</mgrwt>
</event>
<event>
 4    1  0.3704929E-001  0.4544232E+02  0.7818608E-02  0.1471599E+00
         -2   -1    0    0    0  501 -0.00000000000E+00  0.00000000000E+00  0.16200690713E+02  0.16200690922E+02  0.26000000000E-02 0. -1.
          2   -1    0    0  501    0  0.00000000000E+00 -0.00000000000E+00 -0.31865991991E+02  0.31865992097E+02  0.26000000000E-02 0.  1.
        -13    1    1    2    0    0 -0.10075671344E+02 -0.36889787253E+01 -0.29017071836E+02  0.30937507131E+02  0.10570000000E+00 0.  1.
         13    1    1    2    0    0  0.10075671344E+02  0.36889787253E+01  0.13351770558E+02  0.17129175887E+02  0.10570000000E+00 0. -1.
<mgrwt>
<rscale>  0 0.45442319E+02</rscale>
<asrwt>0</asrwt>
<pdfrwt beam="2">  1        2 0.49024603E-02 0.45442319E+02</pdfrwt>
<pdfrwt beam="1">  1       -2 0.24924140E-02 0.45442319E+02</pdfrwt>
<totfact> 0.60722594E+05</totfact>
</mgrwt>
</event>
<event>
 4    1  0.3704929E-001  0.2828666E+02  0.7818608E-02  0.1617838E+00
          2   -1    0    0  501    0  0.00000000000E+00  0.00000000000E+00  0.15972817165E+02  0.15972817377E+02  0.26000000000E-02 0. -1.
         -2   -1    0    0    0  501 -0.00000000000E+00 -0.00000000000E+00 -0.12523388300E+02  0.12523388570E+02  0.26000000000E-02 0.  1.
        -13    1    1    2    0    0  0.45883188095E+01 -0.11074441085E+02  0.92854239219E+01  0.15163317076E+02  0.10570000000E+00 0. -1.
         13    1    1    2    0    0 -0.45883188095E+01  0.11074441085E+02 -0.58359950567E+01  0.13332888871E+02  0.10570000000E+00 0.  1.
<mgrwt>
<rscale>  0 0.28286661E+02</rscale>
<asrwt>0</asrwt>
<pdfrwt beam="1">  1        2 0.24573565E-02 0.28286661E+02</pdfrwt>
<pdfrwt beam="2">  1       -2 0.19266752E-02 0.28286661E+02</pdfrwt>
<totfact> 0.18175139E+06</totfact>
</mgrwt>
</event>
<event>
 4    1  0.3704929E-001  0.2304503E+02  0.7818608E-02  0.1690781E+00
          2   -1    0    0  501    0  0.00000000000E+00  0.00000000000E+00  0.49742041053E+01  0.49742047848E+01  0.26000000000E-02 0.  1.
         -2   -1    0    0    0  501 -0.00000000000E+00 -0.00000000000E+00 -0.26691365378E+02  0.26691365504E+02  0.26000000000E-02 0. -1.
        -13    1    1    2    0    0  0.98294486878E+01 -0.57362421546E+01 -0.83873080156E+01  0.14137915115E+02  0.10570000000E+00 0.  1.
         13    1    1    2    0    0 -0.98294486878E+01  0.57362421546E+01 -0.13329853257E+02  0.17527655174E+02  0.10570000000E+00 0. -1.
<mgrwt>
<rscale>  0 0.23045027E+02</rscale>
<asrwt>0</asrwt>
<pdfrwt beam="1">  1        2 0.76526225E-03 0.23045027E+02</pdfrwt>
<pdfrwt beam="2">  1       -2 0.41063639E-02 0.23045027E+02</pdfrwt>
<totfact> 0.26707264E+06</totfact>
</mgrwt>
</event>
<event>
 4    1  0.3704929E-001  0.2725941E+02  0.7818608E-02  0.1630521E+00
         -2   -1    0    0    0  501 -0.00000000000E+00  0.00000000000E+00  0.33994710604E+01  0.33994720547E+01  0.26000000000E-02 0.  1.
          2   -1    0    0  501    0  0.00000000000E+00 -0.00000000000E+00 -0.54646374984E+02  0.54646375046E+02  0.26000000000E-02 0. -1.
        -13    1    1    2    0    0  0.76420315351E+01  0.75723478813E+01 -0.43441292208E+02  0.44753750006E+02  0.10570000000E+00 0. -1.
         13    1    1    2    0    0 -0.76420315351E+01 -0.75723478813E+01 -0.78056117151E+01  0.13292097094E+02  0.10570000000E+00 0.  1.
<mgrwt>
<rscale>  0 0.27259406E+02</rscale>
<asrwt>0</asrwt>
<pdfrwt beam="2">  1        2 0.84071341E-02 0.27259406E+02</pdfrwt>
<pdfrwt beam="1">  1       -2 0.52299567E-03 0.27259406E+02</pdfrwt>
<totfact> 0.23140978E+06</totfact>
</mgrwt>
</event>
<event>
 4    1  0.3704929E-001  0.3444667E+02  0.7818608E-02  0.1553570E+00
         -2   -1    0    0    0  501 -0.00000000000E+00  0.00000000000E+00  0.43705375836E+02  0.43705375913E+02  0.26000000000E-02 0.  1.
          2   -1    0    0  501    0  0.00000000000E+00 -0.00000000000E+00 -0.67873403419E+01  0.67873408399E+01  0.26000000000E-02 0. -1.
        -13    1    1    2    0    0  0.10705570559E+02 -0.49028019911E+01  0.34761793826E-01  0.11775359409E+02  0.10570000000E+00 0. -1.
         13    1    1    2    0    0 -0.10705570559E+02  0.49028019911E+01  0.36883273700E+02  0.38717357344E+02  0.10570000000E+00 0.  1.
<mgrwt>
<rscale>  0 0.34446670E+02</rscale>
<asrwt>0</asrwt>
<pdfrwt beam="2">  1        2 0.10442063E-02 0.34446670E+02</pdfrwt>
<pdfrwt beam="1">  1       -2 0.67239037E-02 0.34446670E+02</pdfrwt>
<totfact> 0.10071428E+06</totfact>
</mgrwt>
</event>
<event>
 4    1  0.3704929E-001  0.2902551E+02  0.7818608E-02  0.1609117E+00
         -2   -1    0    0    0  501 -0.00000000000E+00  0.00000000000E+00  0.48061348657E+02  0.48061348727E+02  0.26000000000E-02 0.  1.
          2   -1    0    0  501    0  0.00000000000E+00 -0.00000000000E+00 -0.43823150801E+01  0.43823158513E+01  0.26000000000E-02 0. -1.
        -13    1    1    2    0    0  0.16702535463E+01 -0.13153193212E+02  0.11178923710E+02  0.17342887487E+02  0.10570000000E+00 0.  1.
         13    1    1    2    0    0 -0.16702535463E+01  0.13153193212E+02  0.32500109866E+02  0.35100777091E+02  0.10570000000E+00 0. -1.
<mgrwt>
<rscale>  0 0.29025506E+02</rscale>
<asrwt>0</asrwt>
<pdfrwt beam="2">  1        2 0.67420239E-03 0.29025506E+02</pdfrwt>
<pdfrwt beam="1">  1       -2 0.73940537E-02 0.29025506E+02</pdfrwt>
<totfact> 0.14774333E+06</totfact>
</mgrwt>
</event>
<event>
 4    1  0.3704929E-001  0.2600067E+02  0.7818608E-02  0.1647031E+00
         -2   -1    0    0    0  501 -0.00000000000E+00  0.00000000000E+00  0.44040198657E+01  0.44040206331E+01  0.26000000000E-02 0. -1.
          2   -1    0    0  501    0  0.00000000000E+00 -0.00000000000E+00 -0.38375995879E+02  0.38375995967E+02  0.26000000000E-02 0.  1.
        -13    1    1    2    0    0  0.23984353435E+01  0.12040834082E+02 -0.99545154076E+01  0.15806255944E+02  0.10570000000E+00 0.  1.
         13    1    1    2    0    0 -0.23984353435E+01 -0.12040834082E+02 -0.24017460605E+02  0.26973760656E+02  0.10570000000E+00 0. -1.
<mgrwt>
<rscale>  0 0.26000667E+02</rscale>
<asrwt>0</asrwt>
<pdfrwt beam="2">  1        2 0.59039992E-02 0.26000667E+02</pdfrwt>
<pdfrwt beam="1">  1       -2 0.67754161E-03 0.26000667E+02</pdfrwt>
<totfact> 0.24499259E+06</totfact>
</mgrwt>
</event>
<event>
 4    1  0.3704929E-001  0.4477174E+02  0.7818608E-02  0.1475772E+00
          2   -1    0    0  501    0  0.00000000000E+00  0.00000000000E+00  0.54810815696E+01  0.54810821863E+01  0.26000000000E-02 0.  1.
         -2   -1    0    0    0  501 -0.00000000000E+00 -0.00000000000E+00 -0.91428500454E+02  0.91428500491E+02  0.26000000000E-02 0. -1.
        -13    1    1    2    0    0  0.76446408450E+01  0.19635664780E+02 -0.26615268338E+02  0.33946775196E+02  0.10570000000E+00 0.  1.
         13    1    1    2    0    0 -0.76446408450E+01 -0.19635664780E+02 -0.59332150546E+02  0.62962807481E+02  0.10570000000E+00 0. -1.
<mgrwt>
<rscale>  0 0.44771737E+02</rscale>
<asrwt>0</asrwt>
<pdfrwt beam="1">  1        2 0.84324344E-03 0.44771737E+02</pdfrwt>
<pdfrwt beam="2">  1       -2 0.14065922E-01 0.44771737E+02</pdfrwt>
<totfact> 0.47170043E+05</totfact>
</mgrwt>
</event>
<event>
 4    1  0.3704929E-001  0.2551134E+02  0.7818608E-02  0.1653764E+00
         -2   -1    0    0    0  501 -0.00000000000E+00  0.00000000000E+00  0.32060575941E+02  0.32060576046E+02  0.26000000000E-02 0.  1.
          2   -1    0    0  501    0  0.00000000000E+00 -0.00000000000E+00 -0.50749907364E+01  0.50749914024E+01  0.26000000000E-02 0. -1.
        -13    1    1    2    0    0  0.12748997959E+02 -0.42560495743E-01  0.12915636572E+02  0.18148377363E+02  0.10570000000E+00 0. -1.
         13    1    1    2    0    0 -0.12748997959E+02  0.42560495743E-01  0.14069948633E+02  0.18987190086E+02  0.10570000000E+00 0.  1.
<mgrwt>
<rscale>  0 0.25511342E+02</rscale>
<asrwt>0</asrwt>
<pdfrwt beam="2">  1        2 0.78076786E-03 0.25511342E+02</pdfrwt>
<pdfrwt beam="1">  1       -2 0.49323964E-02 0.25511342E+02</pdfrwt>
<totfact> 0.20866615E+06</totfact>
</mgrwt>
</event>
<event>
 4    1  0.3704929E-001  0.6272286E+02  0.7818608E-02  0.1386748E+00
         -2   -1    0    0    0  501 -0.00000000000E+00  0.00000000000E+00  0.51870662361E+01  0.51870668877E+01  0.26000000000E-02 0.  1.
          2   -1    0    0  501    0  0.00000000000E+00 -0.00000000000E+00 -0.18961375618E+03  0.18961375620E+03  0.26000000000E-02 0. -1.
        -13    1    1    2    0    0 -0.19096624473E+02 -0.17431198763E+02 -0.14733476639E+03  0.14958633733E+03  0.10570000000E+00 0. -1.
         13    1    1    2    0    0  0.19096624473E+02  0.17431198763E+02 -0.37091923553E+02  0.45214485753E+02  0.10570000000E+00 0.  1.
<mgrwt>
<rscale>  0 0.62722856E+02</rscale>
<asrwt>0</asrwt>
<pdfrwt beam="2">  1        2 0.29171342E-01 0.62722856E+02</pdfrwt>
<pdfrwt beam="1">  1       -2 0.79801039E-03 0.62722856E+02</pdfrwt>
<totfact> 0.40662938E+05</totfact>
</mgrwt>
</event>
<event>
 4    1  0.3704929E-001  0.4347542E+02  0.7818608E-02  0.1484090E+00
         -2   -1    0    0    0  501 -0.00000000000E+00  0.00000000000E+00  0.50507184520E+02  0.50507184587E+02  0.26000000000E-02 0. -1.
          2   -1    0    0  501    0  0.00000000000E+00 -0.00000000000E+00 -0.93556577129E+01  0.93556580742E+01  0.26000000000E-02 0.  1.
        -13    1    1    2    0    0 -0.16135312782E+02 -0.13815193973E+02  0.14219618659E+02  0.25562015382E+02  0.10570000000E+00 0.  1.
         13    1    1    2    0    0  0.16135312782E+02  0.13815193973E+02  0.26931908148E+02  0.34300827279E+02  0.10570000000E+00 0. -1.
<mgrwt>
<rscale>  0 0.43475416E+02</rscale>
<asrwt>0</asrwt>
<pdfrwt beam="2">  1        2 0.14393320E-02 0.43475416E+02</pdfrwt>
<pdfrwt beam="1">  1       -2 0.77703362E-02 0.43475416E+02</pdfrwt>
<totfact> 0.56869556E+05</totfact>
</mgrwt>
</event>
<event>
 4    1  0.3704929E-001  0.2214008E+02  0.7818608E-02  0.1705841E+00
          2   -1    0    0  501    0  0.00000000000E+00  0.00000000000E+00  0.13927613030E+01  0.13927637298E+01  0.26000000000E-02 0. -1.
         -2   -1    0    0    0  501 -0.00000000000E+00 -0.00000000000E+00 -0.87987579121E+02  0.87987579160E+02  0.26000000000E-02 0.  1.
        -13    1    1    2    0    0  0.57632284845E+01  0.93867384606E+01 -0.47736262625E+02  0.48990688946E+02  0.10570000000E+00 0.  1.
         13    1    1    2    0    0 -0.57632284845E+01 -0.93867384606E+01 -0.38858555193E+02  0.40389653943E+02  0.10570000000E+00 0. -1.
<mgrwt>
<rscale>  0 0.22140082E+02</rscale>
<asrwt>0</asrwt>
<pdfrwt beam="1">  1        2 0.21427123E-03 0.22140082E+02</pdfrwt>
<pdfrwt beam="2">  1       -2 0.13536546E-01 0.22140082E+02</pdfrwt>
<totfact> 0.24487454E+06</totfact>
</mgrwt>
</event>
<event>
 4    1  0.3704929E-001  0.3005083E+02  0.7818608E-02  0.1597527E+00
          2   -1    0    0  501    0  0.00000000000E+00  0.00000000000E+00  0.41935336789E+02  0.41935336869E+02  0.26000000000E-02 0.  1.
         -2   -1    0    0    0  501 -0.00000000000E+00 -0.00000000000E+00 -0.53836003299E+01  0.53836009578E+01  0.26000000000E-02 0. -1.
        -13    1    1    2    0    0 -0.63504495351E+00 -0.14359819413E+02  0.25165524980E+02  0.28981416730E+02  0.10570000000E+00 0.  1.
         13    1    1    2    0    0  0.63504495351E+00  0.14359819413E+02  0.11386211479E+02  0.18337521097E+02  0.10570000000E+00 0. -1.
<mgrwt>
<rscale>  0 0.30050831E+02</rscale>
<asrwt>0</asrwt>
<pdfrwt beam="1">  1        2 0.64515900E-02 0.30050831E+02</pdfrwt>
<pdfrwt beam="2">  1       -2 0.82824630E-03 0.30050831E+02</pdfrwt>
<totfact> 0.17619737E+06</totfact>
</mgrwt>
</event>
<event>
 4    1  0.3704929E-001  0.3455807E+02  0.7818608E-02  0.1552560E+00
          2   -1    0    0  501    0  0.00000000000E+00  0.00000000000E+00  0.23569346094E+02  0.23569346237E+02  0.26000000000E-02 0.  1.
         -2   -1    0    0    0  501 -0.00000000000E+00 -0.00000000000E+00 -0.12667512240E+02  0.12667512507E+02  0.26000000000E-02 0. -1.
        -13    1    1    2    0    0  0.10634011579E+02 -0.30812275612E+01  0.19361004533E+02  0.22303269593E+02  0.10570000000E+00 0.  1.
         13    1    1    2    0    0 -0.10634011579E+02  0.30812275612E+01 -0.84591706789E+01  0.13933589150E+02  0.10570000000E+00 0. -1.
<mgrwt>
<rscale>  0 0.34558066E+02</rscale>
<asrwt>0</asrwt>
<pdfrwt beam="1">  1        2 0.36260532E-02 0.34558066E+02</pdfrwt>
<pdfrwt beam="2">  1       -2 0.19488481E-02 0.34558066E+02</pdfrwt>
<totfact> 0.11623771E+06</totfact>
</mgrwt>
</event>
<event>
 4    1  0.3704929E-001  0.4291556E+02  0.7818608E-02  0.1487790E+00
         -2   -1    0    0    0  501 -0.00000000000E+00  0.00000000000E+00  0.18336996518E+02  0.18336996702E+02  0.26000000000E-02 0. -1.
          2   -1    0    0  501    0  0.00000000000E+00 -0.00000000000E+00 -0.25109690497E+02  0.25109690631E+02  0.26000000000E-02 0.  1.
        -13    1    1    2    0    0 -0.17328430693E+02  0.11382117178E+02  0.22136615837E+01  0.20850385412E+02  0.10570000000E+00 0. -1.
         13    1    1    2    0    0  0.17328430693E+02 -0.11382117178E+02 -0.89863555626E+01  0.22596301921E+02  0.10570000000E+00 0.  1.
<mgrwt>
<rscale>  0 0.42915560E+02</rscale>
<asrwt>0</asrwt>
<pdfrwt beam="2">  1        2 0.38630293E-02 0.42915560E+02</pdfrwt>
<pdfrwt beam="1">  1       -2 0.28210764E-02 0.42915560E+02</pdfrwt>
<totfact> 0.67909404E+05</totfact>
</mgrwt>
</event>
<event>
 4    1  0.3704929E-001  0.2392278E+02  0.7818608E-02  0.1676974E+00
          2   -1    0    0  501    0  0.00000000000E+00  0.00000000000E+00  0.72089902550E+02  0.72089902596E+02  0.26000000000E-02 0.  1.
         -2   -1    0    0    0  501 -0.00000000000E+00 -0.00000000000E+00 -0.19846716721E+01  0.19846733751E+01  0.26000000000E-02 0. -1.
        -13    1    1    2    0    0  0.10449043187E+02 -0.32234131762E+01  0.50060043793E+02  0.51240531350E+02  0.10570000000E+00 0. -1.
         13    1    1    2    0    0 -0.10449043187E+02  0.32234131762E+01  0.20045187085E+02  0.22834044621E+02  0.10570000000E+00 0.  1.
<mgrwt>
<rscale>  0 0.23922780E+02</rscale>
<asrwt>0</asrwt>
<pdfrwt beam="1">  1        2 0.11090754E-01 0.23922780E+02</pdfrwt>
<pdfrwt beam="2">  1       -2 0.30533426E-03 0.23922780E+02</pdfrwt>
<totfact> 0.32928801E+06</totfact>
</mgrwt>
</event>
<event>
 4    1  0.3704929E-001  0.6170238E+02  0.7818608E-02  0.1390823E+00
         -2   -1    0    0    0  501 -0.00000000000E+00  0.00000000000E+00  0.22281630242E+02  0.22281630394E+02  0.26000000000E-02 0.  1.
          2   -1    0    0  501    0  0.00000000000E+00 -0.00000000000E+00 -0.42716625170E+02  0.42716625249E+02  0.26000000000E-02 0. -1.
        -13    1    1    2    0    0  0.71618921367E+01  0.23440988917E+02 -0.29953576471E+02  0.38704012405E+02  0.10570000000E+00 0. -1.
         13    1    1    2    0    0 -0.71618921367E+01 -0.23440988917E+02  0.95185815424E+01  0.26294243238E+02  0.10570000000E+00 0.  1.
<mgrwt>
<rscale>  0 0.61702384E+02</rscale>
<asrwt>0</asrwt>
<pdfrwt beam="2">  1        2 0.65717885E-02 0.61702384E+02</pdfrwt>
<pdfrwt beam="1">  1       -2 0.34279431E-02 0.61702384E+02</pdfrwt>
<totfact> 0.28663208E+05</totfact>
</mgrwt>
</event>
<event>
 4    1  0.3704929E-001  0.4261805E+02  0.7818608E-02  0.1489784E+00
         -2   -1    0    0    0  501 -0.00000000000E+00  0.00000000000E+00  0.76852019917E+02  0.76852019961E+02  0.26000000000E-02 0.  1.
          2   -1    0    0  501    0  0.00000000000E+00 -0.00000000000E+00 -0.59084274214E+01  0.59084279934E+01  0.26000000000E-02 0. -1.
        -13    1    1    2    0    0  0.20646874310E+02 -0.33394698465E+01  0.27555572745E+02  0.34594309351E+02  0.10570000000E+00 0. -1.
         13    1    1    2    0    0 -0.20646874310E+02  0.33394698465E+01  0.43388019750E+02  0.48166138604E+02  0.10570000000E+00 0.  1.
<mgrwt>
<rscale>  0 0.42618053E+02</rscale>
<asrwt>0</asrwt>
<pdfrwt beam="2">  1        2 0.90898890E-03 0.42618053E+02</pdfrwt>
<pdfrwt beam="1">  1       -2 0.11823388E-01 0.42618053E+02</pdfrwt>
<totfact> 0.55194281E+05</totfact>
</mgrwt>
</event>
<event>
 4    1  0.3704929E-001  0.3433122E+02  0.7818608E-02  0.1554621E+00
         -2   -1    0    0    0  501 -0.00000000000E+00  0.00000000000E+00  0.36876926153E+02  0.36876926245E+02  0.26000000000E-02 0.  1.
          2   -1    0    0  501    0  0.00000000000E+00 -0.00000000000E+00 -0.79903121256E+01  0.79903125486E+01  0.26000000000E-02 0. -1.
        -13    1    1    2    0    0  0.25011531517E+01  0.12337594640E+02  0.29693971652E+02  0.32252366325E+02  0.10570000000E+00 0.  1.
         13    1    1    2    0    0 -0.25011531517E+01 -0.12337594640E+02 -0.80735762438E+00  0.12614872469E+02  0.10570000000E+00 0. -1.
<mgrwt>
<rscale>  0 0.34331220E+02</rscale>
<asrwt>0</asrwt>
<pdfrwt beam="2">  1        2 0.12292788E-02 0.34331220E+02</pdfrwt>
<pdfrwt beam="1">  1       -2 0.56733733E-02 0.34331220E+02</pdfrwt>
<totfact> 0.10390101E+06</totfact>
</mgrwt>
</event>
<event>
 4    1  0.3704929E-001  0.2765053E+02  0.7818608E-02  0.1625612E+00
         -2   -1    0    0    0  501 -0.00000000000E+00  0.00000000000E+00  0.43506756077E+02  0.43506756155E+02  0.26000000000E-02 0.  1.
          2   -1    0    0  501    0  0.00000000000E+00 -0.00000000000E+00 -0.43932943895E+01  0.43932951589E+01  0.26000000000E-02 0. -1.
        -13    1    1    2    0    0 -0.12374266060E+02  0.42570483458E+01  0.27281073863E+02  0.30257446765E+02  0.10570000000E+00 0. -1.
         13    1    1    2    0    0  0.12374266060E+02 -0.42570483458E+01  0.11832387825E+02  0.17642604548E+02  0.10570000000E+00 0.  1.
<mgrwt>
<rscale>  0 0.27650534E+02</rscale>
<asrwt>0</asrwt>
<pdfrwt beam="2">  1        2 0.67589150E-03 0.27650534E+02</pdfrwt>
<pdfrwt beam="1">  1       -2 0.66933472E-02 0.27650534E+02</pdfrwt>
<totfact> 0.16741921E+06</totfact>
</mgrwt>
</event>
<event>
 4    1  0.3704929E-001  0.4091195E+02  0.7818608E-02  0.1501606E+00
         -2   -1    0    0    0  501 -0.00000000000E+00  0.00000000000E+00  0.76831909562E+02  0.76831909606E+02  0.26000000000E-02 0. -1.
          2   -1    0    0  501    0  0.00000000000E+00 -0.00000000000E+00 -0.54462644408E+01  0.54462650614E+01  0.26000000000E-02 0.  1.
        -13    1    1    2    0    0 -0.18703881434E+02  0.83755078526E+00  0.52264497545E+02  0.55516894258E+02  0.10570000000E+00 0. -1.
         13    1    1    2    0    0  0.18703881434E+02 -0.83755078526E+00  0.19121147577E+02  0.26761280409E+02  0.10570000000E+00 0.  1.
<mgrwt>
<rscale>  0 0.40911951E+02</rscale>
<asrwt>0</asrwt>
<pdfrwt beam="2">  1        2 0.83788697E-03 0.40911951E+02</pdfrwt>
<pdfrwt beam="1">  1       -2 0.11820293E-01 0.40911951E+02</pdfrwt>
<totfact> 0.60867639E+05</totfact>
</mgrwt>
</event>
<event>
 4    1  0.3704929E-001  0.2842475E+02  0.7818608E-02  0.1616183E+00
          2   -1    0    0  501    0  0.00000000000E+00  0.00000000000E+00  0.18566193083E+01  0.18566211288E+01  0.26000000000E-02 0. -1.
         -2   -1    0    0    0  501 -0.00000000000E+00 -0.00000000000E+00 -0.10879534190E+03  0.10879534193E+03  0.26000000000E-02 0.  1.
        -13    1    1    2    0    0 -0.13006100737E+02 -0.20829110779E+01 -0.32693573936E+02  0.35247384642E+02  0.10570000000E+00 0.  1.
         13    1    1    2    0    0  0.13006100737E+02  0.20829110779E+01 -0.74245148655E+02  0.75404578417E+02  0.10570000000E+00 0. -1.
<mgrwt>
<rscale>  0 0.28424752E+02</rscale>
<asrwt>0</asrwt>
<pdfrwt beam="1">  1        2 0.28563397E-03 0.28424752E+02</pdfrwt>
<pdfrwt beam="2">  1       -2 0.16737740E-01 0.28424752E+02</pdfrwt>
<totfact> 0.13229249E+06</totfact>
</mgrwt>
</event>
<event>
 4    1  0.3704929E-001  0.7254155E+02  0.7818608E-02  0.1351658E+00
          2   -1    0    0  501    0  0.00000000000E+00  0.00000000000E+00  0.46091140766E+02  0.46091140839E+02  0.26000000000E-02 0.  1.
         -2   -1    0    0    0  501 -0.00000000000E+00 -0.00000000000E+00 -0.28542776105E+02  0.28542776223E+02  0.26000000000E-02 0. -1.
        -13    1    1    2    0    0  0.88837171163E+01  0.10785630872E+02  0.43210607556E+02  0.45413852963E+02  0.10570000000E+00 0.  1.
         13    1    1    2    0    0 -0.88837171163E+01 -0.10785630872E+02 -0.25662242895E+02  0.29220064099E+02  0.10570000000E+00 0. -1.
<mgrwt>
<rscale>  0 0.72541550E+02</rscale>
<asrwt>0</asrwt>
<pdfrwt beam="1">  1        2 0.70909447E-02 0.72541550E+02</pdfrwt>
<pdfrwt beam="2">  1       -2 0.43911963E-02 0.72541550E+02</pdfrwt>
<totfact> 0.18784214E+05</totfact>
</mgrwt>
</event>
<event>
 4    1  0.3704929E-001  0.4085668E+02  0.7818608E-02  0.1502000E+00
          2   -1    0    0  501    0  0.00000000000E+00  0.00000000000E+00  0.21128489665E+02  0.21128489825E+02  0.26000000000E-02 0.  1.
         -2   -1    0    0    0  501 -0.00000000000E+00 -0.00000000000E+00 -0.19751394667E+02  0.19751394838E+02  0.26000000000E-02 0. -1.
        -13    1    1    2    0    0 -0.17304235391E+02  0.56514646750E+01  0.99636743992E+01  0.20752387705E+02  0.10570000000E+00 0.  1.
         13    1    1    2    0    0  0.17304235391E+02 -0.56514646750E+01 -0.85865794012E+01  0.20127496957E+02  0.10570000000E+00 0. -1.
<mgrwt>
<rscale>  0 0.40856683E+02</rscale>
<asrwt>0</asrwt>
<pdfrwt beam="1">  1        2 0.32505369E-02 0.40856683E+02</pdfrwt>
<pdfrwt beam="2">  1       -2 0.30386762E-02 0.40856683E+02</pdfrwt>
<totfact> 0.75216341E+05</totfact>
</mgrwt>
</event>
<event>
 4    1  0.3704929E-001  0.3116955E+02  0.7818608E-02  0.1585509E+00
          2   -1    0    0  501    0  0.00000000000E+00  0.00000000000E+00  0.42344996187E+02  0.42344996267E+02  0.26000000000E-02 0.  1.
         -2   -1    0    0    0  501 -0.00000000000E+00 -0.00000000000E+00 -0.57358666388E+01  0.57358672281E+01  0.26000000000E-02 0. -1.
        -13    1    1    2    0    0 -0.43279934103E+01 -0.98225586573E+01  0.35733423202E+02  0.37310895081E+02  0.10570000000E+00 0.  1.
         13    1    1    2    0    0  0.43279934103E+01  0.98225586573E+01  0.87570634603E+00  0.10769968414E+02  0.10570000000E+00 0. -1.
<mgrwt>
<rscale>  0 0.31169554E+02</rscale>
<asrwt>0</asrwt>
<pdfrwt beam="1">  1        2 0.65146151E-02 0.31169554E+02</pdfrwt>
<pdfrwt beam="2">  1       -2 0.88244104E-03 0.31169554E+02</pdfrwt>
<totfact> 0.16164334E+06</totfact>
</mgrwt>
</event>
<event>
 4    1  0.3704929E-001  0.3488276E+02  0.7818608E-02  0.1549644E+00
          2   -1    0    0  501    0  0.00000000000E+00  0.00000000000E+00  0.10987811799E+02  0.10987812106E+02  0.26000000000E-02 0. -1.
         -2   -1    0    0    0  501 -0.00000000000E+00 -0.00000000000E+00 -0.27685372011E+02  0.27685372133E+02  0.26000000000E-02 0.  1.
        -13    1    1    2    0    0 -0.11092115882E+01  0.16794316200E+02 -0.32790196748E+01  0.17147668923E+02  0.10570000000E+00 0. -1.
         13    1    1    2    0    0  0.11092115882E+01 -0.16794316200E+02 -0.13418540538E+02  0.21525515317E+02  0.10570000000E+00 0.  1.
<mgrwt>
<rscale>  0 0.34882756E+02</rscale>
<asrwt>0</asrwt>
<pdfrwt beam="1">  1        2 0.16904326E-02 0.34882756E+02</pdfrwt>
<pdfrwt beam="2">  1       -2 0.42592880E-02 0.34882756E+02</pdfrwt>
<totfact> 0.10381405E+06</totfact>
</mgrwt>
</event>
<event>
 4    1  0.3704929E-001  0.2191865E+02  0.7818608E-02  0.1709663E+00
         -2   -1    0    0    0  501 -0.00000000000E+00  0.00000000000E+00  0.46175542019E+01  0.46175549339E+01  0.26000000000E-02 0. -1.
          2   -1    0    0  501    0  0.00000000000E+00 -0.00000000000E+00 -0.26010902090E+02  0.26010902220E+02  0.26000000000E-02 0.  1.
        -13    1    1    2    0    0 -0.92380762515E+01  0.57841613808E+01 -0.91052571638E+01  0.14202656660E+02  0.10570000000E+00 0.  1.
         13    1    1    2    0    0  0.92380762515E+01 -0.57841613808E+01 -0.12288090724E+02  0.16425800493E+02  0.10570000000E+00 0. -1.
<mgrwt>
<rscale>  0 0.21918646E+02</rscale>
<asrwt>0</asrwt>
<pdfrwt beam="2">  1        2 0.40016772E-02 0.21918646E+02</pdfrwt>
<pdfrwt beam="1">  1       -2 0.71039304E-03 0.21918646E+02</pdfrwt>
<totfact> 0.34713260E+06</totfact>
</mgrwt>
</event>
<event>
 4    1  0.3704929E-001  0.5322770E+02  0.7818608E-02  0.1428671E+00
          2   -1    0    0  501    0  0.00000000000E+00  0.00000000000E+00  0.16697745454E+03  0.16697745456E+03  0.26000000000E-02 0. -1.
         -2   -1    0    0    0  501 -0.00000000000E+00 -0.00000000000E+00 -0.42418713176E+01  0.42418721144E+01  0.26000000000E-02 0.  1.
        -13    1    1    2    0    0  0.68415942475E+01  0.25697426481E+02  0.77962558846E+02  0.82373156391E+02  0.10570000000E+00 0. -1.
         13    1    1    2    0    0 -0.68415942475E+01 -0.25697426481E+02  0.84773024374E+02  0.88846170281E+02  0.10570000000E+00 0.  1.
<mgrwt>
<rscale>  0 0.53227697E+02</rscale>
<asrwt>0</asrwt>
<pdfrwt beam="1">  1        2 0.25688833E-01 0.53227697E+02</pdfrwt>
<pdfrwt beam="2">  1       -2 0.65259580E-03 0.53227697E+02</pdfrwt>
<totfact> 0.59304667E+05</totfact>
</mgrwt>
</event>
<event>
 4    1  0.3704929E-001  0.2664360E+02  0.7818608E-02  0.1638458E+00
         -2   -1    0    0    0  501 -0.00000000000E+00  0.00000000000E+00  0.44450302803E+01  0.44450310407E+01  0.26000000000E-02 0. -1.
          2   -1    0    0  501    0  0.00000000000E+00 -0.00000000000E+00 -0.39925569417E+02  0.39925569502E+02  0.26000000000E-02 0.  1.
        -13    1    1    2    0    0  0.10431909290E+02 -0.13617296732E+01 -0.41312720764E+01  0.11302991665E+02  0.10570000000E+00 0. -1.
         13    1    1    2    0    0 -0.10431909290E+02  0.13617296732E+01 -0.31349267060E+02  0.33067608877E+02  0.10570000000E+00 0.  1.
<mgrwt>
<rscale>  0 0.26643602E+02</rscale>
<asrwt>0</asrwt>
<pdfrwt beam="2">  1        2 0.61423951E-02 0.26643602E+02</pdfrwt>
<pdfrwt beam="1">  1       -2 0.68385090E-03 0.26643602E+02</pdfrwt>
<totfact> 0.23263043E+06</totfact>
</mgrwt>
</event>
<event>
 4    1  0.3704929E-001  0.2776139E+02  0.7818608E-02  0.1624239E+00
         -2   -1    0    0    0  501 -0.00000000000E+00  0.00000000000E+00  0.20783956107E+02  0.20783956269E+02  0.26000000000E-02 0. -1.
          2   -1    0    0  501    0  0.00000000000E+00 -0.00000000000E+00 -0.92703096791E+01  0.92703100437E+01  0.26000000000E-02 0.  1.
        -13    1    1    2    0    0  0.12628547666E+02  0.32395405485E+01  0.10913384542E+02  0.17002587267E+02  0.10570000000E+00 0. -1.
         13    1    1    2    0    0 -0.12628547666E+02 -0.32395405485E+01  0.60026188568E+00  0.13051679046E+02  0.10570000000E+00 0.  1.
<mgrwt>
<rscale>  0 0.27761392E+02</rscale>
<asrwt>0</asrwt>
<pdfrwt beam="2">  1        2 0.14262015E-02 0.27761392E+02</pdfrwt>
<pdfrwt beam="1">  1       -2 0.31975317E-02 0.27761392E+02</pdfrwt>
<totfact> 0.18040617E+06</totfact>
</mgrwt>
</event>
<event>
 4    1  0.3704929E-001  0.4291948E+02  0.7818608E-02  0.1487764E+00
          2   -1    0    0  501    0  0.00000000000E+00  0.00000000000E+00  0.60713920563E+01  0.60713926130E+01  0.26000000000E-02 0. -1.
         -2   -1    0    0    0  501 -0.00000000000E+00 -0.00000000000E+00 -0.75850876077E+02  0.75850876122E+02  0.26000000000E-02 0.  1.
        -13    1    1    2    0    0  0.15365423573E+02  0.14907765875E+02 -0.32076994131E+02  0.38565301113E+02  0.10570000000E+00 0. -1.
         13    1    1    2    0    0 -0.15365423573E+02 -0.14907765875E+02 -0.37702489890E+02  0.43356967621E+02  0.10570000000E+00 0.  1.
<mgrwt>
<rscale>  0 0.42919480E+02</rscale>
<asrwt>0</asrwt>
<pdfrwt beam="1">  1        2 0.93406041E-03 0.42919480E+02</pdfrwt>
<pdfrwt beam="2">  1       -2 0.11669365E-01 0.42919480E+02</pdfrwt>
<totfact> 0.54417045E+05</totfact>
</mgrwt>
</event>
<event>
 4    1  0.3704929E-001  0.8416265E+02  0.7818608E-02  0.1317637E+00
          2   -1    0    0  501    0  0.00000000000E+00  0.00000000000E+00  0.22878245652E+02  0.22878245799E+02  0.26000000000E-02 0. -1.
         -2   -1    0    0    0  501 -0.00000000000E+00 -0.00000000000E+00 -0.77402703117E+02  0.77402703160E+02  0.26000000000E-02 0.  1.
        -13    1    1    2    0    0  0.83967146491E+01 -0.37658433226E+02 -0.72474778730E+01  0.39258114039E+02  0.10570000000E+00 0. -1.
         13    1    1    2    0    0 -0.83967146491E+01  0.37658433226E+02 -0.47276979592E+02  0.61022834921E+02  0.10570000000E+00 0.  1.
<mgrwt>
<rscale>  0 0.84162654E+02</rscale>
<asrwt>0</asrwt>
<pdfrwt beam="1">  1        2 0.35197301E-02 0.84162654E+02</pdfrwt>
<pdfrwt beam="2">  1       -2 0.11908108E-01 0.84162654E+02</pdfrwt>
<totfact> 0.10448794E+05</totfact>
</mgrwt>
</event>
<event>
 4    1  0.3704929E-001  0.2471434E+02  0.7818608E-02  0.1665139E+00
         -2   -1    0    0    0  501 -0.00000000000E+00  0.00000000000E+00  0.76792311856E+02  0.76792311900E+02  0.26000000000E-02 0.  1.
          2   -1    0    0  501    0  0.00000000000E+00 -0.00000000000E+00 -0.19884749668E+01  0.19884766666E+01  0.26000000000E-02 0. -1.
        -13    1    1    2    0    0  0.11748528648E+02  0.38055950442E+01  0.36057019172E+02  0.38113387190E+02  0.10570000000E+00 0.  1.
         13    1    1    2    0    0 -0.11748528648E+02 -0.38055950442E+01  0.38746817717E+02  0.40667401377E+02  0.10570000000E+00 0. -1.
<mgrwt>
<rscale>  0 0.24714341E+02</rscale>
<asrwt>0</asrwt>
<pdfrwt beam="2">  1        2 0.30591941E-03 0.24714341E+02</pdfrwt>
<pdfrwt beam="1">  1       -2 0.11814200E-01 0.24714341E+02</pdfrwt>
<totfact> 0.19694666E+06</totfact>
</mgrwt>
</event>
<event>
 4    1  0.3704929E-001  0.2970930E+02  0.7818608E-02  0.1601324E+00
         -2   -1    0    0    0  501 -0.00000000000E+00  0.00000000000E+00  0.59977499519E+02  0.59977499576E+02  0.26000000000E-02 0.  1.
          2   -1    0    0  501    0  0.00000000000E+00 -0.00000000000E+00 -0.36790574588E+01  0.36790583775E+01  0.26000000000E-02 0. -1.
        -13    1    1    2    0    0  0.79287394730E+01  0.11831062508E+02  0.19106697610E+02  0.23830988560E+02  0.10570000000E+00 0. -1.
         13    1    1    2    0    0 -0.79287394730E+01 -0.11831062508E+02  0.37191744450E+02  0.39825569393E+02  0.10570000000E+00 0.  1.
<mgrwt>
<rscale>  0 0.29709305E+02</rscale>
<asrwt>0</asrwt>
<pdfrwt beam="2">  1        2 0.56600891E-03 0.29709305E+02</pdfrwt>
<pdfrwt beam="1">  1       -2 0.92273077E-02 0.29709305E+02</pdfrwt>
<totfact> 0.13527905E+06</totfact>
</mgrwt>
</event>
<event>
 4    1  0.3704929E-001  0.2298651E+02  0.7818608E-02  0.1691729E+00
         -2   -1    0    0    0  501 -0.00000000000E+00  0.00000000000E+00  0.71712133445E+02  0.71712133492E+02  0.26000000000E-02 0.  1.
          2   -1    0    0  501    0  0.00000000000E+00 -0.00000000000E+00 -0.18420151461E+01  0.18420169810E+01  0.26000000000E-02 0. -1.
        -13    1    1    2    0    0 -0.65989626697E+01 -0.85802876561E+01  0.22576676882E+02  0.25037674735E+02  0.10570000000E+00 0. -1.
         13    1    1    2    0    0  0.65989626697E+01  0.85802876561E+01  0.47293441417E+02  0.48516475739E+02  0.10570000000E+00 0.  1.
<mgrwt>
<rscale>  0 0.22986510E+02</rscale>
<asrwt>0</asrwt>
<pdfrwt beam="2">  1        2 0.28338706E-03 0.22986510E+02</pdfrwt>
<pdfrwt beam="1">  1       -2 0.11032637E-01 0.22986510E+02</pdfrwt>
<totfact> 0.23482557E+06</totfact>
</mgrwt>
</event>
<event>
 4    1  0.3704929E-001  0.2521926E+02  0.7818608E-02  0.1657872E+00
          2   -1    0    0  501    0  0.00000000000E+00  0.00000000000E+00  0.28772126462E+02  0.28772126580E+02  0.26000000000E-02 0.  1.
         -2   -1    0    0    0  501 -0.00000000000E+00 -0.00000000000E+00 -0.55262783464E+01  0.55262789581E+01  0.26000000000E-02 0. -1.
        -13    1    1    2    0    0 -0.75915897824E+00 -0.11194117911E+02  0.37976129176E+01  0.11845574470E+02  0.10570000000E+00 0. -1.
         13    1    1    2    0    0  0.75915897824E+00  0.11194117911E+02  0.19448235198E+02  0.22452831068E+02  0.10570000000E+00 0.  1.
<mgrwt>
<rscale>  0 0.25219262E+02</rscale>
<asrwt>0</asrwt>
<pdfrwt beam="1">  1        2 0.44264810E-02 0.25219262E+02</pdfrwt>
<pdfrwt beam="2">  1       -2 0.85019673E-03 0.25219262E+02</pdfrwt>
<totfact> 0.25382148E+06</totfact>
</mgrwt>
</event>
<event>
 4    1  0.3704929E-001  0.3294098E+02  0.7818608E-02  0.1567684E+00
          2   -1    0    0  501    0  0.00000000000E+00  0.00000000000E+00  0.62152096549E+02  0.62152096603E+02  0.26000000000E-02 0. -1.
         -2   -1    0    0    0  501 -0.00000000000E+00 -0.00000000000E+00 -0.43647279495E+01  0.43647287239E+01  0.26000000000E-02 0.  1.
        -13    1    1    2    0    0 -0.12766734854E+02 -0.84888965631E+00  0.79519926259E+01  0.15065042041E+02  0.10570000000E+00 0.  1.
         13    1    1    2    0    0  0.12766734854E+02  0.84888965631E+00  0.49835375974E+02  0.51451783287E+02  0.10570000000E+00 0. -1.
<mgrwt>
<rscale>  0 0.32940979E+02</rscale>
<asrwt>0</asrwt>
<pdfrwt beam="1">  1        2 0.95618613E-02 0.32940979E+02</pdfrwt>
<pdfrwt beam="2">  1       -2 0.67149665E-03 0.32940979E+02</pdfrwt>
<totfact> 0.15099646E+06</totfact>
</mgrwt>
</event>
<event>
 4    1  0.3704929E-001  0.2689095E+02  0.7818608E-02  0.1635238E+00
         -2   -1    0    0    0  501 -0.00000000000E+00  0.00000000000E+00  0.29144194378E+02  0.29144194494E+02  0.26000000000E-02 0. -1.
          2   -1    0    0  501    0  0.00000000000E+00 -0.00000000000E+00 -0.62029771675E+01  0.62029777124E+01  0.26000000000E-02 0.  1.
        -13    1    1    2    0    0  0.93467698281E+01 -0.58427425775E+01  0.21590259121E+02  0.24241497653E+02  0.10570000000E+00 0. -1.
         13    1    1    2    0    0 -0.93467698281E+01  0.58427425775E+01  0.13509580898E+01  0.11105674554E+02  0.10570000000E+00 0.  1.
<mgrwt>
<rscale>  0 0.26890949E+02</rscale>
<asrwt>0</asrwt>
<pdfrwt beam="2">  1        2 0.95430423E-03 0.26890949E+02</pdfrwt>
<pdfrwt beam="1">  1       -2 0.44837222E-02 0.26890949E+02</pdfrwt>
<totfact> 0.18721934E+06</totfact>
</mgrwt>
</event>
<event>
 4    1  0.3704929E-001  0.3716180E+02  0.7818608E-02  0.1530201E+00
         -2   -1    0    0    0  501 -0.00000000000E+00  0.00000000000E+00  0.25854585074E+02  0.25854585204E+02  0.26000000000E-02 0. -1.
          2   -1    0    0  501    0  0.00000000000E+00 -0.00000000000E+00 -0.13353525189E+02  0.13353525442E+02  0.26000000000E-02 0.  1.
        -13    1    1    2    0    0 -0.12303392318E+02  0.12137403556E+02 -0.94781671335E+00  0.17308944411E+02  0.10570000000E+00 0.  1.
         13    1    1    2    0    0  0.12303392318E+02 -0.12137403556E+02  0.13448876598E+02  0.21899166236E+02  0.10570000000E+00 0. -1.
<mgrwt>
<rscale>  0 0.37161801E+02</rscale>
<asrwt>0</asrwt>
<pdfrwt beam="2">  1        2 0.20543885E-02 0.37161801E+02</pdfrwt>
<pdfrwt beam="1">  1       -2 0.39776285E-02 0.37161801E+02</pdfrwt>
<totfact> 0.90426525E+05</totfact>
</mgrwt>
</event>
<event>
 4    1  0.3704929E-001  0.7507272E+02  0.7818608E-02  0.1343646E+00
          2   -1    0    0  501    0  0.00000000000E+00  0.00000000000E+00  0.18379981234E+02  0.18379981418E+02  0.26000000000E-02 0.  1.
         -2   -1    0    0    0  501 -0.00000000000E+00 -0.00000000000E+00 -0.76658309867E+02  0.76658309911E+02  0.26000000000E-02 0. -1.
        -13    1    1    2    0    0  0.24030388081E+02 -0.57234899940E+01 -0.64917629072E+02  0.69458819640E+02  0.10570000000E+00 0. -1.
         13    1    1    2    0    0 -0.24030388081E+02  0.57234899940E+01  0.66393004384E+01  0.25579471688E+02  0.10570000000E+00 0.  1.
<mgrwt>
<rscale>  0 0.75072720E+02</rscale>
<asrwt>0</asrwt>
<pdfrwt beam="1">  1        2 0.28276895E-02 0.75072720E+02</pdfrwt>
<pdfrwt beam="2">  1       -2 0.11793586E-01 0.75072720E+02</pdfrwt>
<totfact> 0.13877027E+05</totfact>
</mgrwt>
</event>
<event>
 4    1  0.3704929E-001  0.3268520E+02  0.7818608E-02  0.1570173E+00
         -2   -1    0    0    0  501 -0.00000000000E+00  0.00000000000E+00  0.71644286688E+01  0.71644291405E+01  0.26000000000E-02 0.  1.
          2   -1    0    0  501    0  0.00000000000E+00 -0.00000000000E+00 -0.37278702153E+02  0.37278702244E+02  0.26000000000E-02 0. -1.
        -13    1    1    2    0    0  0.15674584961E+01 -0.12485146147E+02 -0.29235804923E+02  0.31828906083E+02  0.10570000000E+00 0. -1.
         13    1    1    2    0    0 -0.15674584961E+01  0.12485146147E+02 -0.87846856164E+00  0.12614225302E+02  0.10570000000E+00 0.  1.
<mgrwt>
<rscale>  0 0.32685202E+02</rscale>
<asrwt>0</asrwt>
<pdfrwt beam="2">  1        2 0.57351849E-02 0.32685202E+02</pdfrwt>
<pdfrwt beam="1">  1       -2 0.11022199E-02 0.32685202E+02</pdfrwt>
<totfact> 0.14146113E+06</totfact>
</mgrwt>
</event>
<event>
 4    1  0.3704929E-001  0.2344909E+02  0.7818608E-02  0.1684332E+00
          2   -1    0    0  501    0  0.00000000000E+00  0.00000000000E+00  0.31677926571E+01  0.31677937241E+01  0.26000000000E-02 0.  1.
         -2   -1    0    0    0  501 -0.00000000000E+00 -0.00000000000E+00 -0.43394548745E+02  0.43394548822E+02  0.26000000000E-02 0. -1.
        -13    1    1    2    0    0  0.11074263046E+02 -0.24496647679E+01 -0.14218346023E+02  0.18188257080E+02  0.10570000000E+00 0.  1.
         13    1    1    2    0    0 -0.11074263046E+02  0.24496647679E+01 -0.26008410065E+02  0.28374085467E+02  0.10570000000E+00 0. -1.
<mgrwt>
<rscale>  0 0.23449090E+02</rscale>
<asrwt>0</asrwt>
<pdfrwt beam="1">  1        2 0.48735284E-03 0.23449090E+02</pdfrwt>
<pdfrwt beam="2">  1       -2 0.66760841E-02 0.23449090E+02</pdfrwt>
<totfact> 0.24308900E+06</totfact>
</mgrwt>
</event>
<event>
 4    1  0.3704929E-001  0.7078118E+02  0.7818608E-02  0.1357457E+00
          2   -1    0    0  501    0  0.00000000000E+00  0.00000000000E+00  0.58974020000E+02  0.58974020058E+02  0.26000000000E-02 0. -1.
         -2   -1    0    0    0  501 -0.00000000000E+00 -0.00000000000E+00 -0.21238058488E+02  0.21238058647E+02  0.26000000000E-02 0.  1.
        -13    1    1    2    0    0  0.24957390937E+02 -0.88330427933E+01  0.45483173086E+02  0.52627219325E+02  0.10570000000E+00 0. -1.
         13    1    1    2    0    0 -0.24957390937E+02  0.88330427933E+01 -0.77472115738E+01  0.27584859380E+02  0.10570000000E+00 0.  1.
<mgrwt>
<rscale>  0 0.70781175E+02</rscale>
<asrwt>0</asrwt>
<pdfrwt beam="1">  1        2 0.90729259E-02 0.70781175E+02</pdfrwt>
<pdfrwt beam="2">  1       -2 0.32673937E-02 0.70781175E+02</pdfrwt>
<totfact> 0.21239680E+05</totfact>
</mgrwt>
</event>
<event>
 4    1  0.3704929E-001  0.3145769E+02  0.7818608E-02  0.1582513E+00
          2   -1    0    0  501    0  0.00000000000E+00  0.00000000000E+00  0.42470064568E+02  0.42470064648E+02  0.26000000000E-02 0. -1.
         -2   -1    0    0    0  501 -0.00000000000E+00 -0.00000000000E+00 -0.58251964782E+01  0.58251970585E+01  0.26000000000E-02 0.  1.
        -13    1    1    2    0    0 -0.64122100570E+01  0.14138314665E+02  0.22199326435E+02  0.27089290246E+02  0.10570000000E+00 0. -1.
         13    1    1    2    0    0  0.64122100570E+01 -0.14138314665E+02  0.14445541655E+02  0.21205971461E+02  0.10570000000E+00 0.  1.
<mgrwt>
<rscale>  0 0.31457685E+02</rscale>
<asrwt>0</asrwt>
<pdfrwt beam="1">  1        2 0.65338562E-02 0.31457685E+02</pdfrwt>
<pdfrwt beam="2">  1       -2 0.89618412E-03 0.31457685E+02</pdfrwt>
<totfact> 0.15817439E+06</totfact>
</mgrwt>
</event>
<event>
 4    1  0.3704929E-001  0.2849252E+02  0.7818608E-02  0.1615376E+00
          2   -1    0    0  501    0  0.00000000000E+00  0.00000000000E+00  0.52713847997E+02  0.52713848061E+02  0.26000000000E-02 0.  1.
         -2   -1    0    0    0  501 -0.00000000000E+00 -0.00000000000E+00 -0.38501441110E+01  0.38501449889E+01  0.26000000000E-02 0. -1.
        -13    1    1    2    0    0 -0.11963035556E+02  0.58883335012E+01  0.14474407722E+02  0.19680100166E+02  0.10570000000E+00 0. -1.
         13    1    1    2    0    0  0.11963035556E+02 -0.58883335012E+01  0.34389296164E+02  0.36883892884E+02  0.10570000000E+00 0.  1.
<mgrwt>
<rscale>  0 0.28492521E+02</rscale>
<asrwt>0</asrwt>
<pdfrwt beam="1">  1        2 0.81098223E-02 0.28492521E+02</pdfrwt>
<pdfrwt beam="2">  1       -2 0.59232998E-03 0.28492521E+02</pdfrwt>
<totfact> 0.20728055E+06</totfact>
</mgrwt>
</event>
<event>
 4    1  0.3704929E-001  0.3614076E+02  0.7818608E-02  0.1538698E+00
          2   -1    0    0  501    0  0.00000000000E+00  0.00000000000E+00  0.66576768698E+02  0.66576768749E+02  0.26000000000E-02 0. -1.
         -2   -1    0    0    0  501 -0.00000000000E+00 -0.00000000000E+00 -0.49046935852E+01  0.49046942743E+01  0.26000000000E-02 0.  1.
        -13    1    1    2    0    0 -0.13527478397E+02  0.11624354672E+02  0.25100505020E+02  0.30792285041E+02  0.10570000000E+00 0. -1.
         13    1    1    2    0    0  0.13527478397E+02 -0.11624354672E+02  0.36571570093E+02  0.40689177982E+02  0.10570000000E+00 0.  1.
<mgrwt>
<rscale>  0 0.36140762E+02</rscale>
<asrwt>0</asrwt>
<pdfrwt beam="1">  1        2 0.10242580E-01 0.36140762E+02</pdfrwt>
<pdfrwt beam="2">  1       -2 0.75456828E-03 0.36140762E+02</pdfrwt>
<totfact> 0.12224392E+06</totfact>
</mgrwt>
</event>
<event>
 4    1  0.3704929E-001  0.7580958E+02  0.7818608E-02  0.1341382E+00
          2   -1    0    0  501    0  0.00000000000E+00  0.00000000000E+00  0.19429856708E+03  0.19429856709E+03  0.26000000000E-02 0. -1.
         -2   -1    0    0    0  501 -0.00000000000E+00 -0.00000000000E+00 -0.73946652798E+01  0.73946657369E+01  0.26000000000E-02 0.  1.
        -13    1    1    2    0    0  0.34127508080E+02  0.26690763513E+01  0.50145756654E+02  0.60715886383E+02  0.10570000000E+00 0.  1.
         13    1    1    2    0    0 -0.34127508080E+02 -0.26690763513E+01  0.13675814514E+03  0.14097734645E+03  0.10570000000E+00 0. -1.
<mgrwt>
<rscale>  0 0.75809575E+02</rscale>
<asrwt>0</asrwt>
<pdfrwt beam="1">  1        2 0.29892087E-01 0.75809575E+02</pdfrwt>
<pdfrwt beam="2">  1       -2 0.11376409E-02 0.75809575E+02</pdfrwt>
<totfact> 0.25029051E+05</totfact>
</mgrwt>
</event>
<event>
 4    1  0.3704929E-001  0.4091533E+02  0.7818608E-02  0.1501582E+00
          2   -1    0    0  501    0  0.00000000000E+00  0.00000000000E+00  0.70753766284E+02  0.70753766332E+02  0.26000000000E-02 0. -1.
         -2   -1    0    0    0  501 -0.00000000000E+00 -0.00000000000E+00 -0.59151060137E+01  0.59151065851E+01  0.26000000000E-02 0.  1.
        -13    1    1    2    0    0  0.76937491997E+01 -0.18419697828E+02  0.24033842197E+02  0.31242851791E+02  0.10570000000E+00 0. -1.
         13    1    1    2    0    0 -0.76937491997E+01  0.18419697828E+02  0.40804818073E+02  0.45426021126E+02  0.10570000000E+00 0.  1.
<mgrwt>
<rscale>  0 0.40915330E+02</rscale>
<asrwt>0</asrwt>
<pdfrwt beam="1">  1        2 0.10885195E-01 0.40915330E+02</pdfrwt>
<pdfrwt beam="2">  1       -2 0.91001632E-03 0.40915330E+02</pdfrwt>
<totfact> 0.91223088E+05</totfact>
</mgrwt>
</event>
<event>
 4    1  0.3704929E-001  0.2959878E+02  0.7818608E-02  0.1602566E+00
          2   -1    0    0  501    0  0.00000000000E+00  0.00000000000E+00  0.21954550424E+01  0.21954565820E+01  0.26000000000E-02 0. -1.
         -2   -1    0    0    0  501 -0.00000000000E+00 -0.00000000000E+00 -0.99761463724E+02  0.99761463758E+02  0.26000000000E-02 0.  1.
        -13    1    1    2    0    0  0.13124642122E+02  0.65392139563E+01 -0.55666382847E+02  0.57565396739E+02  0.10570000000E+00 0.  1.
         13    1    1    2    0    0 -0.13124642122E+02 -0.65392139563E+01 -0.41899625835E+02  0.44391523601E+02  0.10570000000E+00 0. -1.
<mgrwt>
<rscale>  0 0.29598776E+02</rscale>
<asrwt>0</asrwt>
<pdfrwt beam="1">  1        2 0.33776251E-03 0.29598776E+02</pdfrwt>
<pdfrwt beam="2">  1       -2 0.15347914E-01 0.29598776E+02</pdfrwt>
<totfact> 0.12313821E+06</totfact>
</mgrwt>
</event>
<event>
 4    1  0.3704929E-001  0.4567276E+02  0.7818608E-02  0.1470185E+00
          2   -1    0    0  501    0  0.00000000000E+00  0.00000000000E+00  0.10264967774E+03  0.10264967778E+03  0.26000000000E-02 0. -1.
         -2   -1    0    0    0  501 -0.00000000000E+00 -0.00000000000E+00 -0.50803890123E+01  0.50803896776E+01  0.26000000000E-02 0.  1.
        -13    1    1    2    0    0 -0.28107118999E+01 -0.22598047655E+02  0.44755894996E+02  0.50216263984E+02  0.10570000000E+00 0. -1.
         13    1    1    2    0    0  0.28107118999E+01  0.22598047655E+02  0.52813393734E+02  0.57513803468E+02  0.10570000000E+00 0.  1.
<mgrwt>
<rscale>  0 0.45672764E+02</rscale>
<asrwt>0</asrwt>
<pdfrwt beam="1">  1        2 0.15792258E-01 0.45672764E+02</pdfrwt>
<pdfrwt beam="2">  1       -2 0.78159836E-03 0.45672764E+02</pdfrwt>
<totfact> 0.75704184E+05</totfact>
</mgrwt>
</event>
<event>
 4    1  0.3704929E-001  0.2508167E+02  0.7818608E-02  0.1659832E+00
         -2   -1    0    0    0  501 -0.00000000000E+00  0.00000000000E+00  0.91949406019E+01  0.91949409695E+01  0.26000000000E-02 0. -1.
          2   -1    0    0  501    0  0.00000000000E+00 -0.00000000000E+00 -0.17104250930E+02  0.17104251128E+02  0.26000000000E-02 0.  1.
        -13    1    1    2    0    0  0.84932039302E+01  0.91925085630E+01 -0.47833880473E+01  0.13398832053E+02  0.10570000000E+00 0. -1.
         13    1    1    2    0    0 -0.84932039302E+01 -0.91925085630E+01 -0.31259222811E+01  0.12900360045E+02  0.10570000000E+00 0.  1.
<mgrwt>
<rscale>  0 0.25081673E+02</rscale>
<asrwt>0</asrwt>
<pdfrwt beam="2">  1        2 0.26314233E-02 0.25081673E+02</pdfrwt>
<pdfrwt beam="1">  1       -2 0.14146063E-02 0.25081673E+02</pdfrwt>
<totfact> 0.24375893E+06</totfact>
</mgrwt>
</event>
<event>
 4    1  0.3704929E-001  0.2064331E+02  0.7818608E-02  0.1732829E+00
         -2   -1    0    0    0  501 -0.00000000000E+00  0.00000000000E+00  0.19610768423E+02  0.19610768596E+02  0.26000000000E-02 0. -1.
          2   -1    0    0  501    0  0.00000000000E+00 -0.00000000000E+00 -0.54325558942E+01  0.54325565164E+01  0.26000000000E-02 0.  1.
        -13    1    1    2    0    0  0.80766977940E+01 -0.61028900725E+01  0.95296440253E+01  0.13903366579E+02  0.10570000000E+00 0. -1.
         13    1    1    2    0    0 -0.80766977940E+01  0.61028900725E+01  0.46485685039E+01  0.11139958533E+02  0.10570000000E+00 0.  1.
<mgrwt>
<rscale>  0 0.20643314E+02</rscale>
<asrwt>0</asrwt>
<pdfrwt beam="2">  1        2 0.83577790E-03 0.20643314E+02</pdfrwt>
<pdfrwt beam="1">  1       -2 0.30170413E-02 0.20643314E+02</pdfrwt>
<totfact> 0.34998409E+06</totfact>
</mgrwt>
</event>
<event>
 4    1  0.3704929E-001  0.4551515E+02  0.7818608E-02  0.1471151E+00
         -2   -1    0    0    0  501 -0.00000000000E+00  0.00000000000E+00  0.79291177258E+02  0.79291177301E+02  0.26000000000E-02 0. -1.
          2   -1    0    0  501    0  0.00000000000E+00 -0.00000000000E+00 -0.65317123305E+01  0.65317128479E+01  0.26000000000E-02 0.  1.
        -13    1    1    2    0    0  0.73126653379E+01  0.17723371314E+02  0.13262754225E+02  0.23313189126E+02  0.10570000000E+00 0.  1.
         13    1    1    2    0    0 -0.73126653379E+01 -0.17723371314E+02  0.59496710702E+02  0.62509701023E+02  0.10570000000E+00 0. -1.
<mgrwt>
<rscale>  0 0.45515148E+02</rscale>
<asrwt>0</asrwt>
<pdfrwt beam="2">  1        2 0.10048788E-02 0.45515148E+02</pdfrwt>
<pdfrwt beam="1">  1       -2 0.12198643E-01 0.45515148E+02</pdfrwt>
<totfact> 0.46800269E+05</totfact>
</mgrwt>
</event>
<event>
 4    1  0.3704929E-001  0.2604219E+02  0.7818608E-02  0.1646469E+00
         -2   -1    0    0    0  501 -0.00000000000E+00  0.00000000000E+00  0.58789662568E+02  0.58789662626E+02  0.26000000000E-02 0.  1.
          2   -1    0    0  501    0  0.00000000000E+00 -0.00000000000E+00 -0.28839912488E+01  0.28839924208E+01  0.26000000000E-02 0. -1.
        -13    1    1    2    0    0 -0.65058403500E+01  0.11209819374E+02  0.25002780800E+02  0.28162674399E+02  0.10570000000E+00 0.  1.
         13    1    1    2    0    0  0.65058403500E+01 -0.11209819374E+02  0.30902890519E+02  0.33510980648E+02  0.10570000000E+00 0. -1.
<mgrwt>
<rscale>  0 0.26042190E+02</rscale>
<asrwt>0</asrwt>
<pdfrwt beam="2">  1        2 0.44369105E-03 0.26042190E+02</pdfrwt>
<pdfrwt beam="1">  1       -2 0.90445636E-02 0.26042190E+02</pdfrwt>
<totfact> 0.18353048E+06</totfact>
</mgrwt>
</event>
<event>
 4    1  0.3704929E-001  0.4533869E+02  0.7818608E-02  0.1472238E+00
          2   -1    0    0  501    0  0.00000000000E+00  0.00000000000E+00  0.14406134177E+02  0.14406134411E+02  0.26000000000E-02 0. -1.
         -2   -1    0    0    0  501 -0.00000000000E+00 -0.00000000000E+00 -0.35672248528E+02  0.35672248623E+02  0.26000000000E-02 0.  1.
        -13    1    1    2    0    0  0.97863839002E+01 -0.78833840518E+01  0.10206389599E+02  0.16189583537E+02  0.10570000000E+00 0. -1.
         13    1    1    2    0    0 -0.97863839002E+01  0.78833840518E+01 -0.31472503951E+02  0.33888799497E+02  0.10570000000E+00 0.  1.
<mgrwt>
<rscale>  0 0.45338690E+02</rscale>
<asrwt>0</asrwt>
<pdfrwt beam="1">  1        2 0.22163284E-02 0.45338690E+02</pdfrwt>
<pdfrwt beam="2">  1       -2 0.54880383E-02 0.45338690E+02</pdfrwt>
<totfact> 0.54352155E+05</totfact>
</mgrwt>
</event>
<event>
 4    1  0.3704929E-001  0.2898969E+02  0.7818608E-02  0.1609532E+00
          2   -1    0    0  501    0  0.00000000000E+00  0.00000000000E+00  0.34501385019E+02  0.34501385117E+02  0.26000000000E-02 0.  1.
         -2   -1    0    0    0  501 -0.00000000000E+00 -0.00000000000E+00 -0.60896252279E+01  0.60896257829E+01  0.26000000000E-02 0. -1.
        -13    1    1    2    0    0  0.14245480923E+02 -0.17869783055E+01  0.16993037177E+02  0.22246381800E+02  0.10570000000E+00 0. -1.
         13    1    1    2    0    0 -0.14245480923E+02  0.17869783055E+01  0.11418722614E+02  0.18344629100E+02  0.10570000000E+00 0.  1.
<mgrwt>
<rscale>  0 0.28989689E+02</rscale>
<asrwt>0</asrwt>
<pdfrwt beam="1">  1        2 0.53079055E-02 0.28989689E+02</pdfrwt>
<pdfrwt beam="2">  1       -2 0.93686545E-03 0.28989689E+02</pdfrwt>
<totfact> 0.18681507E+06</totfact>
</mgrwt>
</event>
<event>
 4    1  0.3704929E-001  0.5041432E+02  0.7818608E-02  0.1443120E+00
          2   -1    0    0  501    0  0.00000000000E+00  0.00000000000E+00  0.35372748034E+02  0.35372748130E+02  0.26000000000E-02 0. -1.
         -2   -1    0    0    0  501 -0.00000000000E+00 -0.00000000000E+00 -0.17963007476E+02  0.17963007664E+02  0.26000000000E-02 0.  1.
        -13    1    1    2    0    0 -0.21452492249E+01 -0.12226287002E+02  0.31914861710E+02  0.34244032452E+02  0.10570000000E+00 0. -1.
         13    1    1    2    0    0  0.21452492249E+01  0.12226287002E+02 -0.14505121152E+02  0.19091723343E+02  0.10570000000E+00 0.  1.
<mgrwt>
<rscale>  0 0.50414321E+02</rscale>
<asrwt>0</asrwt>
<pdfrwt beam="1">  1        2 0.54419613E-02 0.50414321E+02</pdfrwt>
<pdfrwt beam="2">  1       -2 0.27635396E-02 0.50414321E+02</pdfrwt>
<totfact> 0.47208688E+05</totfact>
</mgrwt>
</event>
<event>
 4    1  0.3704929E-001  0.4327107E+02  0.7818608E-02  0.1485433E+00
          2   -1    0    0  501    0  0.00000000000E+00  0.00000000000E+00  0.33784535481E+02  0.33784535581E+02  0.26000000000E-02 0.  1.
         -2   -1    0    0    0  501 -0.00000000000E+00 -0.00000000000E+00 -0.13855341363E+02  0.13855341607E+02  0.26000000000E-02 0. -1.
        -13    1    1    2    0    0 -0.29966617053E+01  0.98281166586E+01  0.30926706524E+02  0.32589019736E+02  0.10570000000E+00 0.  1.
         13    1    1    2    0    0  0.29966617053E+01 -0.98281166586E+01 -0.10997512406E+02  0.15050857452E+02  0.10570000000E+00 0. -1.
<mgrwt>
<rscale>  0 0.43271066E+02</rscale>
<asrwt>0</asrwt>
<pdfrwt beam="1">  1        2 0.51976208E-02 0.43271066E+02</pdfrwt>
<pdfrwt beam="2">  1       -2 0.21315910E-02 0.43271066E+02</pdfrwt>
<totfact> 0.69449957E+05</totfact>
</mgrwt>
</event>
<event>
 4    1  0.3704929E-001  0.2208729E+02  0.7818608E-02  0.1706747E+00
          2   -1    0    0  501    0  0.00000000000E+00  0.00000000000E+00  0.21767241213E+01  0.21767256741E+01  0.26000000000E-02 0. -1.
         -2   -1    0    0    0  501 -0.00000000000E+00 -0.00000000000E+00 -0.56030093134E+02  0.56030093195E+02  0.26000000000E-02 0.  1.
        -13    1    1    2    0    0 -0.45312364768E+01 -0.89586185551E+01 -0.39049669311E+02  0.40319682492E+02  0.10570000000E+00 0.  1.
         13    1    1    2    0    0  0.45312364768E+01  0.89586185551E+01 -0.14803699702E+02  0.17887136377E+02  0.10570000000E+00 0. -1.
<mgrwt>
<rscale>  0 0.22087291E+02</rscale>
<asrwt>0</asrwt>
<pdfrwt beam="1">  1        2 0.33488080E-03 0.22087291E+02</pdfrwt>
<pdfrwt beam="2">  1       -2 0.86200133E-02 0.22087291E+02</pdfrwt>
<totfact> 0.26776235E+06</totfact>
</mgrwt>
</event>
<event>
 4    1  0.3704929E-001  0.2488558E+02  0.7818608E-02  0.1662651E+00
          2   -1    0    0  501    0  0.00000000000E+00  0.00000000000E+00  0.81116327152E+02  0.81116327194E+02  0.26000000000E-02 0. -1.
         -2   -1    0    0    0  501 -0.00000000000E+00 -0.00000000000E+00 -0.19086540599E+01  0.19086558308E+01  0.26000000000E-02 0.  1.
        -13    1    1    2    0    0  0.15220704344E+01 -0.10888406710E+02  0.59039656046E+02  0.60054693885E+02  0.10570000000E+00 0. -1.
         13    1    1    2    0    0 -0.15220704344E+01  0.10888406710E+02  0.20168017046E+02  0.22970289139E+02  0.10570000000E+00 0.  1.
<mgrwt>
<rscale>  0 0.24885585E+02</rscale>
<asrwt>0</asrwt>
<pdfrwt beam="1">  1        2 0.12479434E-01 0.24885585E+02</pdfrwt>
<pdfrwt beam="2">  1       -2 0.29363925E-03 0.24885585E+02</pdfrwt>
<totfact> 0.30806190E+06</totfact>
</mgrwt>
</event>
<event>
 4    1  0.3704929E-001  0.3955059E+02  0.7818608E-02  0.1511545E+00
          2   -1    0    0  501    0  0.00000000000E+00  0.00000000000E+00  0.26307985593E+02  0.26307985722E+02  0.26000000000E-02 0.  1.
         -2   -1    0    0    0  501 -0.00000000000E+00 -0.00000000000E+00 -0.14864775942E+02  0.14864776169E+02  0.26000000000E-02 0. -1.
        -13    1    1    2    0    0 -0.12023040250E+02 -0.63073866736E+01  0.20688872099E+02  0.24746256782E+02  0.10570000000E+00 0.  1.
         13    1    1    2    0    0  0.12023040250E+02  0.63073866736E+01 -0.92456624473E+01  0.16426505109E+02  0.10570000000E+00 0. -1.
<mgrwt>
<rscale>  0 0.39550591E+02</rscale>
<asrwt>0</asrwt>
<pdfrwt beam="1">  1        2 0.40473824E-02 0.39550591E+02</pdfrwt>
<pdfrwt beam="2">  1       -2 0.22868887E-02 0.39550591E+02</pdfrwt>
<totfact> 0.84123590E+05</totfact>
</mgrwt>
</event>
<event>
 4    1  0.3704929E-001  0.3049645E+02  0.7818608E-02  0.1592665E+00
         -2   -1    0    0    0  501 -0.00000000000E+00  0.00000000000E+00  0.21749282774E+01  0.21749298315E+01  0.26000000000E-02 0. -1.
          2   -1    0    0  501    0  0.00000000000E+00 -0.00000000000E+00 -0.10690387141E+03  0.10690387145E+03  0.26000000000E-02 0.  1.
        -13    1    1    2    0    0 -0.20645568472E+01 -0.13409506499E+02 -0.77253220741E+02  0.78435633145E+02  0.10570000000E+00 0.  1.
         13    1    1    2    0    0  0.20645568472E+01  0.13409506499E+02 -0.27475722396E+02  0.30643168132E+02  0.10570000000E+00 0. -1.
<mgrwt>
<rscale>  0 0.30496448E+02</rscale>
<asrwt>0</asrwt>
<pdfrwt beam="2">  1        2 0.16446745E-01 0.30496448E+02</pdfrwt>
<pdfrwt beam="1">  1       -2 0.33460456E-03 0.30496448E+02</pdfrwt>
<totfact> 0.20431234E+06</totfact>
</mgrwt>
</event>
<event>
 4    1  0.3704929E-001  0.2706398E+02  0.7818608E-02  0.1633011E+00
          2   -1    0    0  501    0  0.00000000000E+00  0.00000000000E+00  0.17392155528E+02  0.17392155723E+02  0.26000000000E-02 0. -1.
         -2   -1    0    0    0  501 -0.00000000000E+00 -0.00000000000E+00 -0.10528586088E+02  0.10528586409E+02  0.26000000000E-02 0.  1.
        -13    1    1    2    0    0  0.82914550236E+01 -0.64466664802E+01  0.12233933412E+02  0.16124144453E+02  0.10570000000E+00 0. -1.
         13    1    1    2    0    0 -0.82914550236E+01  0.64466664802E+01 -0.53703639716E+01  0.11796597679E+02  0.10570000000E+00 0.  1.
<mgrwt>
<rscale>  0 0.27063984E+02</rscale>
<asrwt>0</asrwt>
<pdfrwt beam="1">  1        2 0.26757163E-02 0.27063984E+02</pdfrwt>
<pdfrwt beam="2">  1       -2 0.16197825E-02 0.27063984E+02</pdfrwt>
<totfact> 0.20379253E+06</totfact>
</mgrwt>
</event>
<event>
 4    1  0.3704929E-001  0.1042038E+03  0.7818608E-02  0.1271696E+00
         -2   -1    0    0    0  501 -0.00000000000E+00  0.00000000000E+00  0.69443030474E+01  0.69443035342E+01  0.26000000000E-02 0.  1.
          2   -1    0    0  501    0  0.00000000000E+00 -0.00000000000E+00 -0.39091152495E+03  0.39091152496E+03  0.26000000000E-02 0. -1.
        -13    1    1    2    0    0  0.37683460175E+02 -0.34894694282E+02 -0.22546822540E+03  0.23124362628E+03  0.10570000000E+00 0.  1.
         13    1    1    2    0    0 -0.37683460175E+02  0.34894694282E+02 -0.15849899650E+03  0.16661220221E+03  0.10570000000E+00 0. -1.
<mgrwt>
<rscale>  0 0.10420380E+03</rscale>
<asrwt>0</asrwt>
<pdfrwt beam="2">  1        2 0.60140217E-01 0.10420380E+03</pdfrwt>
<pdfrwt beam="1">  1       -2 0.10683547E-02 0.10420380E+03</pdfrwt>
<totfact> 0.13850113E+05</totfact>
</mgrwt>
</event>
<event>
 4    1  0.3704929E-001  0.4558997E+02  0.7818608E-02  0.1470692E+00
         -2   -1    0    0    0  501 -0.00000000000E+00  0.00000000000E+00  0.12910091610E+02  0.12910091872E+02  0.26000000000E-02 0.  1.
          2   -1    0    0  501    0  0.00000000000E+00 -0.00000000000E+00 -0.40248469157E+02  0.40248469241E+02  0.26000000000E-02 0. -1.
        -13    1    1    2    0    0 -0.15777514024E+02  0.16337612713E+02 -0.11410392244E+02  0.25417626986E+02  0.10570000000E+00 0.  1.
         13    1    1    2    0    0  0.15777514024E+02 -0.16337612713E+02 -0.15927985302E+02  0.27740934127E+02  0.10570000000E+00 0. -1.
<mgrwt>
<rscale>  0 0.45589974E+02</rscale>
<asrwt>0</asrwt>
<pdfrwt beam="2">  1        2 0.61920721E-02 0.45589974E+02</pdfrwt>
<pdfrwt beam="1">  1       -2 0.19861680E-02 0.45589974E+02</pdfrwt>
<totfact> 0.62523827E+05</totfact>
</mgrwt>
</event>
<event>
 4    1  0.3704929E-001  0.2765946E+02  0.7818608E-02  0.1625501E+00
          2   -1    0    0  501    0  0.00000000000E+00  0.00000000000E+00  0.28127599426E+02  0.28127599547E+02  0.26000000000E-02 0.  1.
         -2   -1    0    0    0  501 -0.00000000000E+00 -0.00000000000E+00 -0.67997770751E+01  0.67997775722E+01  0.26000000000E-02 0. -1.
        -13    1    1    2    0    0  0.12994023947E+02 -0.39591341695E+01  0.13940010069E+02  0.19464183901E+02  0.10570000000E+00 0.  1.
         13    1    1    2    0    0 -0.12994023947E+02  0.39591341695E+01  0.73878122818E+01  0.15463193218E+02  0.10570000000E+00 0. -1.
<mgrwt>
<rscale>  0 0.27659459E+02</rscale>
<asrwt>0</asrwt>
<pdfrwt beam="1">  1        2 0.43273230E-02 0.27659459E+02</pdfrwt>
<pdfrwt beam="2">  1       -2 0.10461196E-02 0.27659459E+02</pdfrwt>
<totfact> 0.20364436E+06</totfact>
</mgrwt>
</event>
<event>
 4    1  0.3704929E-001  0.3451245E+02  0.7818608E-02  0.1552973E+00
         -2   -1    0    0    0  501 -0.00000000000E+00  0.00000000000E+00  0.49825134247E+01  0.49825141031E+01  0.26000000000E-02 0.  1.
          2   -1    0    0  501    0  0.00000000000E+00 -0.00000000000E+00 -0.59764464082E+02  0.59764464138E+02  0.26000000000E-02 0. -1.
        -13    1    1    2    0    0  0.13401042235E+02 -0.47174422953E+01 -0.90168296888E+01  0.16827257202E+02  0.10570000000E+00 0.  1.
         13    1    1    2    0    0 -0.13401042235E+02  0.47174422953E+01 -0.45765120968E+02  0.47919721040E+02  0.10570000000E+00 0. -1.
<mgrwt>
<rscale>  0 0.34512448E+02</rscale>
<asrwt>0</asrwt>
<pdfrwt beam="2">  1        2 0.91945325E-02 0.34512448E+02</pdfrwt>
<pdfrwt beam="1">  1       -2 0.76654063E-03 0.34512448E+02</pdfrwt>
<totfact> 0.13392464E+06</totfact>
</mgrwt>
</event>
<event>
 4    1  0.3704929E-001  0.3828800E+02  0.7818608E-02  0.1521202E+00
         -2   -1    0    0    0  501 -0.00000000000E+00  0.00000000000E+00  0.49467583553E+01  0.49467590385E+01  0.26000000000E-02 0. -1.
          2   -1    0    0  501    0  0.00000000000E+00 -0.00000000000E+00 -0.74087442016E+02  0.74087442062E+02  0.26000000000E-02 0.  1.
        -13    1    1    2    0    0 -0.13345867189E+02 -0.12495009233E+01 -0.62783406534E+02  0.64198448051E+02  0.10570000000E+00 0.  1.
         13    1    1    2    0    0  0.13345867189E+02  0.12495009233E+01 -0.63572771265E+01  0.14835753049E+02  0.10570000000E+00 0. -1.
<mgrwt>
<rscale>  0 0.38287998E+02</rscale>
<asrwt>0</asrwt>
<pdfrwt beam="2">  1        2 0.11398067E-01 0.38287998E+02</pdfrwt>
<pdfrwt beam="1">  1       -2 0.76103985E-03 0.38287998E+02</pdfrwt>
<totfact> 0.10850896E+06</totfact>
</mgrwt>
</event>
<event>
 4    1  0.3704929E-001  0.2933247E+02  0.7818608E-02  0.1605587E+00
          2   -1    0    0  501    0  0.00000000000E+00  0.00000000000E+00  0.51774640022E+01  0.51774646551E+01  0.26000000000E-02 0. -1.
         -2   -1    0    0    0  501 -0.00000000000E+00 -0.00000000000E+00 -0.41545128784E+02  0.41545128866E+02  0.26000000000E-02 0.  1.
        -13    1    1    2    0    0  0.12070895393E+02  0.63871641739E+01 -0.96676206018E+01  0.16732496597E+02  0.10570000000E+00 0. -1.
         13    1    1    2    0    0 -0.12070895393E+02 -0.63871641739E+01 -0.26700044180E+02  0.29990096924E+02  0.10570000000E+00 0.  1.
<mgrwt>
<rscale>  0 0.29332468E+02</rscale>
<asrwt>0</asrwt>
<pdfrwt beam="1">  1        2 0.79653301E-03 0.29332468E+02</pdfrwt>
<pdfrwt beam="2">  1       -2 0.63915581E-02 0.29332468E+02</pdfrwt>
<totfact> 0.14716947E+06</totfact>
</mgrwt>
</event>
<event>
 4    1  0.3704929E-001  0.2959802E+02  0.7818608E-02  0.1602575E+00
         -2   -1    0    0    0  501 -0.00000000000E+00  0.00000000000E+00  0.10769029967E+02  0.10769030280E+02  0.26000000000E-02 0. -1.
          2   -1    0    0  501    0  0.00000000000E+00 -0.00000000000E+00 -0.20337089251E+02  0.20337089417E+02  0.26000000000E-02 0.  1.
        -13    1    1    2    0    0 -0.90491461662E+01  0.11553006499E+02 -0.27787874801E+01  0.14936259165E+02  0.10570000000E+00 0. -1.
         13    1    1    2    0    0  0.90491461662E+01 -0.11553006499E+02 -0.67892718040E+01  0.16169860532E+02  0.10570000000E+00 0.  1.
<mgrwt>
<rscale>  0 0.29598022E+02</rscale>
<asrwt>0</asrwt>
<pdfrwt beam="2">  1        2 0.31287830E-02 0.29598022E+02</pdfrwt>
<pdfrwt beam="1">  1       -2 0.16567739E-02 0.29598022E+02</pdfrwt>
<totfact> 0.16700549E+06</totfact>
</mgrwt>
</event>
<event>
 4    1  0.3704929E-001  0.3781731E+02  0.7818608E-02  0.1524917E+00
         -2   -1    0    0    0  501 -0.00000000000E+00  0.00000000000E+00  0.12814504207E+02  0.12814504471E+02  0.26000000000E-02 0. -1.
          2   -1    0    0  501    0  0.00000000000E+00 -0.00000000000E+00 -0.27900978452E+02  0.27900978574E+02  0.26000000000E-02 0.  1.
        -13    1    1    2    0    0  0.68156352935E+01 -0.13147615862E+02 -0.20200621620E+02  0.25047733902E+02  0.10570000000E+00 0.  1.
         13    1    1    2    0    0 -0.68156352935E+01  0.13147615862E+02  0.51141473745E+01  0.15667749142E+02  0.10570000000E+00 0. -1.
<mgrwt>
<rscale>  0 0.37817309E+02</rscale>
<asrwt>0</asrwt>
<pdfrwt beam="2">  1        2 0.42924583E-02 0.37817309E+02</pdfrwt>
<pdfrwt beam="1">  1       -2 0.19714622E-02 0.37817309E+02</pdfrwt>
<totfact> 0.94906074E+05</totfact>
</mgrwt>
</event>
<event>
 4    1  0.3704929E-001  0.2909548E+02  0.7818608E-02  0.1608308E+00
         -2   -1    0    0    0  501 -0.00000000000E+00  0.00000000000E+00  0.39254119766E+01  0.39254128376E+01  0.26000000000E-02 0. -1.
          2   -1    0    0  501    0  0.00000000000E+00 -0.00000000000E+00 -0.53914531175E+02  0.53914531238E+02  0.26000000000E-02 0.  1.
        -13    1    1    2    0    0 -0.90009429776E+01 -0.97069249099E+01 -0.36985656891E+02  0.39283474310E+02  0.10570000000E+00 0.  1.
         13    1    1    2    0    0  0.90009429776E+01  0.97069249099E+01 -0.13003462308E+02  0.18556469766E+02  0.10570000000E+00 0. -1.
<mgrwt>
<rscale>  0 0.29095482E+02</rscale>
<asrwt>0</asrwt>
<pdfrwt beam="2">  1        2 0.82945428E-02 0.29095482E+02</pdfrwt>
<pdfrwt beam="1">  1       -2 0.60390964E-03 0.29095482E+02</pdfrwt>
<totfact> 0.19802102E+06</totfact>
</mgrwt>
</event>
<event>
 4    1  0.3704929E-001  0.2499764E+02  0.7818608E-02  0.1661036E+00
         -2   -1    0    0    0  501 -0.00000000000E+00  0.00000000000E+00  0.18447209796E+01  0.18447228118E+01  0.26000000000E-02 0.  1.
          2   -1    0    0  501    0  0.00000000000E+00 -0.00000000000E+00 -0.84685112036E+02  0.84685112076E+02  0.26000000000E-02 0. -1.
        -13    1    1    2    0    0  0.12071590426E+02  0.29395248376E+01 -0.36718118387E+02  0.38763326638E+02  0.10570000000E+00 0.  1.
         13    1    1    2    0    0 -0.12071590426E+02 -0.29395248376E+01 -0.46122272669E+02  0.47766508249E+02  0.10570000000E+00 0. -1.
<mgrwt>
<rscale>  0 0.24997639E+02</rscale>
<asrwt>0</asrwt>
<pdfrwt beam="2">  1        2 0.13028476E-01 0.24997639E+02</pdfrwt>
<pdfrwt beam="1">  1       -2 0.28380344E-03 0.24997639E+02</pdfrwt>
<totfact> 0.30769135E+06</totfact>
</mgrwt>
</event>
<event>
 4    1  0.3704929E-001  0.2430317E+02  0.7818608E-02  0.1671217E+00
          2   -1    0    0  501    0  0.00000000000E+00  0.00000000000E+00  0.18570738148E+02  0.18570738330E+02  0.26000000000E-02 0.  1.
         -2   -1    0    0    0  501 -0.00000000000E+00 -0.00000000000E+00 -0.79512716766E+01  0.79512721017E+01  0.26000000000E-02 0. -1.
        -13    1    1    2    0    0  0.42326937377E+01  0.95489702487E+01  0.12085571267E+02  0.15974064431E+02  0.10570000000E+00 0.  1.
         13    1    1    2    0    0 -0.42326937377E+01 -0.95489702487E+01 -0.14661047954E+01  0.10547946001E+02  0.10570000000E+00 0. -1.
<mgrwt>
<rscale>  0 0.24303168E+02</rscale>
<asrwt>0</asrwt>
<pdfrwt beam="1">  1        2 0.28570367E-02 0.24303168E+02</pdfrwt>
<pdfrwt beam="2">  1       -2 0.12232726E-02 0.24303168E+02</pdfrwt>
<totfact> 0.26453995E+06</totfact>
</mgrwt>
</event>
<event>
 4    1  0.3704929E-001  0.3213238E+02  0.7818608E-02  0.1575647E+00
         -2   -1    0    0    0  501 -0.00000000000E+00  0.00000000000E+00  0.68565978406E+01  0.68565983336E+01  0.26000000000E-02 0.  1.
          2   -1    0    0  501    0  0.00000000000E+00 -0.00000000000E+00 -0.37645840017E+02  0.37645840107E+02  0.26000000000E-02 0. -1.
        -13    1    1    2    0    0 -0.13484350331E+02 -0.10013527473E+01 -0.27411263057E+02  0.30564995109E+02  0.10570000000E+00 0. -1.
         13    1    1    2    0    0  0.13484350331E+02  0.10013527473E+01 -0.33779791196E+01  0.13937443331E+02  0.10570000000E+00 0.  1.
<mgrwt>
<rscale>  0 0.32132376E+02</rscale>
<asrwt>0</asrwt>
<pdfrwt beam="2">  1        2 0.57916676E-02 0.32132376E+02</pdfrwt>
<pdfrwt beam="1">  1       -2 0.10548613E-02 0.32132376E+02</pdfrwt>
<totfact> 0.14763804E+06</totfact>
</mgrwt>
</event>
<event>
 4    1  0.3704929E-001  0.3544210E+02  0.7818608E-02  0.1544709E+00
         -2   -1    0    0    0  501 -0.00000000000E+00  0.00000000000E+00  0.24470555404E+02  0.24470555542E+02  0.26000000000E-02 0.  1.
          2   -1    0    0  501    0  0.00000000000E+00 -0.00000000000E+00 -0.12833200562E+02  0.12833200826E+02  0.26000000000E-02 0. -1.
        -13    1    1    2    0    0 -0.79957669168E+01 -0.14565324550E+02 -0.66470075652E+00  0.16629310492E+02  0.10570000000E+00 0. -1.
         13    1    1    2    0    0  0.79957669168E+01  0.14565324550E+02  0.12302055598E+02  0.20674445876E+02  0.10570000000E+00 0.  1.
<mgrwt>
<rscale>  0 0.35442097E+02</rscale>
<asrwt>0</asrwt>
<pdfrwt beam="2">  1        2 0.19743386E-02 0.35442097E+02</pdfrwt>
<pdfrwt beam="1">  1       -2 0.37647008E-02 0.35442097E+02</pdfrwt>
<totfact> 0.10156990E+06</totfact>
</mgrwt>
</event>
<event>
 4    1  0.3704929E-001  0.3605361E+02  0.7818608E-02  0.1539438E+00
         -2   -1    0    0    0  501 -0.00000000000E+00  0.00000000000E+00  0.24259098483E+02  0.24259098623E+02  0.26000000000E-02 0.  1.
          2   -1    0    0  501    0  0.00000000000E+00 -0.00000000000E+00 -0.13395622039E+02  0.13395622291E+02  0.26000000000E-02 0. -1.
        -13    1    1    2    0    0 -0.40755219457E+01 -0.15039641718E+02 -0.40346565922E+01  0.16096283063E+02  0.10570000000E+00 0. -1.
         13    1    1    2    0    0  0.40755219457E+01  0.15039641718E+02  0.14898133036E+02  0.21558437851E+02  0.10570000000E+00 0.  1.
<mgrwt>
<rscale>  0 0.36053611E+02</rscale>
<asrwt>0</asrwt>
<pdfrwt beam="2">  1        2 0.20608650E-02 0.36053611E+02</pdfrwt>
<pdfrwt beam="1">  1       -2 0.37321690E-02 0.36053611E+02</pdfrwt>
<totfact> 0.97741712E+05</totfact>
</mgrwt>
</event>
<event>
 4    1  0.3704929E-001  0.3556488E+02  0.7818608E-02  0.1543641E+00
         -2   -1    0    0    0  501 -0.00000000000E+00  0.00000000000E+00  0.67225203337E+01  0.67225208365E+01  0.26000000000E-02 0.  1.
          2   -1    0    0  501    0  0.00000000000E+00 -0.00000000000E+00 -0.47038176322E+02  0.47038176393E+02  0.26000000000E-02 0. -1.
        -13    1    1    2    0    0  0.70713096492E+01 -0.16237163664E+02 -0.22574079148E+02  0.28692318238E+02  0.10570000000E+00 0.  1.
         13    1    1    2    0    0 -0.70713096492E+01  0.16237163664E+02 -0.17741576840E+02  0.25068378992E+02  0.10570000000E+00 0. -1.
<mgrwt>
<rscale>  0 0.35564877E+02</rscale>
<asrwt>0</asrwt>
<pdfrwt beam="2">  1        2 0.72366423E-02 0.35564877E+02</pdfrwt>
<pdfrwt beam="1">  1       -2 0.10342340E-02 0.35564877E+02</pdfrwt>
<totfact> 0.11935533E+06</totfact>
</mgrwt>
</event>
<event>
 4    1  0.3704929E-001  0.3035841E+02  0.7818608E-02  0.1594160E+00
          2   -1    0    0  501    0  0.00000000000E+00  0.00000000000E+00  0.97067364620E+02  0.97067364655E+02  0.26000000000E-02 0.  1.
         -2   -1    0    0    0  501 -0.00000000000E+00 -0.00000000000E+00 -0.23736934773E+01  0.23736949012E+01  0.26000000000E-02 0. -1.
        -13    1    1    2    0    0 -0.13315536131E+02  0.17809837167E+01  0.24203216546E+02  0.27681803936E+02  0.10570000000E+00 0. -1.
         13    1    1    2    0    0  0.13315536131E+02 -0.17809837167E+01  0.70490454596E+02  0.71759255620E+02  0.10570000000E+00 0.  1.
<mgrwt>
<rscale>  0 0.30358409E+02</rscale>
<asrwt>0</asrwt>
<pdfrwt beam="1">  1        2 0.14933439E-01 0.30358409E+02</pdfrwt>
<pdfrwt beam="2">  1       -2 0.36518377E-03 0.30358409E+02</pdfrwt>
<totfact> 0.20172783E+06</totfact>
</mgrwt>
</event>
<event>
 4    1  0.3704929E-001  0.7398787E+02  0.7818608E-02  0.1347034E+00
          2   -1    0    0  501    0  0.00000000000E+00  0.00000000000E+00  0.79045991759E+02  0.79045991802E+02  0.26000000000E-02 0.  1.
         -2   -1    0    0    0  501 -0.00000000000E+00 -0.00000000000E+00 -0.17313353339E+02  0.17313353535E+02  0.26000000000E-02 0. -1.
        -13    1    1    2    0    0 -0.31866564786E+02 -0.12555726275E+01  0.55283026435E+02  0.63822242190E+02  0.10570000000E+00 0.  1.
         13    1    1    2    0    0  0.31866564786E+02  0.12555726275E+01  0.64496119853E+01  0.32537103146E+02  0.10570000000E+00 0. -1.
<mgrwt>
<rscale>  0 0.73987869E+02</rscale>
<asrwt>0</asrwt>
<pdfrwt beam="1">  1        2 0.12160922E-01 0.73987869E+02</pdfrwt>
<pdfrwt beam="2">  1       -2 0.26635928E-02 0.73987869E+02</pdfrwt>
<totfact> 0.20266473E+05</totfact>
</mgrwt>
</event>
<event>
 4    1  0.3704929E-001  0.2741507E+02  0.7818608E-02  0.1628555E+00
         -2   -1    0    0    0  501 -0.00000000000E+00  0.00000000000E+00  0.10942407088E+02  0.10942407397E+02  0.26000000000E-02 0.  1.
          2   -1    0    0  501    0  0.00000000000E+00 -0.00000000000E+00 -0.17171407170E+02  0.17171407367E+02  0.26000000000E-02 0. -1.
        -13    1    1    2    0    0  0.53438560275E+01 -0.12418077689E+02 -0.79410663744E+00  0.13542792495E+02  0.10570000000E+00 0. -1.
         13    1    1    2    0    0 -0.53438560275E+01  0.12418077689E+02 -0.54348934443E+01  0.14571022269E+02  0.10570000000E+00 0.  1.
<mgrwt>
<rscale>  0 0.27415071E+02</rscale>
<asrwt>0</asrwt>
<pdfrwt beam="2">  1        2 0.26417550E-02 0.27415071E+02</pdfrwt>
<pdfrwt beam="1">  1       -2 0.16834473E-02 0.27415071E+02</pdfrwt>
<totfact> 0.19735640E+06</totfact>
</mgrwt>
</event>
<event>
 4    1  0.3704929E-001  0.2195177E+02  0.7818608E-02  0.1709087E+00
          2   -1    0    0  501    0  0.00000000000E+00  0.00000000000E+00  0.20648921917E+02  0.20648922081E+02  0.26000000000E-02 0. -1.
         -2   -1    0    0    0  501 -0.00000000000E+00 -0.00000000000E+00 -0.58342054381E+01  0.58342060174E+01  0.26000000000E-02 0.  1.
        -13    1    1    2    0    0 -0.10780972721E+02  0.18436744716E+01  0.63080017200E+01  0.12626581745E+02  0.10570000000E+00 0.  1.
         13    1    1    2    0    0  0.10780972721E+02 -0.18436744716E+01  0.85067147590E+01  0.13856546353E+02  0.10570000000E+00 0. -1.
<mgrwt>
<rscale>  0 0.21951771E+02</rscale>
<asrwt>0</asrwt>
<pdfrwt beam="1">  1        2 0.31767572E-02 0.21951771E+02</pdfrwt>
<pdfrwt beam="2">  1       -2 0.89757014E-03 0.21951771E+02</pdfrwt>
<totfact> 0.33816475E+06</totfact>
</mgrwt>
</event>
<event>
 4    1  0.3704929E-001  0.2555199E+02  0.7818608E-02  0.1653198E+00
         -2   -1    0    0    0  501 -0.00000000000E+00  0.00000000000E+00  0.11154614242E+03  0.11154614245E+03  0.26000000000E-02 0. -1.
          2   -1    0    0  501    0  0.00000000000E+00 -0.00000000000E+00 -0.14633040190E+01  0.14633063288E+01  0.26000000000E-02 0.  1.
        -13    1    1    2    0    0  0.81671699942E+01 -0.97847047772E+01  0.51156047681E+02  0.52719972498E+02  0.10570000000E+00 0.  1.
         13    1    1    2    0    0 -0.81671699942E+01  0.97847047772E+01  0.58926790722E+02  0.60289476284E+02  0.10570000000E+00 0. -1.
<mgrwt>
<rscale>  0 0.25551990E+02</rscale>
<asrwt>0</asrwt>
<pdfrwt beam="2">  1        2 0.22512386E-03 0.25551990E+02</pdfrwt>
<pdfrwt beam="1">  1       -2 0.17160946E-01 0.25551990E+02</pdfrwt>
<totfact> 0.16765809E+06</totfact>
</mgrwt>
</event>
<event>
 4    1  0.3704929E-001  0.3762607E+02  0.7818608E-02  0.1526445E+00
          2   -1    0    0  501    0  0.00000000000E+00  0.00000000000E+00  0.37127695702E+02  0.37127695793E+02  0.26000000000E-02 0.  1.
         -2   -1    0    0    0  501 -0.00000000000E+00 -0.00000000000E+00 -0.95327829864E+01  0.95327833410E+01  0.26000000000E-02 0. -1.
        -13    1    1    2    0    0  0.14431430105E+02  0.11329831065E+02  0.86412425034E+01  0.20280865152E+02  0.10570000000E+00 0.  1.
         13    1    1    2    0    0 -0.14431430105E+02 -0.11329831065E+02  0.18953670212E+02  0.26379613982E+02  0.10570000000E+00 0. -1.
<mgrwt>
<rscale>  0 0.37626069E+02</rscale>
<asrwt>0</asrwt>
<pdfrwt beam="1">  1        2 0.57119533E-02 0.37626069E+02</pdfrwt>
<pdfrwt beam="2">  1       -2 0.14665820E-02 0.37626069E+02</pdfrwt>
<totfact> 0.10008082E+06</totfact>
</mgrwt>
</event>
<event>
 4    1  0.3704929E-001  0.1897875E+03  0.7818608E-02  0.1158653E+00
          2   -1    0    0  501    0  0.00000000000E+00  0.00000000000E+00  0.34741053782E+03  0.34741053783E+03  0.26000000000E-02 0. -1.
         -2   -1    0    0    0  501 -0.00000000000E+00 -0.00000000000E+00 -0.25919835906E+02  0.25919836036E+02  0.26000000000E-02 0.  1.
        -13    1    1    2    0    0 -0.59532253254E+02 -0.38382450737E+02  0.36529598707E+02  0.79697706719E+02  0.10570000000E+00 0.  1.
         13    1    1    2    0    0  0.59532253254E+02  0.38382450737E+02  0.28496110320E+03  0.29363266714E+03  0.10570000000E+00 0. -1.
<mgrwt>
<rscale>  0 0.18978750E+03</rscale>
<asrwt>0</asrwt>
<pdfrwt beam="1">  1        2 0.53447775E-01 0.18978750E+03</pdfrwt>
<pdfrwt beam="2">  1       -2 0.39876671E-02 0.18978750E+03</pdfrwt>
<totfact> 0.24749721E+04</totfact>
</mgrwt>
</event>
<event>
 4    1  0.3704929E-001  0.2945637E+02  0.7818608E-02  0.1604177E+00
          2   -1    0    0  501    0  0.00000000000E+00  0.00000000000E+00  0.16971915689E+02  0.16971915888E+02  0.26000000000E-02 0.  1.
         -2   -1    0    0    0  501 -0.00000000000E+00 -0.00000000000E+00 -0.12781077570E+02  0.12781077835E+02  0.26000000000E-02 0. -1.
        -13    1    1    2    0    0  0.66948697419E+01 -0.83761523001E+01 -0.81021373115E+01  0.13440126849E+02  0.10570000000E+00 0. -1.
         13    1    1    2    0    0 -0.66948697419E+01  0.83761523001E+01  0.12292975430E+02  0.16312866874E+02  0.10570000000E+00 0.  1.
<mgrwt>
<rscale>  0 0.29456366E+02</rscale>
<asrwt>0</asrwt>
<pdfrwt beam="1">  1        2 0.26110640E-02 0.29456366E+02</pdfrwt>
<pdfrwt beam="2">  1       -2 0.19663197E-02 0.29456366E+02</pdfrwt>
<totfact> 0.16579176E+06</totfact>
</mgrwt>
</event>
<event>
 4    1  0.3704929E-001  0.2479605E+02  0.7818608E-02  0.1663949E+00
          2   -1    0    0  501    0  0.00000000000E+00  0.00000000000E+00  0.18298713303E+02  0.18298713488E+02  0.26000000000E-02 0. -1.
         -2   -1    0    0    0  501 -0.00000000000E+00 -0.00000000000E+00 -0.84000986713E+01  0.84000990737E+01  0.26000000000E-02 0.  1.
        -13    1    1    2    0    0 -0.10139814208E+02  0.21673364665E+00  0.12626448755E+02  0.16195715060E+02  0.10570000000E+00 0. -1.
         13    1    1    2    0    0  0.10139814208E+02 -0.21673364665E+00 -0.27278341229E+01  0.10503097502E+02  0.10570000000E+00 0.  1.
<mgrwt>
<rscale>  0 0.24796048E+02</rscale>
<asrwt>0</asrwt>
<pdfrwt beam="1">  1        2 0.28151867E-02 0.24796048E+02</pdfrwt>
<pdfrwt beam="2">  1       -2 0.12923229E-02 0.24796048E+02</pdfrwt>
<totfact> 0.25201533E+06</totfact>
</mgrwt>
</event>
<event>
 4    1  0.3704929E-001  0.2530715E+02  0.7818608E-02  0.1656629E+00
          2   -1    0    0  501    0  0.00000000000E+00  0.00000000000E+00  0.19011664972E+02  0.19011665150E+02  0.26000000000E-02 0.  1.
         -2   -1    0    0    0  501 -0.00000000000E+00 -0.00000000000E+00 -0.84218293037E+01  0.84218297051E+01  0.26000000000E-02 0. -1.
        -13    1    1    2    0    0  0.23154548951E+01 -0.12286179212E+02  0.31844695023E+01  0.12902075395E+02  0.10570000000E+00 0.  1.
         13    1    1    2    0    0 -0.23154548951E+01  0.12286179212E+02  0.74053661664E+01  0.14531419461E+02  0.10570000000E+00 0. -1.
<mgrwt>
<rscale>  0 0.25307154E+02</rscale>
<asrwt>0</asrwt>
<pdfrwt beam="1">  1        2 0.29248716E-02 0.25307154E+02</pdfrwt>
<pdfrwt beam="2">  1       -2 0.12956661E-02 0.25307154E+02</pdfrwt>
<totfact> 0.24106771E+06</totfact>
</mgrwt>
</event>
<event>
 4    1  0.3704929E-001  0.2835979E+02  0.7818608E-02  0.1616960E+00
          2   -1    0    0  501    0  0.00000000000E+00  0.00000000000E+00  0.19630410986E+02  0.19630411158E+02  0.26000000000E-02 0.  1.
         -2   -1    0    0    0  501 -0.00000000000E+00 -0.00000000000E+00 -0.10242749888E+02  0.10242750218E+02  0.26000000000E-02 0. -1.
        -13    1    1    2    0    0  0.13826084970E+02  0.31189095048E+01  0.42595140692E+01  0.14800096442E+02  0.10570000000E+00 0. -1.
         13    1    1    2    0    0 -0.13826084970E+02 -0.31189095048E+01  0.51281470280E+01  0.15073064934E+02  0.10570000000E+00 0.  1.
<mgrwt>
<rscale>  0 0.28359788E+02</rscale>
<asrwt>0</asrwt>
<pdfrwt beam="1">  1        2 0.30200633E-02 0.28359788E+02</pdfrwt>
<pdfrwt beam="2">  1       -2 0.15758077E-02 0.28359788E+02</pdfrwt>
<totfact> 0.18442670E+06</totfact>
</mgrwt>
</event>
<event>
 4    1  0.3704929E-001  0.2655081E+02  0.7818608E-02  0.1639677E+00
          2   -1    0    0  501    0  0.00000000000E+00  0.00000000000E+00  0.22791828056E+01  0.22791842886E+01  0.26000000000E-02 0. -1.
         -2   -1    0    0    0  501 -0.00000000000E+00 -0.00000000000E+00 -0.77324360513E+02  0.77324360557E+02  0.26000000000E-02 0.  1.
        -13    1    1    2    0    0  0.11233730747E+02 -0.75483910731E+00 -0.58607713291E+02  0.59679491605E+02  0.10570000000E+00 0.  1.
         13    1    1    2    0    0 -0.11233730747E+02  0.75483910731E+00 -0.16437464417E+02  0.19924053240E+02  0.10570000000E+00 0. -1.
<mgrwt>
<rscale>  0 0.26550813E+02</rscale>
<asrwt>0</asrwt>
<pdfrwt beam="1">  1        2 0.35064368E-03 0.26550813E+02</pdfrwt>
<pdfrwt beam="2">  1       -2 0.11896054E-01 0.26550813E+02</pdfrwt>
<totfact> 0.16714612E+06</totfact>
</mgrwt>
</event>
<event>
 4    1  0.3704929E-001  0.2367557E+02  0.7818608E-02  0.1680788E+00
         -2   -1    0    0    0  501 -0.00000000000E+00  0.00000000000E+00  0.33660013993E+02  0.33660014093E+02  0.26000000000E-02 0.  1.
          2   -1    0    0  501    0  0.00000000000E+00 -0.00000000000E+00 -0.41631945046E+01  0.41631953165E+01  0.26000000000E-02 0. -1.
        -13    1    1    2    0    0  0.50521267003E+01  0.95923109026E+01  0.22340718153E+02  0.24832544629E+02  0.10570000000E+00 0.  1.
         13    1    1    2    0    0 -0.50521267003E+01 -0.95923109026E+01  0.71561013352E+01  0.12990664781E+02  0.10570000000E+00 0. -1.
<mgrwt>
<rscale>  0 0.23675574E+02</rscale>
<asrwt>0</asrwt>
<pdfrwt beam="2">  1        2 0.64049151E-03 0.23675574E+02</pdfrwt>
<pdfrwt beam="1">  1       -2 0.51784639E-02 0.23675574E+02</pdfrwt>
<totfact> 0.24539776E+06</totfact>
</mgrwt>
</event>
<event>
 4    1  0.3704929E-001  0.3136746E+02  0.7818608E-02  0.1583447E+00
         -2   -1    0    0    0  501 -0.00000000000E+00  0.00000000000E+00  0.70649750241E+01  0.70649755025E+01  0.26000000000E-02 0. -1.
          2   -1    0    0  501    0  0.00000000000E+00 -0.00000000000E+00 -0.34816730170E+02  0.34816730267E+02  0.26000000000E-02 0.  1.
        -13    1    1    2    0    0  0.54146737767E+01 -0.11143961162E+02 -0.26714716946E+02  0.29448155061E+02  0.10570000000E+00 0.  1.
         13    1    1    2    0    0 -0.54146737767E+01  0.11143961162E+02 -0.10370381994E+01  0.12433550708E+02  0.10570000000E+00 0. -1.
<mgrwt>
<rscale>  0 0.31367457E+02</rscale>
<asrwt>0</asrwt>
<pdfrwt beam="2">  1        2 0.53564200E-02 0.31367457E+02</pdfrwt>
<pdfrwt beam="1">  1       -2 0.10869193E-02 0.31367457E+02</pdfrwt>
<totfact> 0.15479817E+06</totfact>
</mgrwt>
</event>
<event>
 4    1  0.3704929E-001  0.2788881E+02  0.7818608E-02  0.1622670E+00
         -2   -1    0    0    0  501 -0.00000000000E+00  0.00000000000E+00  0.57418222889E+01  0.57418228775E+01  0.26000000000E-02 0.  1.
          2   -1    0    0  501    0  0.00000000000E+00 -0.00000000000E+00 -0.33864923393E+02  0.33864923493E+02  0.26000000000E-02 0. -1.
        -13    1    1    2    0    0  0.71436997603E+00 -0.12244495662E+02 -0.23481570570E+02  0.26492137086E+02  0.10570000000E+00 0. -1.
         13    1    1    2    0    0 -0.71436997603E+00  0.12244495662E+02 -0.46415305345E+01  0.13114609284E+02  0.10570000000E+00 0.  1.
<mgrwt>
<rscale>  0 0.27888807E+02</rscale>
<asrwt>0</asrwt>
<pdfrwt beam="2">  1        2 0.52099882E-02 0.27888807E+02</pdfrwt>
<pdfrwt beam="1">  1       -2 0.88335734E-03 0.27888807E+02</pdfrwt>
<totfact> 0.20431110E+06</totfact>
</mgrwt>
</event>
<event>
 4    1  0.3704929E-001  0.4188651E+02  0.7818608E-02  0.1494770E+00
          2   -1    0    0  501    0  0.00000000000E+00  0.00000000000E+00  0.48463589247E+02  0.48463589317E+02  0.26000000000E-02 0. -1.
         -2   -1    0    0    0  501 -0.00000000000E+00 -0.00000000000E+00 -0.90505055681E+01  0.90505059415E+01  0.26000000000E-02 0.  1.
        -13    1    1    2    0    0  0.15560630057E+02  0.35953772918E+01  0.11038431818E+01  0.16009047064E+02  0.10570000000E+00 0.  1.
         13    1    1    2    0    0 -0.15560630057E+02 -0.35953772918E+01  0.38309240498E+02  0.41505048195E+02  0.10570000000E+00 0. -1.
<mgrwt>
<rscale>  0 0.41886513E+02</rscale>
<asrwt>0</asrwt>
<pdfrwt beam="1">  1        2 0.74559366E-02 0.41886513E+02</pdfrwt>
<pdfrwt beam="2">  1       -2 0.13923855E-02 0.41886513E+02</pdfrwt>
<totfact> 0.79980085E+05</totfact>
</mgrwt>
</event>
<event>
 4    1  0.3704929E-001  0.3024139E+02  0.7818608E-02  0.1595436E+00
          2   -1    0    0  501    0  0.00000000000E+00  0.00000000000E+00  0.10723278582E+03  0.10723278585E+03  0.26000000000E-02 0.  1.
         -2   -1    0    0    0  501 -0.00000000000E+00 -0.00000000000E+00 -0.21321401348E+01  0.21321417200E+01  0.26000000000E-02 0. -1.
        -13    1    1    2    0    0  0.85890858304E+01 -0.12372268297E+02  0.57373606745E+02  0.59317681526E+02  0.10570000000E+00 0. -1.
         13    1    1    2    0    0 -0.85890858304E+01  0.12372268297E+02  0.47727038936E+02  0.50047246041E+02  0.10570000000E+00 0.  1.
<mgrwt>
<rscale>  0 0.30241390E+02</rscale>
<asrwt>0</asrwt>
<pdfrwt beam="1">  1        2 0.16497352E-01 0.30241390E+02</pdfrwt>
<pdfrwt beam="2">  1       -2 0.32802168E-03 0.30241390E+02</pdfrwt>
<totfact> 0.20856577E+06</totfact>
</mgrwt>
</event>
<event>
 4    1  0.3704929E-001  0.2584792E+02  0.7818608E-02  0.1649113E+00
         -2   -1    0    0    0  501 -0.00000000000E+00  0.00000000000E+00  0.21590350633E+01  0.21590366289E+01  0.26000000000E-02 0. -1.
          2   -1    0    0  501    0  0.00000000000E+00 -0.00000000000E+00 -0.77362673786E+02  0.77362673830E+02  0.26000000000E-02 0.  1.
        -13    1    1    2    0    0 -0.11903429319E+02  0.17351135788E+01 -0.23068591651E+02  0.26016789616E+02  0.10570000000E+00 0.  1.
         13    1    1    2    0    0  0.11903429319E+02 -0.17351135788E+01 -0.52135047072E+02  0.53504920843E+02  0.10570000000E+00 0. -1.
<mgrwt>
<rscale>  0 0.25847924E+02</rscale>
<asrwt>0</asrwt>
<pdfrwt beam="2">  1        2 0.11901948E-01 0.25847924E+02</pdfrwt>
<pdfrwt beam="1">  1       -2 0.33215942E-03 0.25847924E+02</pdfrwt>
<totfact> 0.27948840E+06</totfact>
</mgrwt>
</event>
<event>
 4    1  0.3704929E-001  0.2187991E+02  0.7818608E-02  0.1710337E+00
          2   -1    0    0  501    0  0.00000000000E+00  0.00000000000E+00  0.38158737429E+02  0.38158737518E+02  0.26000000000E-02 0. -1.
         -2   -1    0    0    0  501 -0.00000000000E+00 -0.00000000000E+00 -0.31364390691E+01  0.31364401468E+01  0.26000000000E-02 0.  1.
        -13    1    1    2    0    0 -0.57716605126E+01  0.92752471416E+01  0.18593925750E+02  0.21565887923E+02  0.10570000000E+00 0.  1.
         13    1    1    2    0    0  0.57716605126E+01 -0.92752471416E+01  0.16428372610E+02  0.19729289742E+02  0.10570000000E+00 0. -1.
<mgrwt>
<rscale>  0 0.21879907E+02</rscale>
<asrwt>0</asrwt>
<pdfrwt beam="1">  1        2 0.58705751E-02 0.21879907E+02</pdfrwt>
<pdfrwt beam="2">  1       -2 0.48252917E-03 0.21879907E+02</pdfrwt>
<totfact> 0.36440849E+06</totfact>
</mgrwt>
</event>
<event>
 4    1  0.3704929E-001  0.4109273E+02  0.7818608E-02  0.1500321E+00
         -2   -1    0    0    0  501 -0.00000000000E+00  0.00000000000E+00  0.56302899404E+01  0.56302905407E+01  0.26000000000E-02 0.  1.
          2   -1    0    0  501    0  0.00000000000E+00 -0.00000000000E+00 -0.74978915240E+02  0.74978915285E+02  0.26000000000E-02 0. -1.
        -13    1    1    2    0    0  0.16956268710E+02 -0.96805892175E+01 -0.22127006442E+02  0.29510073581E+02  0.10570000000E+00 0. -1.
         13    1    1    2    0    0 -0.16956268710E+02  0.96805892175E+01 -0.47221618857E+02  0.51099132245E+02  0.10570000000E+00 0.  1.
<mgrwt>
<rscale>  0 0.41092727E+02</rscale>
<asrwt>0</asrwt>
<pdfrwt beam="2">  1        2 0.11535217E-01 0.41092727E+02</pdfrwt>
<pdfrwt beam="1">  1       -2 0.86619856E-03 0.41092727E+02</pdfrwt>
<totfact> 0.91382683E+05</totfact>
</mgrwt>
</event>
<event>
 4    1  0.3704929E-001  0.3093144E+02  0.7818608E-02  0.1588015E+00
         -2   -1    0    0    0  501 -0.00000000000E+00  0.00000000000E+00  0.22656459195E+01  0.22656474114E+01  0.26000000000E-02 0.  1.
          2   -1    0    0  501    0  0.00000000000E+00 -0.00000000000E+00 -0.10557187201E+03  0.10557187204E+03  0.26000000000E-02 0. -1.
        -13    1    1    2    0    0 -0.15206931331E+02 -0.24390463945E+01 -0.56555956394E+02  0.58615587381E+02  0.10570000000E+00 0. -1.
         13    1    1    2    0    0  0.15206931331E+02  0.24390463945E+01 -0.46750269699E+02  0.49221932075E+02  0.10570000000E+00 0.  1.
<mgrwt>
<rscale>  0 0.30931444E+02</rscale>
<asrwt>0</asrwt>
<pdfrwt beam="2">  1        2 0.16241823E-01 0.30931444E+02</pdfrwt>
<pdfrwt beam="1">  1       -2 0.34856111E-03 0.30931444E+02</pdfrwt>
<totfact> 0.19696422E+06</totfact>
</mgrwt>
</event>
<event>
 4    1  0.3704929E-001  0.1591364E+03  0.7818608E-02  0.1189675E+00
          2   -1    0    0  501    0  0.00000000000E+00  0.00000000000E+00  0.14350523585E+03  0.14350523588E+03  0.26000000000E-02 0. -1.
         -2   -1    0    0    0  501 -0.00000000000E+00 -0.00000000000E+00 -0.44117551120E+02  0.44117551197E+02  0.26000000000E-02 0.  1.
        -13    1    1    2    0    0 -0.61674858049E+02  0.49010270767E+02  0.62891004792E+02  0.10080220440E+03  0.10570000000E+00 0.  1.
         13    1    1    2    0    0  0.61674858049E+02 -0.49010270767E+02  0.36496679940E+02  0.86820582670E+02  0.10570000000E+00 0. -1.
<mgrwt>
<rscale>  0 0.15913641E+03</rscale>
<asrwt>0</asrwt>
<pdfrwt beam="1">  1        2 0.22077728E-01 0.15913641E+03</pdfrwt>
<pdfrwt beam="2">  1       -2 0.67873157E-02 0.15913641E+03</pdfrwt>
<totfact> 0.28424305E+04</totfact>
</mgrwt>
</event>
<event>
 4    1  0.3704929E-001  0.2207292E+02  0.7818608E-02  0.1706994E+00
          2   -1    0    0  501    0  0.00000000000E+00  0.00000000000E+00  0.47353530683E+01  0.47353537820E+01  0.26000000000E-02 0.  1.
         -2   -1    0    0    0  501 -0.00000000000E+00 -0.00000000000E+00 -0.25722143508E+02  0.25722143639E+02  0.26000000000E-02 0. -1.
        -13    1    1    2    0    0  0.68731614520E+01  0.84051639118E+01 -0.77665976524E+01  0.13349844206E+02  0.10570000000E+00 0.  1.
         13    1    1    2    0    0 -0.68731614520E+01 -0.84051639118E+01 -0.13220192787E+02  0.17107653216E+02  0.10570000000E+00 0. -1.
<mgrwt>
<rscale>  0 0.22072920E+02</rscale>
<asrwt>0</asrwt>
<pdfrwt beam="1">  1        2 0.72851594E-03 0.22072920E+02</pdfrwt>
<pdfrwt beam="2">  1       -2 0.39572528E-02 0.22072920E+02</pdfrwt>
<totfact> 0.29487383E+06</totfact>
</mgrwt>
</event>
<event>
 4    1  0.3704929E-001  0.2110611E+02  0.7818608E-02  0.1724186E+00
         -2   -1    0    0    0  501 -0.00000000000E+00  0.00000000000E+00  0.23272315377E+02  0.23272315522E+02  0.26000000000E-02 0.  1.
          2   -1    0    0  501    0  0.00000000000E+00 -0.00000000000E+00 -0.47853853191E+01  0.47853860254E+01  0.26000000000E-02 0. -1.
        -13    1    1    2    0    0  0.40225161860E+01 -0.96800778213E+01  0.10855941405E+02  0.15091294821E+02  0.10570000000E+00 0.  1.
         13    1    1    2    0    0 -0.40225161860E+01  0.96800778213E+01  0.76309886528E+01  0.12966406727E+02  0.10570000000E+00 0. -1.
<mgrwt>
<rscale>  0 0.21106114E+02</rscale>
<asrwt>0</asrwt>
<pdfrwt beam="2">  1        2 0.73621319E-03 0.21106114E+02</pdfrwt>
<pdfrwt beam="1">  1       -2 0.35803563E-02 0.21106114E+02</pdfrwt>
<totfact> 0.32847675E+06</totfact>
</mgrwt>
</event>
<event>
 4    1  0.3704929E-001  0.6419232E+02  0.7818608E-02  0.1381036E+00
          2   -1    0    0  501    0  0.00000000000E+00  0.00000000000E+00  0.20707478015E+02  0.20707478178E+02  0.26000000000E-02 0. -1.
         -2   -1    0    0    0  501 -0.00000000000E+00 -0.00000000000E+00 -0.49748381465E+02  0.49748381533E+02  0.26000000000E-02 0.  1.
        -13    1    1    2    0    0  0.24083084649E+02 -0.16347605297E+02 -0.29364643143E+02  0.41346494465E+02  0.10570000000E+00 0. -1.
         13    1    1    2    0    0 -0.24083084649E+02  0.16347605297E+02  0.32373969333E+00  0.29109365246E+02  0.10570000000E+00 0.  1.
<mgrwt>
<rscale>  0 0.64192321E+02</rscale>
<asrwt>0</asrwt>
<pdfrwt beam="1">  1        2 0.31857659E-02 0.64192321E+02</pdfrwt>
<pdfrwt beam="2">  1       -2 0.76535971E-02 0.64192321E+02</pdfrwt>
<totfact> 0.22362771E+05</totfact>
</mgrwt>
</event>
<event>
 4    1  0.3704929E-001  0.2984630E+02  0.7818608E-02  0.1599794E+00
         -2   -1    0    0    0  501 -0.00000000000E+00  0.00000000000E+00  0.92308064887E+02  0.92308064924E+02  0.26000000000E-02 0.  1.
          2   -1    0    0  501    0  0.00000000000E+00 -0.00000000000E+00 -0.24125769458E+01  0.24125783468E+01  0.26000000000E-02 0. -1.
        -13    1    1    2    0    0 -0.14079216710E+02 -0.99911416884E+00  0.29574003220E+02  0.32769733158E+02  0.10570000000E+00 0. -1.
         13    1    1    2    0    0  0.14079216710E+02  0.99911416884E+00  0.60321484721E+02  0.61950910112E+02  0.10570000000E+00 0.  1.
<mgrwt>
<rscale>  0 0.29846298E+02</rscale>
<asrwt>0</asrwt>
<pdfrwt beam="2">  1        2 0.37116570E-03 0.29846298E+02</pdfrwt>
<pdfrwt beam="1">  1       -2 0.14201245E-01 0.29846298E+02</pdfrwt>
<totfact> 0.12300895E+06</totfact>
</mgrwt>
</event>
<event>
 4    1  0.3704929E-001  0.3463111E+02  0.7818608E-02  0.1551901E+00
          2   -1    0    0  501    0  0.00000000000E+00  0.00000000000E+00  0.10880252470E+03  0.10880252473E+03  0.26000000000E-02 0. -1.
         -2   -1    0    0    0  501 -0.00000000000E+00 -0.00000000000E+00 -0.27557123035E+01  0.27557135300E+01  0.26000000000E-02 0.  1.
        -13    1    1    2    0    0 -0.16793338301E+02 -0.33616565992E+01  0.61236474972E+02  0.63586429259E+02  0.10570000000E+00 0. -1.
         13    1    1    2    0    0  0.16793338301E+02  0.33616565992E+01  0.44810337423E+02  0.47971809001E+02  0.10570000000E+00 0.  1.
<mgrwt>
<rscale>  0 0.34631115E+02</rscale>
<asrwt>0</asrwt>
<pdfrwt beam="1">  1        2 0.16738845E-01 0.34631115E+02</pdfrwt>
<pdfrwt beam="2">  1       -2 0.42395596E-03 0.34631115E+02</pdfrwt>
<totfact> 0.15155061E+06</totfact>
</mgrwt>
</event>
<event>
 4    1  0.3704929E-001  0.4724454E+02  0.7818608E-02  0.1460797E+00
         -2   -1    0    0    0  501 -0.00000000000E+00  0.00000000000E+00  0.60306986338E+01  0.60306991943E+01  0.26000000000E-02 0.  1.
          2   -1    0    0  501    0  0.00000000000E+00 -0.00000000000E+00 -0.92528528709E+02  0.92528528745E+02  0.26000000000E-02 0. -1.
        -13    1    1    2    0    0  0.22793842657E+02  0.40981570275E+01 -0.52954869022E+02  0.57797780924E+02  0.10570000000E+00 0.  1.
         13    1    1    2    0    0 -0.22793842657E+02 -0.40981570275E+01 -0.33542961053E+02  0.40761447015E+02  0.10570000000E+00 0. -1.
<mgrwt>
<rscale>  0 0.47244543E+02</rscale>
<asrwt>0</asrwt>
<pdfrwt beam="2">  1        2 0.14235157E-01 0.47244543E+02</pdfrwt>
<pdfrwt beam="1">  1       -2 0.92779990E-03 0.47244543E+02</pdfrwt>
<totfact> 0.67733320E+05</totfact>
</mgrwt>
</event>
<event>
 4    1  0.3704929E-001  0.4332954E+02  0.7818608E-02  0.1485048E+00
          2   -1    0    0  501    0  0.00000000000E+00  0.00000000000E+00  0.14553226973E+02  0.14553227205E+02  0.26000000000E-02 0.  1.
         -2   -1    0    0    0  501 -0.00000000000E+00 -0.00000000000E+00 -0.32251422727E+02  0.32251422832E+02  0.26000000000E-02 0. -1.
        -13    1    1    2    0    0  0.16736682544E+02  0.27616369152E+01 -0.23406112437E+02  0.28906754452E+02  0.10570000000E+00 0. -1.
         13    1    1    2    0    0 -0.16736682544E+02 -0.27616369152E+01  0.57079166825E+01  0.17897895585E+02  0.10570000000E+00 0.  1.
<mgrwt>
<rscale>  0 0.43329541E+02</rscale>
<asrwt>0</asrwt>
<pdfrwt beam="1">  1        2 0.22389580E-02 0.43329541E+02</pdfrwt>
<pdfrwt beam="2">  1       -2 0.49617573E-02 0.43329541E+02</pdfrwt>
<totfact> 0.61381051E+05</totfact>
</mgrwt>
</event>
<event>
 4    1  0.3704929E-001  0.2140662E+02  0.7818608E-02  0.1718721E+00
          2   -1    0    0  501    0  0.00000000000E+00  0.00000000000E+00  0.21228343336E+01  0.21228359258E+01  0.26000000000E-02 0.  1.
         -2   -1    0    0    0  501 -0.00000000000E+00 -0.00000000000E+00 -0.53965981769E+02  0.53965981832E+02  0.26000000000E-02 0. -1.
        -13    1    1    2    0    0 -0.36992643504E+01 -0.98880202657E+01 -0.21314101818E+02  0.23785701804E+02  0.10570000000E+00 0.  1.
         13    1    1    2    0    0  0.36992643504E+01  0.98880202657E+01 -0.30529045617E+02  0.32303115953E+02  0.10570000000E+00 0. -1.
<mgrwt>
<rscale>  0 0.21406624E+02</rscale>
<asrwt>0</asrwt>
<pdfrwt beam="1">  1        2 0.32659007E-03 0.21406624E+02</pdfrwt>
<pdfrwt beam="2">  1       -2 0.83024578E-02 0.21406624E+02</pdfrwt>
<totfact> 0.28865499E+06</totfact>
</mgrwt>
</event>
<event>
 4    1  0.3704929E-001  0.5031501E+02  0.7818608E-02  0.1443650E+00
          2   -1    0    0  501    0  0.00000000000E+00  0.00000000000E+00  0.25425278384E+02  0.25425278517E+02  0.26000000000E-02 0. -1.
         -2   -1    0    0    0  501 -0.00000000000E+00 -0.00000000000E+00 -0.24892555769E+02  0.24892555905E+02  0.26000000000E-02 0.  1.
        -13    1    1    2    0    0 -0.10752098907E+02  0.22069049354E+02 -0.52328944455E+01  0.25100695749E+02  0.10570000000E+00 0. -1.
         13    1    1    2    0    0  0.10752098907E+02 -0.22069049354E+02  0.57656170599E+01  0.25217138673E+02  0.10570000000E+00 0.  1.
<mgrwt>
<rscale>  0 0.50315014E+02</rscale>
<asrwt>0</asrwt>
<pdfrwt beam="1">  1        2 0.39115813E-02 0.50315014E+02</pdfrwt>
<pdfrwt beam="2">  1       -2 0.38296240E-02 0.50315014E+02</pdfrwt>
<totfact> 0.44972753E+05</totfact>
</mgrwt>
</event>
<event>
 4    1  0.3704929E-001  0.3304108E+02  0.7818608E-02  0.1566718E+00
          2   -1    0    0  501    0  0.00000000000E+00  0.00000000000E+00  0.30593625410E+02  0.30593625520E+02  0.26000000000E-02 0. -1.
         -2   -1    0    0    0  501 -0.00000000000E+00 -0.00000000000E+00 -0.89210831862E+01  0.89210835651E+01  0.26000000000E-02 0.  1.
        -13    1    1    2    0    0 -0.10877667423E+02 -0.49612079981E+01  0.24470876911E+02  0.27235495638E+02  0.10570000000E+00 0. -1.
         13    1    1    2    0    0  0.10877667423E+02  0.49612079981E+01 -0.27983346872E+01  0.12279213447E+02  0.10570000000E+00 0.  1.
<mgrwt>
<rscale>  0 0.33041083E+02</rscale>
<asrwt>0</asrwt>
<pdfrwt beam="1">  1        2 0.47067116E-02 0.33041083E+02</pdfrwt>
<pdfrwt beam="2">  1       -2 0.13724744E-02 0.33041083E+02</pdfrwt>
<totfact> 0.13411514E+06</totfact>
</mgrwt>
</event>
<event>
 4    1  0.3704929E-001  0.2832221E+02  0.7818608E-02  0.1617411E+00
         -2   -1    0    0    0  501 -0.00000000000E+00  0.00000000000E+00  0.23345479080E+01  0.23345493558E+01  0.26000000000E-02 0. -1.
          2   -1    0    0  501    0  0.00000000000E+00 -0.00000000000E+00 -0.85899643417E+02  0.85899643457E+02  0.26000000000E-02 0.  1.
        -13    1    1    2    0    0  0.10345205037E+02 -0.74813529057E+01 -0.22696782768E+02  0.26041294689E+02  0.10570000000E+00 0. -1.
         13    1    1    2    0    0 -0.10345205037E+02  0.74813529057E+01 -0.60868312741E+02  0.62192898124E+02  0.10570000000E+00 0.  1.
<mgrwt>
<rscale>  0 0.28322210E+02</rscale>
<asrwt>0</asrwt>
<pdfrwt beam="2">  1        2 0.13215327E-01 0.28322210E+02</pdfrwt>
<pdfrwt beam="1">  1       -2 0.35916140E-03 0.28322210E+02</pdfrwt>
<totfact> 0.23098646E+06</totfact>
</mgrwt>
</event>
<event>
 4    1  0.3704929E-001  0.2766966E+02  0.7818608E-02  0.1625375E+00
          2   -1    0    0  501    0  0.00000000000E+00  0.00000000000E+00  0.43152189605E+02  0.43152189684E+02  0.26000000000E-02 0. -1.
         -2   -1    0    0    0  501 -0.00000000000E+00 -0.00000000000E+00 -0.44355225112E+01  0.44355232732E+01  0.26000000000E-02 0.  1.
        -13    1    1    2    0    0 -0.97607242487E+01  0.87486865151E+01  0.11748091309E+02  0.17602274725E+02  0.10570000000E+00 0.  1.
         13    1    1    2    0    0  0.97607242487E+01 -0.87486865151E+01  0.26968575785E+02  0.29985438232E+02  0.10570000000E+00 0. -1.
<mgrwt>
<rscale>  0 0.27669661E+02</rscale>
<asrwt>0</asrwt>
<pdfrwt beam="1">  1        2 0.66387987E-02 0.27669661E+02</pdfrwt>
<pdfrwt beam="2">  1       -2 0.68238812E-03 0.27669661E+02</pdfrwt>
<totfact> 0.21523896E+06</totfact>
</mgrwt>
</event>
<event>
 4    1  0.3704929E-001  0.4762401E+02  0.7818608E-02  0.1458595E+00
          2   -1    0    0  501    0  0.00000000000E+00  0.00000000000E+00  0.38896780914E+02  0.38896781001E+02  0.26000000000E-02 0.  1.
         -2   -1    0    0    0  501 -0.00000000000E+00 -0.00000000000E+00 -0.14577338943E+02  0.14577339175E+02  0.26000000000E-02 0. -1.
        -13    1    1    2    0    0 -0.15272797217E+02 -0.60816030547E+01 -0.71830000015E+01  0.17940203234E+02  0.10570000000E+00 0. -1.
         13    1    1    2    0    0  0.15272797217E+02  0.60816030547E+01  0.31502441972E+02  0.35533916942E+02  0.10570000000E+00 0.  1.
<mgrwt>
<rscale>  0 0.47624009E+02</rscale>
<asrwt>0</asrwt>
<pdfrwt beam="1">  1        2 0.59841201E-02 0.47624009E+02</pdfrwt>
<pdfrwt beam="2">  1       -2 0.22426676E-02 0.47624009E+02</pdfrwt>
<totfact> 0.55585328E+05</totfact>
</mgrwt>
</event>
<event>
 4    1  0.3704929E-001  0.4300815E+02  0.7818608E-02  0.1487174E+00
         -2   -1    0    0    0  501 -0.00000000000E+00  0.00000000000E+00  0.96371600389E+02  0.96371600424E+02  0.26000000000E-02 0. -1.
          2   -1    0    0  501    0  0.00000000000E+00 -0.00000000000E+00 -0.47983546267E+01  0.47983553311E+01  0.26000000000E-02 0.  1.
        -13    1    1    2    0    0  0.15503492955E+02 -0.41714297780E+01  0.79438699643E+02  0.81044909116E+02  0.10570000000E+00 0. -1.
         13    1    1    2    0    0 -0.15503492955E+02  0.41714297780E+01  0.12134546120E+02  0.20125046639E+02  0.10570000000E+00 0.  1.
<mgrwt>
<rscale>  0 0.43008146E+02</rscale>
<asrwt>0</asrwt>
<pdfrwt beam="2">  1        2 0.73820846E-03 0.43008146E+02</pdfrwt>
<pdfrwt beam="1">  1       -2 0.14826400E-01 0.43008146E+02</pdfrwt>
<totfact> 0.51329482E+05</totfact>
</mgrwt>
</event>
<event>
 4    1  0.3704929E-001  0.5207545E+02  0.7818608E-02  0.1434458E+00
         -2   -1    0    0    0  501 -0.00000000000E+00  0.00000000000E+00  0.50113322463E+01  0.50113329208E+01  0.26000000000E-02 0.  1.
          2   -1    0    0  501    0  0.00000000000E+00 -0.00000000000E+00 -0.13528601532E+03  0.13528601534E+03  0.26000000000E-02 0. -1.
        -13    1    1    2    0    0 -0.21492896575E+02  0.93021697071E+01 -0.34481527448E+02  0.41682872647E+02  0.10570000000E+00 0. -1.
         13    1    1    2    0    0  0.21492896575E+02 -0.93021697071E+01 -0.95793155625E+02  0.98614475618E+02  0.10570000000E+00 0.  1.
<mgrwt>
<rscale>  0 0.52075454E+02</rscale>
<asrwt>0</asrwt>
<pdfrwt beam="2">  1        2 0.20813230E-01 0.52075454E+02</pdfrwt>
<pdfrwt beam="1">  1       -2 0.77097435E-03 0.52075454E+02</pdfrwt>
<totfact> 0.58756545E+05</totfact>
</mgrwt>
</event>
<event>
 4    1  0.3704929E-001  0.2139183E+02  0.7818608E-02  0.1718987E+00
         -2   -1    0    0    0  501 -0.00000000000E+00  0.00000000000E+00  0.68847844831E+01  0.68847849740E+01  0.26000000000E-02 0.  1.
          2   -1    0    0  501    0  0.00000000000E+00 -0.00000000000E+00 -0.16616724681E+02  0.16616724885E+02  0.26000000000E-02 0. -1.
        -13    1    1    2    0    0  0.69698768626E+01  0.80849807965E+01 -0.55990935601E+01  0.12054340262E+02  0.10570000000E+00 0. -1.
         13    1    1    2    0    0 -0.69698768626E+01 -0.80849807965E+01 -0.41328466381E+01  0.11447169597E+02  0.10570000000E+00 0.  1.
<mgrwt>
<rscale>  0 0.21391828E+02</rscale>
<asrwt>0</asrwt>
<pdfrwt beam="2">  1        2 0.25564192E-02 0.21391828E+02</pdfrwt>
<pdfrwt beam="1">  1       -2 0.10591977E-02 0.21391828E+02</pdfrwt>
<totfact> 0.35195793E+06</totfact>
</mgrwt>
</event>
<event>
 4    1  0.3704929E-001  0.2034888E+02  0.7818608E-02  0.1738478E+00
         -2   -1    0    0    0  501 -0.00000000000E+00  0.00000000000E+00  0.50620950084E+02  0.50620950151E+02  0.26000000000E-02 0. -1.
          2   -1    0    0  501    0  0.00000000000E+00 -0.00000000000E+00 -0.20449873408E+01  0.20449889937E+01  0.26000000000E-02 0.  1.
        -13    1    1    2    0    0  0.98255879122E+01 -0.22385692367E+01  0.27906492222E+02  0.29670471022E+02  0.10570000000E+00 0.  1.
         13    1    1    2    0    0 -0.98255879122E+01  0.22385692367E+01  0.20669470521E+02  0.22995468122E+02  0.10570000000E+00 0. -1.
<mgrwt>
<rscale>  0 0.20348882E+02</rscale>
<asrwt>0</asrwt>
<pdfrwt beam="2">  1        2 0.31461357E-03 0.20348882E+02</pdfrwt>
<pdfrwt beam="1">  1       -2 0.77878387E-02 0.20348882E+02</pdfrwt>
<totfact> 0.32581438E+06</totfact>
</mgrwt>
</event>
<event>
 4    1  0.3704929E-001  0.2667100E+02  0.7818608E-02  0.1638099E+00
          2   -1    0    0  501    0  0.00000000000E+00  0.00000000000E+00  0.59286018618E+02  0.59286018675E+02  0.26000000000E-02 0. -1.
         -2   -1    0    0    0  501 -0.00000000000E+00 -0.00000000000E+00 -0.29996198573E+01  0.29996209841E+01  0.26000000000E-02 0.  1.
        -13    1    1    2    0    0 -0.10261944272E+02  0.10906184659E+01  0.47866379285E+02  0.48966298484E+02  0.10570000000E+00 0. -1.
         13    1    1    2    0    0  0.10261944272E+02 -0.10906184659E+01  0.84200194761E+01  0.13319341175E+02  0.10570000000E+00 0.  1.
<mgrwt>
<rscale>  0 0.26671000E+02</rscale>
<asrwt>0</asrwt>
<pdfrwt beam="1">  1        2 0.91209255E-02 0.26671000E+02</pdfrwt>
<pdfrwt beam="2">  1       -2 0.46148009E-03 0.26671000E+02</pdfrwt>
<totfact> 0.24698379E+06</totfact>
</mgrwt>
</event>
<event>
 4    1  0.3704929E-001  0.3290426E+02  0.7818608E-02  0.1568040E+00
          2   -1    0    0  501    0  0.00000000000E+00  0.00000000000E+00  0.39810312534E+02  0.39810312619E+02  0.26000000000E-02 0. -1.
         -2   -1    0    0    0  501 -0.00000000000E+00 -0.00000000000E+00 -0.67990575926E+01  0.67990580897E+01  0.26000000000E-02 0.  1.
        -13    1    1    2    0    0 -0.84591525749E+01 -0.96289059672E+01  0.31116230093E+02  0.33652697367E+02  0.10570000000E+00 0. -1.
         13    1    1    2    0    0  0.84591525749E+01  0.96289059672E+01  0.18950248487E+01  0.12956673341E+02  0.10570000000E+00 0.  1.
<mgrwt>
<rscale>  0 0.32904262E+02</rscale>
<asrwt>0</asrwt>
<pdfrwt beam="1">  1        2 0.61246635E-02 0.32904262E+02</pdfrwt>
<pdfrwt beam="2">  1       -2 0.10460089E-02 0.32904262E+02</pdfrwt>
<totfact> 0.14052315E+06</totfact>
</mgrwt>
</event>
<event>
 4    1  0.3704929E-001  0.8336207E+02  0.7818608E-02  0.1319772E+00
         -2   -1    0    0    0  501 -0.00000000000E+00  0.00000000000E+00  0.67538920737E+01  0.67538925742E+01  0.26000000000E-02 0. -1.
          2   -1    0    0  501    0  0.00000000000E+00 -0.00000000000E+00 -0.25723070383E+03  0.25723070384E+03  0.26000000000E-02 0.  1.
        -13    1    1    2    0    0  0.40854261324E+02  0.74455808673E+01 -0.11391323441E+03  0.12124662259E+03  0.10570000000E+00 0.  1.
         13    1    1    2    0    0 -0.40854261324E+02 -0.74455808673E+01 -0.13656357734E+03  0.14273797383E+03  0.10570000000E+00 0. -1.
<mgrwt>
<rscale>  0 0.83362065E+02</rscale>
<asrwt>0</asrwt>
<pdfrwt beam="2">  1        2 0.39573947E-01 0.83362065E+02</pdfrwt>
<pdfrwt beam="1">  1       -2 0.10390606E-02 0.83362065E+02</pdfrwt>
<totfact> 0.21533585E+05</totfact>
</mgrwt>
</event>
<event>
 4    1  0.3704929E-001  0.2419643E+02  0.7818608E-02  0.1672820E+00
         -2   -1    0    0    0  501 -0.00000000000E+00  0.00000000000E+00  0.15682568068E+02  0.15682568283E+02  0.26000000000E-02 0.  1.
          2   -1    0    0  501    0  0.00000000000E+00 -0.00000000000E+00 -0.93330855295E+01  0.93330858916E+01  0.26000000000E-02 0. -1.
        -13    1    1    2    0    0 -0.11954068555E+02  0.10718224886E+01  0.16044260906E+01  0.12109249112E+02  0.10570000000E+00 0.  1.
         13    1    1    2    0    0  0.11954068555E+02 -0.10718224886E+01  0.47450564476E+01  0.12906405063E+02  0.10570000000E+00 0. -1.
<mgrwt>
<rscale>  0 0.24196426E+02</rscale>
<asrwt>0</asrwt>
<pdfrwt beam="2">  1        2 0.14358594E-02 0.24196426E+02</pdfrwt>
<pdfrwt beam="1">  1       -2 0.24127028E-02 0.24196426E+02</pdfrwt>
<totfact> 0.25164508E+06</totfact>
</mgrwt>
</event>
<event>
 4    1  0.3704929E-001  0.7450013E+02  0.7818608E-02  0.1345426E+00
         -2   -1    0    0    0  501 -0.00000000000E+00  0.00000000000E+00  0.83368830672E+01  0.83368834726E+01  0.26000000000E-02 0. -1.
          2   -1    0    0  501    0  0.00000000000E+00 -0.00000000000E+00 -0.16643720202E+03  0.16643720204E+03  0.26000000000E-02 0.  1.
        -13    1    1    2    0    0  0.34647844748E+02 -0.34102037054E+01 -0.11012445347E+03  0.11549679242E+03  0.10570000000E+00 0.  1.
         13    1    1    2    0    0 -0.34647844748E+02  0.34102037054E+01 -0.47975865485E+02  0.59277293094E+02  0.10570000000E+00 0. -1.
<mgrwt>
<rscale>  0 0.74500135E+02</rscale>
<asrwt>0</asrwt>
<pdfrwt beam="2">  1        2 0.25605721E-01 0.74500135E+02</pdfrwt>
<pdfrwt beam="1">  1       -2 0.12825976E-02 0.74500135E+02</pdfrwt>
<totfact> 0.24854483E+05</totfact>
</mgrwt>
</event>
<event>
 4    1  0.3704929E-001  0.3679698E+02  0.7818608E-02  0.1533198E+00
         -2   -1    0    0    0  501 -0.00000000000E+00  0.00000000000E+00  0.92364714849E+01  0.92364718509E+01  0.26000000000E-02 0.  1.
          2   -1    0    0  501    0  0.00000000000E+00 -0.00000000000E+00 -0.36648680594E+02  0.36648680686E+02  0.26000000000E-02 0. -1.
        -13    1    1    2    0    0 -0.11111406042E+02 -0.46570210374E+01  0.36328625025E+01  0.12584119024E+02  0.10570000000E+00 0.  1.
         13    1    1    2    0    0  0.11111406042E+02  0.46570210374E+01 -0.31045071612E+02  0.33301033513E+02  0.10570000000E+00 0. -1.
<mgrwt>
<rscale>  0 0.36796984E+02</rscale>
<asrwt>0</asrwt>
<pdfrwt beam="2">  1        2 0.56382585E-02 0.36796984E+02</pdfrwt>
<pdfrwt beam="1">  1       -2 0.14209957E-02 0.36796984E+02</pdfrwt>
<totfact> 0.10556091E+06</totfact>
</mgrwt>
</event>
<event>
 4    1  0.3704929E-001  0.2261607E+02  0.7818608E-02  0.1697810E+00
          2   -1    0    0  501    0  0.00000000000E+00  0.00000000000E+00  0.93219201228E+02  0.93219201264E+02  0.26000000000E-02 0. -1.
         -2   -1    0    0    0  501 -0.00000000000E+00 -0.00000000000E+00 -0.13717292969E+01  0.13717317609E+01  0.26000000000E-02 0.  1.
        -13    1    1    2    0    0 -0.10053594227E+02  0.48685528617E+01  0.53267378376E+02  0.54426118136E+02  0.10570000000E+00 0.  1.
         13    1    1    2    0    0  0.10053594227E+02 -0.48685528617E+01  0.38580093555E+02  0.40164814889E+02  0.10570000000E+00 0. -1.
<mgrwt>
<rscale>  0 0.22616068E+02</rscale>
<asrwt>0</asrwt>
<pdfrwt beam="1">  1        2 0.14341416E-01 0.22616068E+02</pdfrwt>
<pdfrwt beam="2">  1       -2 0.21103546E-03 0.22616068E+02</pdfrwt>
<totfact> 0.39470740E+06</totfact>
</mgrwt>
</event>
<event>
 4    1  0.3704929E-001  0.4749949E+02  0.7818608E-02  0.1459315E+00
         -2   -1    0    0    0  501 -0.00000000000E+00  0.00000000000E+00  0.56276371508E+02  0.56276371568E+02  0.26000000000E-02 0.  1.
          2   -1    0    0  501    0  0.00000000000E+00 -0.00000000000E+00 -0.10022865095E+02  0.10022865432E+02  0.26000000000E-02 0. -1.
        -13    1    1    2    0    0  0.95507289746E+01 -0.52169674923E+01  0.52590985486E+02  0.53705270697E+02  0.10570000000E+00 0.  1.
         13    1    1    2    0    0 -0.95507289746E+01  0.52169674923E+01 -0.63374790725E+01  0.12593966303E+02  0.10570000000E+00 0. -1.
<mgrwt>
<rscale>  0 0.47499494E+02</rscale>
<asrwt>0</asrwt>
<pdfrwt beam="2">  1        2 0.15419793E-02 0.47499494E+02</pdfrwt>
<pdfrwt beam="1">  1       -2 0.86579032E-02 0.47499494E+02</pdfrwt>
<totfact> 0.45157481E+05</totfact>
</mgrwt>
</event>
<event>
 4    1  0.3704929E-001  0.2969472E+02  0.7818608E-02  0.1601488E+00
         -2   -1    0    0    0  501 -0.00000000000E+00  0.00000000000E+00  0.51097494167E+01  0.51097500781E+01  0.26000000000E-02 0.  1.
          2   -1    0    0  501    0  0.00000000000E+00 -0.00000000000E+00 -0.43141851802E+02  0.43141851880E+02  0.26000000000E-02 0. -1.
        -13    1    1    2    0    0  0.33788436840E+01  0.12047152426E+02 -0.32003482056E+02  0.34362545051E+02  0.10570000000E+00 0. -1.
         13    1    1    2    0    0 -0.33788436840E+01 -0.12047152426E+02 -0.60286203298E+01  0.13889056908E+02  0.10570000000E+00 0.  1.
<mgrwt>
<rscale>  0 0.29694718E+02</rscale>
<asrwt>0</asrwt>
<pdfrwt beam="2">  1        2 0.66372078E-02 0.29694718E+02</pdfrwt>
<pdfrwt beam="1">  1       -2 0.78611538E-03 0.29694718E+02</pdfrwt>
<totfact> 0.18205794E+06</totfact>
</mgrwt>
</event>
<event>
 4    1  0.3704929E-001  0.3743879E+02  0.7818608E-02  0.1527952E+00
         -2   -1    0    0    0  501 -0.00000000000E+00  0.00000000000E+00  0.14159416711E+02  0.14159416950E+02  0.26000000000E-02 0. -1.
          2   -1    0    0  501    0  0.00000000000E+00 -0.00000000000E+00 -0.24747889242E+02  0.24747889378E+02  0.26000000000E-02 0.  1.
        -13    1    1    2    0    0 -0.14939594594E+01  0.15022094459E+02 -0.16796779773E+02  0.22584025772E+02  0.10570000000E+00 0.  1.
         13    1    1    2    0    0  0.14939594594E+01 -0.15022094459E+02  0.62083072428E+01  0.16323280557E+02  0.10570000000E+00 0. -1.
<mgrwt>
<rscale>  0 0.37438787E+02</rscale>
<asrwt>0</asrwt>
<pdfrwt beam="2">  1        2 0.38073676E-02 0.37438787E+02</pdfrwt>
<pdfrwt beam="1">  1       -2 0.21783718E-02 0.37438787E+02</pdfrwt>
<totfact> 0.95801235E+05</totfact>
</mgrwt>
</event>
<event>
 4    1  0.3704929E-001  0.2501090E+02  0.7818608E-02  0.1660845E+00
          2   -1    0    0  501    0  0.00000000000E+00  0.00000000000E+00  0.45997244283E+02  0.45997244356E+02  0.26000000000E-02 0. -1.
         -2   -1    0    0    0  501 -0.00000000000E+00 -0.00000000000E+00 -0.33999060085E+01  0.33999070027E+01  0.26000000000E-02 0.  1.
        -13    1    1    2    0    0 -0.63530706274E+01  0.80246848708E+01  0.71089609421E+01  0.12462165616E+02  0.10570000000E+00 0. -1.
         13    1    1    2    0    0  0.63530706274E+01 -0.80246848708E+01  0.35488377332E+02  0.36934985743E+02  0.10570000000E+00 0.  1.
<mgrwt>
<rscale>  0 0.25010904E+02</rscale>
<asrwt>0</asrwt>
<pdfrwt beam="1">  1        2 0.70764988E-02 0.25010904E+02</pdfrwt>
<pdfrwt beam="2">  1       -2 0.52306258E-03 0.25010904E+02</pdfrwt>
<totfact> 0.27519468E+06</totfact>
</mgrwt>
</event>
<event>
 4    1  0.3704929E-001  0.2250784E+02  0.7818608E-02  0.1699614E+00
          2   -1    0    0  501    0  0.00000000000E+00  0.00000000000E+00  0.22384170514E+02  0.22384170665E+02  0.26000000000E-02 0. -1.
         -2   -1    0    0    0  501 -0.00000000000E+00 -0.00000000000E+00 -0.56580467177E+01  0.56580473151E+01  0.26000000000E-02 0.  1.
        -13    1    1    2    0    0 -0.63500954556E+01 -0.85500952169E+01  0.38345282091E+01  0.11320009699E+02  0.10570000000E+00 0. -1.
         13    1    1    2    0    0  0.63500954556E+01  0.85500952169E+01  0.12891595587E+02  0.16722208280E+02  0.10570000000E+00 0.  1.
<mgrwt>
<rscale>  0 0.22507838E+02</rscale>
<asrwt>0</asrwt>
<pdfrwt beam="1">  1        2 0.34437186E-02 0.22507838E+02</pdfrwt>
<pdfrwt beam="2">  1       -2 0.87046877E-03 0.22507838E+02</pdfrwt>
<totfact> 0.32174461E+06</totfact>
</mgrwt>
</event>
<event>
 4    1  0.3704929E-001  0.2769275E+02  0.7818608E-02  0.1625088E+00
         -2   -1    0    0    0  501 -0.00000000000E+00  0.00000000000E+00  0.13537433315E+02  0.13537433564E+02  0.26000000000E-02 0. -1.
          2   -1    0    0  501    0  0.00000000000E+00 -0.00000000000E+00 -0.14162364299E+02  0.14162364537E+02  0.26000000000E-02 0.  1.
        -13    1    1    2    0    0  0.10899803434E+02 -0.42809660960E+01 -0.77020734038E+01  0.14016614885E+02  0.10570000000E+00 0.  1.
         13    1    1    2    0    0 -0.10899803434E+02  0.42809660960E+01  0.70771424200E+01  0.13683183217E+02  0.10570000000E+00 0. -1.
<mgrwt>
<rscale>  0 0.27692748E+02</rscale>
<asrwt>0</asrwt>
<pdfrwt beam="2">  1        2 0.21788253E-02 0.27692748E+02</pdfrwt>
<pdfrwt beam="1">  1       -2 0.20826821E-02 0.27692748E+02</pdfrwt>
<totfact> 0.18907062E+06</totfact>
</mgrwt>
</event>
<event>
 4    1  0.3704929E-001  0.2303908E+02  0.7818608E-02  0.1690877E+00
          2   -1    0    0  501    0  0.00000000000E+00  0.00000000000E+00  0.20024305968E+02  0.20024306137E+02  0.26000000000E-02 0.  1.
         -2   -1    0    0    0  501 -0.00000000000E+00 -0.00000000000E+00 -0.66269338860E+01  0.66269343961E+01  0.26000000000E-02 0. -1.
        -13    1    1    2    0    0 -0.10491976850E+02 -0.20842820645E+01  0.17551718217E+01  0.10840553978E+02  0.10570000000E+00 0. -1.
         13    1    1    2    0    0  0.10491976850E+02  0.20842820645E+01  0.11642200261E+02  0.15810686555E+02  0.10570000000E+00 0.  1.
<mgrwt>
<rscale>  0 0.23039076E+02</rscale>
<asrwt>0</asrwt>
<pdfrwt beam="1">  1        2 0.30806624E-02 0.23039076E+02</pdfrwt>
<pdfrwt beam="2">  1       -2 0.10195284E-02 0.23039076E+02</pdfrwt>
<totfact> 0.30165424E+06</totfact>
</mgrwt>
</event>
<event>
 4    1  0.3704929E-001  0.2040425E+02  0.7818608E-02  0.1737407E+00
         -2   -1    0    0    0  501 -0.00000000000E+00  0.00000000000E+00  0.32667279220E+01  0.32667289567E+01  0.26000000000E-02 0. -1.
          2   -1    0    0  501    0  0.00000000000E+00 -0.00000000000E+00 -0.31861632274E+02  0.31861632380E+02  0.26000000000E-02 0.  1.
        -13    1    1    2    0    0 -0.75852055379E+01  0.68207452997E+01 -0.14092139727E+02  0.17397053891E+02  0.10570000000E+00 0. -1.
         13    1    1    2    0    0  0.75852055379E+01 -0.68207452997E+01 -0.14502764625E+02  0.17731307446E+02  0.10570000000E+00 0.  1.
<mgrwt>
<rscale>  0 0.20404245E+02</rscale>
<asrwt>0</asrwt>
<pdfrwt beam="2">  1        2 0.49017894E-02 0.20404245E+02</pdfrwt>
<pdfrwt beam="1">  1       -2 0.50257364E-03 0.20404245E+02</pdfrwt>
<totfact> 0.41747576E+06</totfact>
</mgrwt>
</event>
<event>
 4    1  0.3704929E-001  0.3810621E+02  0.7818608E-02  0.1522629E+00
         -2   -1    0    0    0  501 -0.00000000000E+00  0.00000000000E+00  0.15392908712E+02  0.15392908931E+02  0.26000000000E-02 0.  1.
          2   -1    0    0  501    0  0.00000000000E+00 -0.00000000000E+00 -0.23583637264E+02  0.23583637407E+02  0.26000000000E-02 0. -1.
        -13    1    1    2    0    0 -0.11844401089E+02  0.11011282079E+02  0.62080111784E+01  0.17323069747E+02  0.10570000000E+00 0.  1.
         13    1    1    2    0    0  0.11844401089E+02 -0.11011282079E+02 -0.14398739730E+02  0.21653476591E+02  0.10570000000E+00 0. -1.
<mgrwt>
<rscale>  0 0.38106209E+02</rscale>
<asrwt>0</asrwt>
<pdfrwt beam="2">  1        2 0.36282519E-02 0.38106209E+02</pdfrwt>
<pdfrwt beam="1">  1       -2 0.23681398E-02 0.38106209E+02</pdfrwt>
<totfact> 0.91070605E+05</totfact>
</mgrwt>
</event>
<event>
 4    1  0.3704929E-001  0.2815000E+02  0.7818608E-02  0.1619487E+00
          2   -1    0    0  501    0  0.00000000000E+00  0.00000000000E+00  0.20657437679E+01  0.20657454041E+01  0.26000000000E-02 0. -1.
         -2   -1    0    0    0  501 -0.00000000000E+00 -0.00000000000E+00 -0.95900316036E+02  0.95900316072E+02  0.26000000000E-02 0.  1.
        -13    1    1    2    0    0 -0.10359565008E+02  0.93809099701E+01 -0.52711837592E+02  0.54533210559E+02  0.10570000000E+00 0.  1.
         13    1    1    2    0    0  0.10359565008E+02 -0.93809099701E+01 -0.41122734676E+02  0.43432850917E+02  0.10570000000E+00 0. -1.
<mgrwt>
<rscale>  0 0.28149996E+02</rscale>
<asrwt>0</asrwt>
<pdfrwt beam="1">  1        2 0.31780694E-03 0.28149996E+02</pdfrwt>
<pdfrwt beam="2">  1       -2 0.14753891E-01 0.28149996E+02</pdfrwt>
<totfact> 0.13954635E+06</totfact>
</mgrwt>
</event>
<event>
 4    1  0.3704929E-001  0.2368489E+02  0.7818608E-02  0.1680643E+00
         -2   -1    0    0    0  501 -0.00000000000E+00  0.00000000000E+00  0.36787297816E+01  0.36787307004E+01  0.26000000000E-02 0.  1.
          2   -1    0    0  501    0  0.00000000000E+00 -0.00000000000E+00 -0.38122796067E+02  0.38122796156E+02  0.26000000000E-02 0. -1.
        -13    1    1    2    0    0  0.99334833575E+01  0.50006903920E+01 -0.24402242193E+02  0.26817188379E+02  0.10570000000E+00 0. -1.
         13    1    1    2    0    0 -0.99334833575E+01 -0.50006903920E+01 -0.10041824093E+02  0.14984338477E+02  0.10570000000E+00 0.  1.
<mgrwt>
<rscale>  0 0.23684889E+02</rscale>
<asrwt>0</asrwt>
<pdfrwt beam="2">  1        2 0.58650454E-02 0.23684889E+02</pdfrwt>
<pdfrwt beam="1">  1       -2 0.56595853E-03 0.23684889E+02</pdfrwt>
<totfact> 0.30395340E+06</totfact>
</mgrwt>
</event>
<event>
 4    1  0.3704929E-001  0.3542801E+02  0.7818608E-02  0.1544832E+00
          2   -1    0    0  501    0  0.00000000000E+00  0.00000000000E+00  0.13018229889E+02  0.13018230148E+02  0.26000000000E-02 0. -1.
         -2   -1    0    0    0  501 -0.00000000000E+00 -0.00000000000E+00 -0.24103586697E+02  0.24103586837E+02  0.26000000000E-02 0.  1.
        -13    1    1    2    0    0  0.93745896910E+01  0.12293238248E+02  0.35175880030E+01  0.15855322019E+02  0.10570000000E+00 0. -1.
         13    1    1    2    0    0 -0.93745896910E+01 -0.12293238248E+02 -0.14602944811E+02  0.21266494966E+02  0.10570000000E+00 0.  1.
<mgrwt>
<rscale>  0 0.35428014E+02</rscale>
<asrwt>0</asrwt>
<pdfrwt beam="1">  1        2 0.20028046E-02 0.35428014E+02</pdfrwt>
<pdfrwt beam="2">  1       -2 0.37082441E-02 0.35428014E+02</pdfrwt>
<totfact> 0.10184596E+06</totfact>
</mgrwt>
</event>
<event>
 4    1  0.3704929E-001  0.2270025E+02  0.7818608E-02  0.1696416E+00
          2   -1    0    0  501    0  0.00000000000E+00  0.00000000000E+00  0.25440263636E+02  0.25440263769E+02  0.26000000000E-02 0. -1.
         -2   -1    0    0    0  501 -0.00000000000E+00 -0.00000000000E+00 -0.50638340014E+01  0.50638346689E+01  0.26000000000E-02 0.  1.
        -13    1    1    2    0    0  0.27839984881E+01  0.99007461059E+01  0.37382619588E+01  0.10943545860E+02  0.10570000000E+00 0.  1.
         13    1    1    2    0    0 -0.27839984881E+01 -0.99007461059E+01  0.16638167676E+02  0.19560552577E+02  0.10570000000E+00 0. -1.
<mgrwt>
<rscale>  0 0.22700245E+02</rscale>
<asrwt>0</asrwt>
<pdfrwt beam="1">  1        2 0.39138868E-02 0.22700245E+02</pdfrwt>
<pdfrwt beam="2">  1       -2 0.77905145E-03 0.22700245E+02</pdfrwt>
<totfact> 0.31960466E+06</totfact>
</mgrwt>
</event>
<event>
 4    1  0.3704929E-001  0.2543268E+02  0.7818608E-02  0.1654864E+00
          2   -1    0    0  501    0  0.00000000000E+00  0.00000000000E+00  0.90505836620E+02  0.90505836657E+02  0.26000000000E-02 0.  1.
         -2   -1    0    0    0  501 -0.00000000000E+00 -0.00000000000E+00 -0.17866831046E+01  0.17866849963E+01  0.26000000000E-02 0. -1.
        -13    1    1    2    0    0 -0.65205061949E+00 -0.12601596286E+02  0.38657745447E+02  0.40665192174E+02  0.10570000000E+00 0.  1.
         13    1    1    2    0    0  0.65205061949E+00  0.12601596286E+02  0.50061408068E+02  0.51627329479E+02  0.10570000000E+00 0. -1.
<mgrwt>
<rscale>  0 0.25432683E+02</rscale>
<asrwt>0</asrwt>
<pdfrwt beam="1">  1        2 0.13923978E-01 0.25432683E+02</pdfrwt>
<pdfrwt beam="2">  1       -2 0.27487441E-03 0.25432683E+02</pdfrwt>
<totfact> 0.30005120E+06</totfact>
</mgrwt>
</event>
<event>
 4    1  0.3704929E-001  0.3189849E+02  0.7818608E-02  0.1578004E+00
          2   -1    0    0  501    0  0.00000000000E+00  0.00000000000E+00  0.33579925419E+02  0.33579925520E+02  0.26000000000E-02 0. -1.
         -2   -1    0    0    0  501 -0.00000000000E+00 -0.00000000000E+00 -0.75753125798E+01  0.75753130260E+01  0.26000000000E-02 0.  1.
        -13    1    1    2    0    0  0.16741290763E+01 -0.13671411326E+02  0.23376706697E+02  0.27132854334E+02  0.10570000000E+00 0. -1.
         13    1    1    2    0    0 -0.16741290763E+01  0.13671411326E+02  0.26279061425E+01  0.14022384212E+02  0.10570000000E+00 0.  1.
<mgrwt>
<rscale>  0 0.31898492E+02</rscale>
<asrwt>0</asrwt>
<pdfrwt beam="1">  1        2 0.51661425E-02 0.31898492E+02</pdfrwt>
<pdfrwt beam="2">  1       -2 0.11654327E-02 0.31898492E+02</pdfrwt>
<totfact> 0.14791166E+06</totfact>
</mgrwt>
</event>
<event>
 4    1  0.3704929E-001  0.2834180E+02  0.7818608E-02  0.1617176E+00
          2   -1    0    0  501    0  0.00000000000E+00  0.00000000000E+00  0.42193922254E+02  0.42193922335E+02  0.26000000000E-02 0.  1.
         -2   -1    0    0    0  501 -0.00000000000E+00 -0.00000000000E+00 -0.47593202691E+01  0.47593209793E+01  0.26000000000E-02 0. -1.
        -13    1    1    2    0    0  0.12525304991E+02 -0.65405711009E+01  0.16947754550E+02  0.22065808215E+02  0.10570000000E+00 0. -1.
         13    1    1    2    0    0 -0.12525304991E+02  0.65405711009E+01  0.20486847436E+02  0.24887435098E+02  0.10570000000E+00 0.  1.
<mgrwt>
<rscale>  0 0.28341800E+02</rscale>
<asrwt>0</asrwt>
<pdfrwt beam="1">  1        2 0.64913727E-02 0.28341800E+02</pdfrwt>
<pdfrwt beam="2">  1       -2 0.73220318E-03 0.28341800E+02</pdfrwt>
<totfact> 0.20270729E+06</totfact>
</mgrwt>
</event>
<event>
 4    1  0.3704929E-001  0.2354299E+02  0.7818608E-02  0.1682857E+00
         -2   -1    0    0    0  501 -0.00000000000E+00  0.00000000000E+00  0.10023811360E+02  0.10023811697E+02  0.26000000000E-02 0.  1.
          2   -1    0    0  501    0  0.00000000000E+00 -0.00000000000E+00 -0.13823892859E+02  0.13823893103E+02  0.26000000000E-02 0. -1.
        -13    1    1    2    0    0 -0.17664406801E+01  0.11293419497E+02 -0.47462646433E+01  0.12377392179E+02  0.10570000000E+00 0. -1.
         13    1    1    2    0    0  0.17664406801E+01 -0.11293419497E+02  0.94618314428E+00  0.11470312621E+02  0.10570000000E+00 0.  1.
<mgrwt>
<rscale>  0 0.23542991E+02</rscale>
<asrwt>0</asrwt>
<pdfrwt beam="2">  1        2 0.21267528E-02 0.23542991E+02</pdfrwt>
<pdfrwt beam="1">  1       -2 0.15421249E-02 0.23542991E+02</pdfrwt>
<totfact> 0.27754736E+06</totfact>
</mgrwt>
</event>
<event>
 4    1  0.3704929E-001  0.3496652E+02  0.7818608E-02  0.1548898E+00
          2   -1    0    0  501    0  0.00000000000E+00  0.00000000000E+00  0.27623529251E+01  0.27623541487E+01  0.26000000000E-02 0.  1.
         -2   -1    0    0    0  501 -0.00000000000E+00 -0.00000000000E+00 -0.11065362304E+03  0.11065362307E+03  0.26000000000E-02 0. -1.
        -13    1    1    2    0    0 -0.96951067498E+01 -0.12671677087E+02 -0.30762296173E+02  0.34653954080E+02  0.10570000000E+00 0.  1.
         13    1    1    2    0    0  0.96951067498E+01  0.12671677087E+02 -0.77128973946E+02  0.78762023143E+02  0.10570000000E+00 0. -1.
<mgrwt>
<rscale>  0 0.34966523E+02</rscale>
<asrwt>0</asrwt>
<pdfrwt beam="1">  1        2 0.42497756E-03 0.34966523E+02</pdfrwt>
<pdfrwt beam="2">  1       -2 0.17023631E-01 0.34966523E+02</pdfrwt>
<totfact> 0.81248805E+05</totfact>
</mgrwt>
</event>
<event>
 4    1  0.3704929E-001  0.8368701E+02  0.7818608E-02  0.1318902E+00
         -2   -1    0    0    0  501 -0.00000000000E+00  0.00000000000E+00  0.72577002075E+02  0.72577002122E+02  0.26000000000E-02 0.  1.
          2   -1    0    0  501    0  0.00000000000E+00 -0.00000000000E+00 -0.24124431808E+02  0.24124431948E+02  0.26000000000E-02 0. -1.
        -13    1    1    2    0    0  0.38027881198E+02  0.13806941861E+02  0.36570084542E+02  0.54535618158E+02  0.10570000000E+00 0. -1.
         13    1    1    2    0    0 -0.38027881198E+02 -0.13806941861E+02  0.11882485726E+02  0.42165815912E+02  0.10570000000E+00 0.  1.
<mgrwt>
<rscale>  0 0.83687011E+02</rscale>
<asrwt>0</asrwt>
<pdfrwt beam="2">  1        2 0.37114511E-02 0.83687011E+02</pdfrwt>
<pdfrwt beam="1">  1       -2 0.11165692E-01 0.83687011E+02</pdfrwt>
<totfact> 0.10773298E+05</totfact>
</mgrwt>
</event>
<event>
 4    1  0.3704929E-001  0.3248951E+02  0.7818608E-02  0.1572096E+00
          2   -1    0    0  501    0  0.00000000000E+00  0.00000000000E+00  0.86667175629E+02  0.86667175668E+02  0.26000000000E-02 0.  1.
         -2   -1    0    0    0  501 -0.00000000000E+00 -0.00000000000E+00 -0.30448893845E+01  0.30448904945E+01  0.26000000000E-02 0. -1.
        -13    1    1    2    0    0 -0.69275682626E+01 -0.14359592715E+02  0.33214902724E+02  0.36843317446E+02  0.10570000000E+00 0. -1.
         13    1    1    2    0    0  0.69275682626E+01  0.14359592715E+02  0.50407383520E+02  0.52868748716E+02  0.10570000000E+00 0.  1.
<mgrwt>
<rscale>  0 0.32489507E+02</rscale>
<asrwt>0</asrwt>
<pdfrwt beam="1">  1        2 0.13333411E-01 0.32489507E+02</pdfrwt>
<pdfrwt beam="2">  1       -2 0.46844462E-03 0.32489507E+02</pdfrwt>
<totfact> 0.16721189E+06</totfact>
</mgrwt>
</event>
<event>
 4    1  0.3704929E-001  0.2180878E+02  0.7818608E-02  0.1711580E+00
          2   -1    0    0  501    0  0.00000000000E+00  0.00000000000E+00  0.89085854796E+01  0.89085858591E+01  0.26000000000E-02 0. -1.
         -2   -1    0    0    0  501 -0.00000000000E+00 -0.00000000000E+00 -0.13347317155E+02  0.13347317408E+02  0.26000000000E-02 0.  1.
        -13    1    1    2    0    0 -0.89491766803E+01 -0.59578191509E+01 -0.36239485025E+00  0.10757596144E+02  0.10570000000E+00 0. -1.
         13    1    1    2    0    0  0.89491766803E+01  0.59578191509E+01 -0.40763368253E+01  0.11498307123E+02  0.10570000000E+00 0.  1.
<mgrwt>
<rscale>  0 0.21808780E+02</rscale>
<asrwt>0</asrwt>
<pdfrwt beam="1">  1        2 0.13705517E-02 0.21808780E+02</pdfrwt>
<pdfrwt beam="2">  1       -2 0.20534335E-02 0.21808780E+02</pdfrwt>
<totfact> 0.32023578E+06</totfact>
</mgrwt>
</event>
<event>
 4    1  0.3704929E-001  0.2764403E+02  0.7818608E-02  0.1625693E+00
          2   -1    0    0  501    0  0.00000000000E+00  0.00000000000E+00  0.89946449167E+01  0.89946452925E+01  0.26000000000E-02 0.  1.
         -2   -1    0    0    0  501 -0.00000000000E+00 -0.00000000000E+00 -0.21240202805E+02  0.21240202964E+02  0.26000000000E-02 0. -1.
        -13    1    1    2    0    0 -0.75458898996E+01  0.95358080989E+01 -0.13308518149E+02  0.18027754111E+02  0.10570000000E+00 0. -1.
         13    1    1    2    0    0  0.75458898996E+01 -0.95358080989E+01  0.10629602606E+01  0.12207094146E+02  0.10570000000E+00 0.  1.
<mgrwt>
<rscale>  0 0.27644029E+02</rscale>
<asrwt>0</asrwt>
<pdfrwt beam="1">  1        2 0.13837916E-02 0.27644029E+02</pdfrwt>
<pdfrwt beam="2">  1       -2 0.32677236E-02 0.27644029E+02</pdfrwt>
<totfact> 0.18174453E+06</totfact>
</mgrwt>
</event>
<event>
 4    1  0.3704929E-001  0.2781582E+02  0.7818608E-02  0.1623568E+00
         -2   -1    0    0    0  501 -0.00000000000E+00  0.00000000000E+00  0.27121961231E+01  0.27121973693E+01  0.26000000000E-02 0. -1.
          2   -1    0    0  501    0  0.00000000000E+00 -0.00000000000E+00 -0.71318544726E+02  0.71318544774E+02  0.26000000000E-02 0.  1.
        -13    1    1    2    0    0  0.13109401178E+02 -0.26194527293E+01 -0.44507659774E+02  0.46472151692E+02  0.10570000000E+00 0.  1.
         13    1    1    2    0    0 -0.13109401178E+02  0.26194527293E+01 -0.24098688830E+02  0.27558590451E+02  0.10570000000E+00 0. -1.
<mgrwt>
<rscale>  0 0.27815818E+02</rscale>
<asrwt>0</asrwt>
<pdfrwt beam="2">  1        2 0.10972082E-01 0.27815818E+02</pdfrwt>
<pdfrwt beam="1">  1       -2 0.41726110E-03 0.27815818E+02</pdfrwt>
<totfact> 0.23175977E+06</totfact>
</mgrwt>
</event>
<event>
 4    1  0.3704929E-001  0.1012917E+03  0.7818608E-02  0.1277603E+00
          2   -1    0    0  501    0  0.00000000000E+00  0.00000000000E+00  0.62061015470E+02  0.62061015524E+02  0.26000000000E-02 0.  1.
         -2   -1    0    0    0  501 -0.00000000000E+00 -0.00000000000E+00 -0.41330315326E+02  0.41330315408E+02  0.26000000000E-02 0. -1.
        -13    1    1    2    0    0  0.21203619239E+02 -0.33090624149E+02  0.42971318945E+02  0.58233395056E+02  0.10570000000E+00 0. -1.
         13    1    1    2    0    0 -0.21203619239E+02  0.33090624149E+02 -0.22240618802E+02  0.45157935876E+02  0.10570000000E+00 0.  1.
<mgrwt>
<rscale>  0 0.10129168E+03</rscale>
<asrwt>0</asrwt>
<pdfrwt beam="1">  1        2 0.95478485E-02 0.10129168E+03</pdfrwt>
<pdfrwt beam="2">  1       -2 0.63585101E-02 0.10129168E+03</pdfrwt>
<totfact> 0.79355511E+04</totfact>
</mgrwt>
</event>
<event>
 4    1  0.3704929E-001  0.2119809E+02  0.7818608E-02  0.1722501E+00
         -2   -1    0    0    0  501 -0.00000000000E+00  0.00000000000E+00  0.76543057606E+02  0.76543057650E+02  0.26000000000E-02 0. -1.
          2   -1    0    0  501    0  0.00000000000E+00 -0.00000000000E+00 -0.14676659758E+01  0.14676682788E+01  0.26000000000E-02 0.  1.
        -13    1    1    2    0    0  0.10426631790E+02  0.16149547013E+00  0.44508349480E+02  0.45713729635E+02  0.10570000000E+00 0.  1.
         13    1    1    2    0    0 -0.10426631790E+02 -0.16149547013E+00  0.30567042151E+02  0.32296996294E+02  0.10570000000E+00 0. -1.
<mgrwt>
<rscale>  0 0.21198088E+02</rscale>
<asrwt>0</asrwt>
<pdfrwt beam="2">  1        2 0.22579486E-03 0.21198088E+02</pdfrwt>
<pdfrwt beam="1">  1       -2 0.11775860E-01 0.21198088E+02</pdfrwt>
<totfact> 0.27756744E+06</totfact>
</mgrwt>
</event>
<event>
 4    1  0.3704929E-001  0.2631608E+02  0.7818608E-02  0.1642788E+00
         -2   -1    0    0    0  501 -0.00000000000E+00  0.00000000000E+00  0.73774370947E+01  0.73774375529E+01  0.26000000000E-02 0.  1.
          2   -1    0    0  501    0  0.00000000000E+00 -0.00000000000E+00 -0.23468036935E+02  0.23468037079E+02  0.26000000000E-02 0. -1.
        -13    1    1    2    0    0  0.12384316048E+02  0.33791611413E+01 -0.46618051931E+01  0.13657730930E+02  0.10570000000E+00 0.  1.
         13    1    1    2    0    0 -0.12384316048E+02 -0.33791611413E+01 -0.11428794647E+02  0.17187743702E+02  0.10570000000E+00 0. -1.
<mgrwt>
<rscale>  0 0.26316077E+02</rscale>
<asrwt>0</asrwt>
<pdfrwt beam="2">  1        2 0.36104672E-02 0.26316077E+02</pdfrwt>
<pdfrwt beam="1">  1       -2 0.11349904E-02 0.26316077E+02</pdfrwt>
<totfact> 0.22454311E+06</totfact>
</mgrwt>
</event>
<event>
 4    1  0.3704929E-001  0.2583811E+02  0.7818608E-02  0.1649248E+00
         -2   -1    0    0    0  501 -0.00000000000E+00  0.00000000000E+00  0.24271328338E+01  0.24271342264E+01  0.26000000000E-02 0.  1.
          2   -1    0    0  501    0  0.00000000000E+00 -0.00000000000E+00 -0.68765045102E+02  0.68765045151E+02  0.26000000000E-02 0. -1.
        -13    1    1    2    0    0 -0.12456983470E+02 -0.32909824398E+01 -0.35759210717E+02  0.38009726731E+02  0.10570000000E+00 0.  1.
         13    1    1    2    0    0  0.12456983470E+02  0.32909824398E+01 -0.30578701552E+02  0.33182452647E+02  0.10570000000E+00 0. -1.
<mgrwt>
<rscale>  0 0.25838108E+02</rscale>
<asrwt>0</asrwt>
<pdfrwt beam="2">  1        2 0.10579236E-01 0.25838108E+02</pdfrwt>
<pdfrwt beam="1">  1       -2 0.37340521E-03 0.25838108E+02</pdfrwt>
<totfact> 0.27326987E+06</totfact>
</mgrwt>
</event>
<event>
 4    1  0.3704929E-001  0.2865340E+02  0.7818608E-02  0.1613469E+00
         -2   -1    0    0    0  501 -0.00000000000E+00  0.00000000000E+00  0.82794910357E+02  0.82794910398E+02  0.26000000000E-02 0. -1.
          2   -1    0    0  501    0  0.00000000000E+00 -0.00000000000E+00 -0.24790693682E+01  0.24790707316E+01  0.26000000000E-02 0.  1.
        -13    1    1    2    0    0  0.10258142003E+02  0.73562929819E+01  0.19995602306E+02  0.23646983060E+02  0.10570000000E+00 0.  1.
         13    1    1    2    0    0 -0.10258142003E+02 -0.73562929819E+01  0.60320238682E+02  0.61626998069E+02  0.10570000000E+00 0. -1.
<mgrwt>
<rscale>  0 0.28653404E+02</rscale>
<asrwt>0</asrwt>
<pdfrwt beam="2">  1        2 0.38139539E-03 0.28653404E+02</pdfrwt>
<pdfrwt beam="1">  1       -2 0.12737679E-01 0.28653404E+02</pdfrwt>
<totfact> 0.13841791E+06</totfact>
</mgrwt>
</event>
<event>
 4    1  0.3704929E-001  0.3337994E+02  0.7818608E-02  0.1563476E+00
         -2   -1    0    0    0  501 -0.00000000000E+00  0.00000000000E+00  0.95082514954E+01  0.95082518509E+01  0.26000000000E-02 0. -1.
          2   -1    0    0  501    0  0.00000000000E+00 -0.00000000000E+00 -0.29296137115E+02  0.29296137231E+02  0.26000000000E-02 0.  1.
        -13    1    1    2    0    0 -0.11772459735E+02 -0.11808897383E+02 -0.10718429969E+02  0.19822633001E+02  0.10570000000E+00 0.  1.
         13    1    1    2    0    0  0.11772459735E+02  0.11808897383E+02 -0.90694556513E+01  0.18981756081E+02  0.10570000000E+00 0. -1.
<mgrwt>
<rscale>  0 0.33379937E+02</rscale>
<asrwt>0</asrwt>
<pdfrwt beam="2">  1        2 0.45070980E-02 0.33379937E+02</pdfrwt>
<pdfrwt beam="1">  1       -2 0.14628080E-02 0.33379937E+02</pdfrwt>
<totfact> 0.13007892E+06</totfact>
</mgrwt>
</event>
<event>
 4    1  0.3704929E-001  0.2407571E+02  0.7818608E-02  0.1674644E+00
         -2   -1    0    0    0  501 -0.00000000000E+00  0.00000000000E+00  0.20150524790E+02  0.20150524958E+02  0.26000000000E-02 0.  1.
          2   -1    0    0  501    0  0.00000000000E+00 -0.00000000000E+00 -0.71913741411E+01  0.71913746111E+01  0.26000000000E-02 0. -1.
        -13    1    1    2    0    0  0.73547094000E+01  0.82097370749E+01  0.98511683016E+00  0.11066759275E+02  0.10570000000E+00 0. -1.
         13    1    1    2    0    0 -0.73547094000E+01 -0.82097370749E+01  0.11974033819E+02  0.16275140294E+02  0.10570000000E+00 0.  1.
<mgrwt>
<rscale>  0 0.24075712E+02</rscale>
<asrwt>0</asrwt>
<pdfrwt beam="2">  1        2 0.11063653E-02 0.24075712E+02</pdfrwt>
<pdfrwt beam="1">  1       -2 0.31000808E-02 0.24075712E+02</pdfrwt>
<totfact> 0.24887922E+06</totfact>
</mgrwt>
</event>
<event>
 4    1  0.3704929E-001  0.2236341E+02  0.7818608E-02  0.1702042E+00
          2   -1    0    0  501    0  0.00000000000E+00  0.00000000000E+00  0.12152682529E+02  0.12152682807E+02  0.26000000000E-02 0. -1.
         -2   -1    0    0    0  501 -0.00000000000E+00 -0.00000000000E+00 -0.10288309103E+02  0.10288309431E+02  0.26000000000E-02 0.  1.
        -13    1    1    2    0    0 -0.51115467850E+01 -0.94410040513E+01 -0.22025773643E+01  0.10960063301E+02  0.10570000000E+00 0. -1.
         13    1    1    2    0    0  0.51115467850E+01  0.94410040513E+01  0.40669507907E+01  0.11480928937E+02  0.10570000000E+00 0.  1.
<mgrwt>
<rscale>  0 0.22363413E+02</rscale>
<asrwt>0</asrwt>
<pdfrwt beam="1">  1        2 0.18696435E-02 0.22363413E+02</pdfrwt>
<pdfrwt beam="2">  1       -2 0.15828168E-02 0.22363413E+02</pdfrwt>
<totfact> 0.30958162E+06</totfact>
</mgrwt>
</event>
<event>
 4    1  0.3704929E-001  0.2425942E+02  0.7818608E-02  0.1671873E+00
          2   -1    0    0  501    0  0.00000000000E+00  0.00000000000E+00  0.17836028983E+01  0.17836047933E+01  0.26000000000E-02 0.  1.
         -2   -1    0    0    0  501 -0.00000000000E+00 -0.00000000000E+00 -0.82490196288E+02  0.82490196329E+02  0.26000000000E-02 0. -1.
        -13    1    1    2    0    0 -0.39693526919E+01  0.10029686519E+02 -0.59622505924E+02  0.60590467547E+02  0.10570000000E+00 0. -1.
         13    1    1    2    0    0  0.39693526919E+01 -0.10029686519E+02 -0.21084087465E+02  0.23683333574E+02  0.10570000000E+00 0.  1.
<mgrwt>
<rscale>  0 0.24259418E+02</rscale>
<asrwt>0</asrwt>
<pdfrwt beam="1">  1        2 0.27440066E-03 0.24259418E+02</pdfrwt>
<pdfrwt beam="2">  1       -2 0.12690797E-01 0.24259418E+02</pdfrwt>
<totfact> 0.20240458E+06</totfact>
</mgrwt>
</event>
<event>
 4    1  0.3704929E-001  0.3103159E+02  0.7818608E-02  0.1586958E+00
         -2   -1    0    0    0  501 -0.00000000000E+00  0.00000000000E+00  0.22620240135E+02  0.22620240284E+02  0.26000000000E-02 0.  1.
          2   -1    0    0  501    0  0.00000000000E+00 -0.00000000000E+00 -0.10642677991E+02  0.10642678308E+02  0.26000000000E-02 0. -1.
        -13    1    1    2    0    0  0.95799595281E+01  0.65750421995E+01  0.17010235063E+02  0.20600147423E+02  0.10570000000E+00 0.  1.
         13    1    1    2    0    0 -0.95799595281E+01 -0.65750421995E+01 -0.50326729188E+01  0.12662771169E+02  0.10570000000E+00 0. -1.
<mgrwt>
<rscale>  0 0.31031593E+02</rscale>
<asrwt>0</asrwt>
<pdfrwt beam="2">  1        2 0.16373351E-02 0.31031593E+02</pdfrwt>
<pdfrwt beam="1">  1       -2 0.34800370E-02 0.31031593E+02</pdfrwt>
<totfact> 0.13894746E+06</totfact>
</mgrwt>
</event>
<event>
 4    1  0.3704929E-001  0.3751349E+02  0.7818608E-02  0.1527350E+00
         -2   -1    0    0    0  501 -0.00000000000E+00  0.00000000000E+00  0.32163463199E+02  0.32163463304E+02  0.26000000000E-02 0.  1.
          2   -1    0    0  501    0  0.00000000000E+00 -0.00000000000E+00 -0.10938356205E+02  0.10938356514E+02  0.26000000000E-02 0. -1.
        -13    1    1    2    0    0 -0.16824345311E+02  0.76838056628E+01  0.14191879227E+02  0.23313516962E+02  0.10570000000E+00 0. -1.
         13    1    1    2    0    0  0.16824345311E+02 -0.76838056628E+01  0.70332277663E+01  0.19788302856E+02  0.10570000000E+00 0.  1.
<mgrwt>
<rscale>  0 0.37513487E+02</rscale>
<asrwt>0</asrwt>
<pdfrwt beam="2">  1        2 0.16828241E-02 0.37513487E+02</pdfrwt>
<pdfrwt beam="1">  1       -2 0.49482251E-02 0.37513487E+02</pdfrwt>
<totfact> 0.86042342E+05</totfact>
</mgrwt>
</event>
<event>
 4    1  0.3704929E-001  0.2250106E+02  0.7818608E-02  0.1699728E+00
         -2   -1    0    0    0  501 -0.00000000000E+00  0.00000000000E+00  0.43356068149E+01  0.43356075945E+01  0.26000000000E-02 0. -1.
          2   -1    0    0  501    0  0.00000000000E+00 -0.00000000000E+00 -0.29194170267E+02  0.29194170383E+02  0.26000000000E-02 0.  1.
        -13    1    1    2    0    0  0.69618309965E+01 -0.88281834561E+01 -0.13024167836E+02  0.17205930206E+02  0.10570000000E+00 0.  1.
         13    1    1    2    0    0 -0.69618309965E+01  0.88281834561E+01 -0.11834395617E+02  0.16323847771E+02  0.10570000000E+00 0. -1.
<mgrwt>
<rscale>  0 0.22501063E+02</rscale>
<asrwt>0</asrwt>
<pdfrwt beam="2">  1        2 0.44914108E-02 0.22501063E+02</pdfrwt>
<pdfrwt beam="1">  1       -2 0.66701652E-03 0.22501063E+02</pdfrwt>
<totfact> 0.33101356E+06</totfact>
</mgrwt>
</event>
<event>
 4    1  0.3704929E-001  0.3140601E+02  0.7818608E-02  0.1583048E+00
          2   -1    0    0  501    0  0.00000000000E+00  0.00000000000E+00  0.60204534134E+01  0.60204539748E+01  0.26000000000E-02 0.  1.
         -2   -1    0    0    0  501 -0.00000000000E+00 -0.00000000000E+00 -0.40957779344E+02  0.40957779426E+02  0.26000000000E-02 0. -1.
        -13    1    1    2    0    0  0.72620705823E+01 -0.11449786827E+02 -0.56205534634E+01  0.14677775078E+02  0.10570000000E+00 0.  1.
         13    1    1    2    0    0 -0.72620705823E+01  0.11449786827E+02 -0.29316772467E+02  0.32300458323E+02  0.10570000000E+00 0. -1.
<mgrwt>
<rscale>  0 0.31406013E+02</rscale>
<asrwt>0</asrwt>
<pdfrwt beam="1">  1        2 0.92622368E-03 0.31406013E+02</pdfrwt>
<pdfrwt beam="2">  1       -2 0.63011967E-02 0.31406013E+02</pdfrwt>
<totfact> 0.12596116E+06</totfact>
</mgrwt>
</event>
<event>
 4    1  0.3704929E-001  0.4213855E+02  0.7818608E-02  0.1493039E+00
         -2   -1    0    0    0  501 -0.00000000000E+00  0.00000000000E+00  0.24282232975E+02  0.24282233115E+02  0.26000000000E-02 0.  1.
          2   -1    0    0  501    0  0.00000000000E+00 -0.00000000000E+00 -0.18281448233E+02  0.18281448418E+02  0.26000000000E-02 0. -1.
        -13    1    1    2    0    0  0.94199175221E+01  0.12792841516E+02 -0.10977995775E+02  0.19311116071E+02  0.10570000000E+00 0. -1.
         13    1    1    2    0    0 -0.94199175221E+01 -0.12792841516E+02  0.16978780518E+02  0.23252565461E+02  0.10570000000E+00 0.  1.
<mgrwt>
<rscale>  0 0.42138552E+02</rscale>
<asrwt>0</asrwt>
<pdfrwt beam="2">  1        2 0.28125305E-02 0.42138552E+02</pdfrwt>
<pdfrwt beam="1">  1       -2 0.37357282E-02 0.42138552E+02</pdfrwt>
<totfact> 0.68134792E+05</totfact>
</mgrwt>
</event>
<event>
 4    1  0.3704929E-001  0.2359029E+02  0.7818608E-02  0.1682117E+00
          2   -1    0    0  501    0  0.00000000000E+00  0.00000000000E+00  0.71420117230E+02  0.71420117278E+02  0.26000000000E-02 0.  1.
         -2   -1    0    0    0  501 -0.00000000000E+00 -0.00000000000E+00 -0.19479856554E+01  0.19479873905E+01  0.26000000000E-02 0. -1.
        -13    1    1    2    0    0 -0.14891668043E+00  0.10086755326E+02  0.15728953644E+02  0.18686250678E+02  0.10570000000E+00 0. -1.
         13    1    1    2    0    0  0.14891668043E+00 -0.10086755326E+02  0.53743177931E+02  0.54681853990E+02  0.10570000000E+00 0.  1.
<mgrwt>
<rscale>  0 0.23590289E+02</rscale>
<asrwt>0</asrwt>
<pdfrwt beam="1">  1        2 0.10987709E-01 0.23590289E+02</pdfrwt>
<pdfrwt beam="2">  1       -2 0.29969027E-03 0.23590289E+02</pdfrwt>
<totfact> 0.33936658E+06</totfact>
</mgrwt>
</event>
<event>
 4    1  0.3704929E-001  0.3730124E+02  0.7818608E-02  0.1529066E+00
          2   -1    0    0  501    0  0.00000000000E+00  0.00000000000E+00  0.10059983068E+02  0.10059983404E+02  0.26000000000E-02 0. -1.
         -2   -1    0    0    0  501 -0.00000000000E+00 -0.00000000000E+00 -0.34577152354E+02  0.34577152452E+02  0.26000000000E-02 0.  1.
        -13    1    1    2    0    0 -0.23694399317E+01  0.17488466383E+02 -0.50414162815E+01  0.18354502244E+02  0.10570000000E+00 0. -1.
         13    1    1    2    0    0  0.23694399317E+01 -0.17488466383E+02 -0.19475753005E+02  0.26282633612E+02  0.10570000000E+00 0.  1.
<mgrwt>
<rscale>  0 0.37301237E+02</rscale>
<asrwt>0</asrwt>
<pdfrwt beam="1">  1        2 0.15476897E-02 0.37301237E+02</pdfrwt>
<pdfrwt beam="2">  1       -2 0.53195619E-02 0.37301237E+02</pdfrwt>
<totfact> 0.86359806E+05</totfact>
</mgrwt>
</event>
<event>
 4    1  0.3704929E-001  0.3255626E+02  0.7818608E-02  0.1571438E+00
         -2   -1    0    0    0  501 -0.00000000000E+00  0.00000000000E+00  0.36069424882E+01  0.36069434253E+01  0.26000000000E-02 0.  1.
          2   -1    0    0  501    0  0.00000000000E+00 -0.00000000000E+00 -0.73463168625E+02  0.73463168671E+02  0.26000000000E-02 0. -1.
        -13    1    1    2    0    0 -0.10125774580E+02 -0.87095351448E+01 -0.56955234714E+02  0.58500403820E+02  0.10570000000E+00 0. -1.
         13    1    1    2    0    0  0.10125774580E+02  0.87095351448E+01 -0.12900991423E+02  0.18569708276E+02  0.10570000000E+00 0.  1.
<mgrwt>
<rscale>  0 0.32556257E+02</rscale>
<asrwt>0</asrwt>
<pdfrwt beam="2">  1        2 0.11302025E-01 0.32556257E+02</pdfrwt>
<pdfrwt beam="1">  1       -2 0.55491436E-03 0.32556257E+02</pdfrwt>
<totfact> 0.16054560E+06</totfact>
</mgrwt>
</event>
<event>
 4    1  0.3704929E-001  0.1422305E+03  0.7818608E-02  0.1210359E+00
          2   -1    0    0  501    0  0.00000000000E+00  0.00000000000E+00  0.63108923293E+03  0.63108923293E+03  0.26000000000E-02 0.  1.
         -2   -1    0    0    0  501 -0.00000000000E+00 -0.00000000000E+00 -0.80137303308E+01  0.80137307526E+01  0.26000000000E-02 0. -1.
        -13    1    1    2    0    0 -0.68468284496E+02  0.73099243015E+01  0.39141813077E+03  0.39742861654E+03  0.10570000000E+00 0. -1.
         13    1    1    2    0    0  0.68468284496E+02 -0.73099243015E+01  0.23165737183E+03  0.24167434715E+03  0.10570000000E+00 0.  1.
<mgrwt>
<rscale>  0 0.14223050E+03</rscale>
<asrwt>0</asrwt>
<pdfrwt beam="1">  1        2 0.97090633E-01 0.14223050E+03</pdfrwt>
<pdfrwt beam="2">  1       -2 0.12328818E-02 0.14223050E+03</pdfrwt>
<totfact> 0.69529777E+04</totfact>
</mgrwt>
</event>
<event>
 4    1  0.3704929E-001  0.6497984E+02  0.7818608E-02  0.1378047E+00
         -2   -1    0    0    0  501 -0.00000000000E+00  0.00000000000E+00  0.40171580641E+01  0.40171589055E+01  0.26000000000E-02 0.  1.
          2   -1    0    0  501    0  0.00000000000E+00 -0.00000000000E+00 -0.26277150817E+03  0.26277150818E+03  0.26000000000E-02 0. -1.
        -13    1    1    2    0    0  0.11874580845E+02  0.30176480768E+02 -0.12120900800E+03  0.12547215012E+03  0.10570000000E+00 0. -1.
         13    1    1    2    0    0 -0.11874580845E+02 -0.30176480768E+02 -0.13754534210E+03  0.14131651697E+03  0.10570000000E+00 0.  1.
<mgrwt>
<rscale>  0 0.64979837E+02</rscale>
<asrwt>0</asrwt>
<pdfrwt beam="2">  1        2 0.40426372E-01 0.64979837E+02</pdfrwt>
<pdfrwt beam="1">  1       -2 0.61802459E-03 0.64979837E+02</pdfrwt>
<totfact> 0.41584368E+05</totfact>
</mgrwt>
</event>
<event>
 4    1  0.3704929E-001  0.2215785E+02  0.7818608E-02  0.1705536E+00
         -2   -1    0    0    0  501 -0.00000000000E+00  0.00000000000E+00  0.30761918816E+01  0.30761929804E+01  0.26000000000E-02 0.  1.
          2   -1    0    0  501    0  0.00000000000E+00 -0.00000000000E+00 -0.39900794832E+02  0.39900794917E+02  0.26000000000E-02 0. -1.
        -13    1    1    2    0    0 -0.12837185108E+01 -0.10908276642E+02 -0.21218283764E+02  0.23892784912E+02  0.10570000000E+00 0. -1.
         13    1    1    2    0    0  0.12837185108E+01  0.10908276642E+02 -0.15606319187E+02  0.19084202985E+02  0.10570000000E+00 0.  1.
<mgrwt>
<rscale>  0 0.22157845E+02</rscale>
<asrwt>0</asrwt>
<pdfrwt beam="2">  1        2 0.61385836E-02 0.22157845E+02</pdfrwt>
<pdfrwt beam="1">  1       -2 0.47326041E-03 0.22157845E+02</pdfrwt>
<totfact> 0.35618731E+06</totfact>
</mgrwt>
</event>
<event>
 4    1  0.3704929E-001  0.3166768E+02  0.7818608E-02  0.1580354E+00
         -2   -1    0    0    0  501 -0.00000000000E+00  0.00000000000E+00  0.38602848076E+01  0.38602856832E+01  0.26000000000E-02 0. -1.
          2   -1    0    0  501    0  0.00000000000E+00 -0.00000000000E+00 -0.64946094275E+02  0.64946094327E+02  0.26000000000E-02 0.  1.
        -13    1    1    2    0    0 -0.10998089750E+02  0.80347944411E+00 -0.58558988532E+01  0.12486243680E+02  0.10570000000E+00 0.  1.
         13    1    1    2    0    0  0.10998089750E+02 -0.80347944411E+00 -0.55229910614E+02  0.56320136331E+02  0.10570000000E+00 0. -1.
<mgrwt>
<rscale>  0 0.31667678E+02</rscale>
<asrwt>0</asrwt>
<pdfrwt beam="2">  1        2 0.99917061E-02 0.31667678E+02</pdfrwt>
<pdfrwt beam="1">  1       -2 0.59389009E-03 0.31667678E+02</pdfrwt>
<totfact> 0.16738338E+06</totfact>
</mgrwt>
</event>
<event>
 4    1  0.3704929E-001  0.2547312E+02  0.7818608E-02  0.1654298E+00
          2   -1    0    0  501    0  0.00000000000E+00  0.00000000000E+00  0.39971554547E+01  0.39971563003E+01  0.26000000000E-02 0.  1.
         -2   -1    0    0    0  501 -0.00000000000E+00 -0.00000000000E+00 -0.40583839021E+02  0.40583839104E+02  0.26000000000E-02 0. -1.
        -13    1    1    2    0    0 -0.11150106637E+02 -0.10053870332E+01 -0.76660558292E+01  0.13568908047E+02  0.10570000000E+00 0.  1.
         13    1    1    2    0    0  0.11150106637E+02  0.10053870332E+01 -0.28920627737E+02  0.31012087358E+02  0.10570000000E+00 0. -1.
<mgrwt>
<rscale>  0 0.25473118E+02</rscale>
<asrwt>0</asrwt>
<pdfrwt beam="1">  1        2 0.61494709E-03 0.25473118E+02</pdfrwt>
<pdfrwt beam="2">  1       -2 0.62436673E-02 0.25473118E+02</pdfrwt>
<totfact> 0.20356164E+06</totfact>
</mgrwt>
</event>
<event>
 4    1  0.3704929E-001  0.3467527E+02  0.7818608E-02  0.1551503E+00
          2   -1    0    0  501    0  0.00000000000E+00  0.00000000000E+00  0.70276888944E+02  0.70276888992E+02  0.26000000000E-02 0. -1.
         -2   -1    0    0    0  501 -0.00000000000E+00 -0.00000000000E+00 -0.42772751314E+01  0.42772759217E+01  0.26000000000E-02 0.  1.
        -13    1    1    2    0    0 -0.13940317298E+02 -0.50487445200E+01  0.52321744505E+02  0.54381967490E+02  0.10570000000E+00 0. -1.
         13    1    1    2    0    0  0.13940317298E+02  0.50487445200E+01  0.13677869308E+02  0.20172197424E+02  0.10570000000E+00 0.  1.
<mgrwt>
<rscale>  0 0.34675272E+02</rscale>
<asrwt>0</asrwt>
<pdfrwt beam="1">  1        2 0.10811829E-01 0.34675272E+02</pdfrwt>
<pdfrwt beam="2">  1       -2 0.65804241E-03 0.34675272E+02</pdfrwt>
<totfact> 0.13666591E+06</totfact>
</mgrwt>
</event>
<event>
 4    1  0.3704929E-001  0.5023309E+02  0.7818608E-02  0.1444088E+00
          2   -1    0    0  501    0  0.00000000000E+00  0.00000000000E+00  0.14615629115E+02  0.14615629346E+02  0.26000000000E-02 0.  1.
         -2   -1    0    0    0  501 -0.00000000000E+00 -0.00000000000E+00 -0.43162070794E+02  0.43162070872E+02  0.26000000000E-02 0. -1.
        -13    1    1    2    0    0 -0.66971828293E+01 -0.13346511428E+02  0.89551923947E+01  0.17412302216E+02  0.10570000000E+00 0.  1.
         13    1    1    2    0    0  0.66971828293E+01  0.13346511428E+02 -0.37501634074E+02  0.40365398002E+02  0.10570000000E+00 0. -1.
<mgrwt>
<rscale>  0 0.50233090E+02</rscale>
<asrwt>0</asrwt>
<pdfrwt beam="1">  1        2 0.22485584E-02 0.50233090E+02</pdfrwt>
<pdfrwt beam="2">  1       -2 0.66403186E-02 0.50233090E+02</pdfrwt>
<totfact> 0.41343569E+05</totfact>
</mgrwt>
</event>
<event>
 4    1  0.3704929E-001  0.3155074E+02  0.7818608E-02  0.1581554E+00
          2   -1    0    0  501    0  0.00000000000E+00  0.00000000000E+00  0.31537028553E+02  0.31537028660E+02  0.26000000000E-02 0. -1.
         -2   -1    0    0    0  501 -0.00000000000E+00 -0.00000000000E+00 -0.78911118835E+01  0.78911123118E+01  0.26000000000E-02 0.  1.
        -13    1    1    2    0    0  0.97541066636E+01 -0.11182774917E+02  0.18512394171E+02  0.23725871156E+02  0.10570000000E+00 0. -1.
         13    1    1    2    0    0 -0.97541066636E+01  0.11182774917E+02  0.51335224988E+01  0.15702269817E+02  0.10570000000E+00 0.  1.
<mgrwt>
<rscale>  0 0.31550736E+02</rscale>
<asrwt>0</asrwt>
<pdfrwt beam="1">  1        2 0.48518505E-02 0.31550736E+02</pdfrwt>
<pdfrwt beam="2">  1       -2 0.12140173E-02 0.31550736E+02</pdfrwt>
<totfact> 0.15063610E+06</totfact>
</mgrwt>
</event>
<event>
 4    1  0.3704929E-001  0.6075493E+02  0.7818608E-02  0.1394691E+00
         -2   -1    0    0    0  501 -0.00000000000E+00  0.00000000000E+00  0.53110008015E+02  0.53110008079E+02  0.26000000000E-02 0.  1.
          2   -1    0    0  501    0  0.00000000000E+00 -0.00000000000E+00 -0.17375073545E+02  0.17375073740E+02  0.26000000000E-02 0. -1.
        -13    1    1    2    0    0 -0.89926712453E+01 -0.15108302990E+02 -0.10871829258E+02  0.20672126143E+02  0.10570000000E+00 0. -1.
         13    1    1    2    0    0  0.89926712453E+01  0.15108302990E+02  0.46606763729E+02  0.49812955675E+02  0.10570000000E+00 0.  1.
<mgrwt>
<rscale>  0 0.60754928E+02</rscale>
<asrwt>0</asrwt>
<pdfrwt beam="2">  1        2 0.26730882E-02 0.60754928E+02</pdfrwt>
<pdfrwt beam="1">  1       -2 0.81707706E-02 0.60754928E+02</pdfrwt>
<totfact> 0.25211894E+05</totfact>
</mgrwt>
</event>
<event>
 4    1  0.3704929E-001  0.1259606E+03  0.7818608E-02  0.1233576E+00
         -2   -1    0    0    0  501 -0.00000000000E+00  0.00000000000E+00  0.28122280227E+02  0.28122280347E+02  0.26000000000E-02 0. -1.
          2   -1    0    0  501    0  0.00000000000E+00 -0.00000000000E+00 -0.14104542070E+03  0.14104542073E+03  0.26000000000E-02 0.  1.
        -13    1    1    2    0    0  0.15530588375E+02  0.60216719189E+02 -0.69841671880E+02  0.93515361031E+02  0.10570000000E+00 0. -1.
         13    1    1    2    0    0 -0.15530588375E+02 -0.60216719189E+02 -0.43081468596E+02  0.75652340044E+02  0.10570000000E+00 0.  1.
<mgrwt>
<rscale>  0 0.12596061E+03</rscale>
<asrwt>0</asrwt>
<pdfrwt beam="2">  1        2 0.21699295E-01 0.12596061E+03</pdfrwt>
<pdfrwt beam="1">  1       -2 0.43265048E-02 0.12596061E+03</pdfrwt>
<totfact> 0.55704797E+04</totfact>
</mgrwt>
</event>
<event>
 4    1  0.3704929E-001  0.6341170E+02  0.7818608E-02  0.1384048E+00
         -2   -1    0    0    0  501 -0.00000000000E+00  0.00000000000E+00  0.15399914124E+02  0.15399914343E+02  0.26000000000E-02 0. -1.
          2   -1    0    0  501    0  0.00000000000E+00 -0.00000000000E+00 -0.65277046458E+02  0.65277046510E+02  0.26000000000E-02 0.  1.
        -13    1    1    2    0    0 -0.25700649426E+02 -0.14298801319E+01 -0.48490450527E+02  0.54899024608E+02  0.10570000000E+00 0.  1.
         13    1    1    2    0    0  0.25700649426E+02  0.14298801319E+01 -0.13866818069E+01  0.25777936245E+02  0.10570000000E+00 0. -1.
<mgrwt>
<rscale>  0 0.63411700E+02</rscale>
<asrwt>0</asrwt>
<pdfrwt beam="2">  1        2 0.10042622E-01 0.63411700E+02</pdfrwt>
<pdfrwt beam="1">  1       -2 0.23692176E-02 0.63411700E+02</pdfrwt>
<totfact> 0.29180354E+05</totfact>
</mgrwt>
</event>
<event>
 4    1  0.3704929E-001  0.3630022E+02  0.7818608E-02  0.1537348E+00
         -2   -1    0    0    0  501 -0.00000000000E+00  0.00000000000E+00  0.77674555905E+01  0.77674560257E+01  0.26000000000E-02 0. -1.
          2   -1    0    0  501    0  0.00000000000E+00 -0.00000000000E+00 -0.42411117578E+02  0.42411117658E+02  0.26000000000E-02 0.  1.
        -13    1    1    2    0    0 -0.99695268748E+01  0.83603030545E+01  0.17036358045E+00  0.13012545082E+02  0.10570000000E+00 0. -1.
         13    1    1    2    0    0  0.99695268748E+01 -0.83603030545E+01 -0.34814025568E+02  0.37166028602E+02  0.10570000000E+00 0.  1.
<mgrwt>
<rscale>  0 0.36300220E+02</rscale>
<asrwt>0</asrwt>
<pdfrwt beam="2">  1        2 0.65247873E-02 0.36300220E+02</pdfrwt>
<pdfrwt beam="1">  1       -2 0.11949932E-02 0.36300220E+02</pdfrwt>
<totfact> 0.11162216E+06</totfact>
</mgrwt>
</event>
<event>
 4    1  0.3704929E-001  0.2067714E+02  0.7818608E-02  0.1732188E+00
          2   -1    0    0  501    0  0.00000000000E+00  0.00000000000E+00  0.38269095032E+01  0.38269103865E+01  0.26000000000E-02 0. -1.
         -2   -1    0    0    0  501 -0.00000000000E+00 -0.00000000000E+00 -0.27930106154E+02  0.27930106275E+02  0.26000000000E-02 0.  1.
        -13    1    1    2    0    0 -0.37087431487E+01  0.96245005990E+01 -0.13125645889E+02  0.16693697613E+02  0.10570000000E+00 0. -1.
         13    1    1    2    0    0  0.37087431487E+01 -0.96245005990E+01 -0.10977550763E+02  0.15063319049E+02  0.10570000000E+00 0.  1.
<mgrwt>
<rscale>  0 0.20677138E+02</rscale>
<asrwt>0</asrwt>
<pdfrwt beam="1">  1        2 0.58875540E-03 0.20677138E+02</pdfrwt>
<pdfrwt beam="2">  1       -2 0.42969393E-02 0.20677138E+02</pdfrwt>
<totfact> 0.33773599E+06</totfact>
</mgrwt>
</event>
<event>
 4    1  0.3704929E-001  0.3349126E+02  0.7818608E-02  0.1562422E+00
          2   -1    0    0  501    0  0.00000000000E+00  0.00000000000E+00  0.67975351068E+01  0.67975356040E+01  0.26000000000E-02 0.  1.
         -2   -1    0    0    0  501 -0.00000000000E+00 -0.00000000000E+00 -0.41252628790E+02  0.41252628872E+02  0.26000000000E-02 0. -1.
        -13    1    1    2    0    0  0.10407342915E+02  0.62175709235E+01 -0.65471678516E+00  0.12141284994E+02  0.10570000000E+00 0.  1.
         13    1    1    2    0    0 -0.10407342915E+02 -0.62175709235E+01 -0.33800376899E+02  0.35908879483E+02  0.10570000000E+00 0. -1.
<mgrwt>
<rscale>  0 0.33491265E+02</rscale>
<asrwt>0</asrwt>
<pdfrwt beam="1">  1        2 0.10457747E-02 0.33491265E+02</pdfrwt>
<pdfrwt beam="2">  1       -2 0.63465582E-02 0.33491265E+02</pdfrwt>
<totfact> 0.10840826E+06</totfact>
</mgrwt>
</event>
<event>
 4    1  0.3704929E-001  0.3521018E+02  0.7818608E-02  0.1546742E+00
         -2   -1    0    0    0  501 -0.00000000000E+00  0.00000000000E+00  0.14272539427E+03  0.14272539429E+03  0.26000000000E-02 0. -1.
          2   -1    0    0  501    0  0.00000000000E+00 -0.00000000000E+00 -0.21715759972E+01  0.21715775537E+01  0.26000000000E-02 0.  1.
        -13    1    1    2    0    0 -0.16495732925E+02 -0.52092900478E+01  0.83726804319E+02  0.85495232858E+02  0.10570000000E+00 0.  1.
         13    1    1    2    0    0  0.16495732925E+02  0.52092900478E+01  0.56827013949E+02  0.59401738984E+02  0.10570000000E+00 0. -1.
<mgrwt>
<rscale>  0 0.35210178E+02</rscale>
<asrwt>0</asrwt>
<pdfrwt beam="2">  1        2 0.33408878E-03 0.35210178E+02</pdfrwt>
<pdfrwt beam="1">  1       -2 0.21957750E-01 0.35210178E+02</pdfrwt>
<totfact> 0.74255253E+05</totfact>
</mgrwt>
</event>
<event>
 4    1  0.3704929E-001  0.2892211E+02  0.7818608E-02  0.1610318E+00
          2   -1    0    0  501    0  0.00000000000E+00  0.00000000000E+00  0.43149714779E+02  0.43149714857E+02  0.26000000000E-02 0.  1.
         -2   -1    0    0    0  501 -0.00000000000E+00 -0.00000000000E+00 -0.48464314267E+01  0.48464321241E+01  0.26000000000E-02 0. -1.
        -13    1    1    2    0    0 -0.19162419257E+01 -0.14316599035E+02  0.20294152745E+02  0.24909853455E+02  0.10570000000E+00 0.  1.
         13    1    1    2    0    0  0.19162419257E+01  0.14316599035E+02  0.18009130607E+02  0.23086293526E+02  0.10570000000E+00 0. -1.
<mgrwt>
<rscale>  0 0.28922113E+02</rscale>
<asrwt>0</asrwt>
<pdfrwt beam="1">  1        2 0.66384177E-02 0.28922113E+02</pdfrwt>
<pdfrwt beam="2">  1       -2 0.74560490E-03 0.28922113E+02</pdfrwt>
<totfact> 0.19384418E+06</totfact>
</mgrwt>
</event>
<event>
 4    1  0.3704929E-001  0.4982399E+02  0.7818608E-02  0.1446293E+00
          2   -1    0    0  501    0  0.00000000000E+00  0.00000000000E+00  0.40857415370E+01  0.40857423642E+01  0.26000000000E-02 0.  1.
         -2   -1    0    0    0  501 -0.00000000000E+00 -0.00000000000E+00 -0.15189590781E+03  0.15189590783E+03  0.26000000000E-02 0. -1.
        -13    1    1    2    0    0  0.23173869116E+02  0.64559312682E+01 -0.53642944020E+02  0.58790168174E+02  0.10570000000E+00 0. -1.
         13    1    1    2    0    0 -0.23173869116E+02 -0.64559312682E+01 -0.94167222250E+02  0.97191482019E+02  0.10570000000E+00 0.  1.
<mgrwt>
<rscale>  0 0.49823990E+02</rscale>
<asrwt>0</asrwt>
<pdfrwt beam="1">  1        2 0.62857580E-03 0.49823990E+02</pdfrwt>
<pdfrwt beam="2">  1       -2 0.23368597E-01 0.49823990E+02</pdfrwt>
<totfact> 0.31512081E+05</totfact>
</mgrwt>
</event>
<event>
 4    1  0.3704929E-001  0.2150521E+02  0.7818608E-02  0.1716952E+00
          2   -1    0    0  501    0  0.00000000000E+00  0.00000000000E+00  0.28018739019E+01  0.28018751082E+01  0.26000000000E-02 0.  1.
         -2   -1    0    0    0  501 -0.00000000000E+00 -0.00000000000E+00 -0.41264696873E+02  0.41264696955E+02  0.26000000000E-02 0. -1.
        -13    1    1    2    0    0 -0.10426827415E+02 -0.64104776616E+00 -0.24446656338E+02  0.26585331497E+02  0.10570000000E+00 0.  1.
         13    1    1    2    0    0  0.10426827415E+02  0.64104776616E+00 -0.14016166633E+02  0.17481240567E+02  0.10570000000E+00 0. -1.
<mgrwt>
<rscale>  0 0.21505209E+02</rscale>
<asrwt>0</asrwt>
<pdfrwt beam="1">  1        2 0.43105765E-03 0.21505209E+02</pdfrwt>
<pdfrwt beam="2">  1       -2 0.63484145E-02 0.21505209E+02</pdfrwt>
<totfact> 0.29656710E+06</totfact>
</mgrwt>
</event>
<event>
 4    1  0.3704929E-001  0.2781655E+02  0.7818608E-02  0.1623559E+00
          2   -1    0    0  501    0  0.00000000000E+00  0.00000000000E+00  0.46811388945E+02  0.46811389018E+02  0.26000000000E-02 0. -1.
         -2   -1    0    0    0  501 -0.00000000000E+00 -0.00000000000E+00 -0.41323310169E+01  0.41323318349E+01  0.26000000000E-02 0.  1.
        -13    1    1    2    0    0 -0.12022576997E+02 -0.28914593776E+01  0.96807039673E+01  0.15704461047E+02  0.10570000000E+00 0.  1.
         13    1    1    2    0    0  0.12022576997E+02  0.28914593776E+01  0.32998353961E+02  0.35239259805E+02  0.10570000000E+00 0. -1.
<mgrwt>
<rscale>  0 0.27816555E+02</rscale>
<asrwt>0</asrwt>
<pdfrwt beam="1">  1        2 0.72017522E-02 0.27816555E+02</pdfrwt>
<pdfrwt beam="2">  1       -2 0.63574330E-03 0.27816555E+02</pdfrwt>
<totfact> 0.21520366E+06</totfact>
</mgrwt>
</event>
<event>
 4    1  0.3704929E-001  0.5518604E+02  0.7818608E-02  0.1419221E+00
         -2   -1    0    0    0  501 -0.00000000000E+00  0.00000000000E+00  0.16702002676E+02  0.16702002878E+02  0.26000000000E-02 0.  1.
          2   -1    0    0  501    0  0.00000000000E+00 -0.00000000000E+00 -0.45585829505E+02  0.45585829579E+02  0.26000000000E-02 0. -1.
        -13    1    1    2    0    0  0.78734554146E+01  0.73758251364E+01 -0.43106360246E+02  0.44436061512E+02  0.10570000000E+00 0. -1.
         13    1    1    2    0    0 -0.78734554146E+01 -0.73758251364E+01  0.14222533417E+02  0.17851770945E+02  0.10570000000E+00 0.  1.
<mgrwt>
<rscale>  0 0.55186036E+02</rscale>
<asrwt>0</asrwt>
<pdfrwt beam="2">  1        2 0.70132045E-02 0.55186036E+02</pdfrwt>
<pdfrwt beam="1">  1       -2 0.25695389E-02 0.55186036E+02</pdfrwt>
<totfact> 0.39007192E+05</totfact>
</mgrwt>
</event>
<event>
 4    1  0.3704929E-001  0.4645871E+02  0.7818608E-02  0.1465435E+00
         -2   -1    0    0    0  501 -0.00000000000E+00  0.00000000000E+00  0.20571943806E+02  0.20571943970E+02  0.26000000000E-02 0. -1.
          2   -1    0    0  501    0  0.00000000000E+00 -0.00000000000E+00 -0.26230043879E+02  0.26230044008E+02  0.26000000000E-02 0.  1.
        -13    1    1    2    0    0  0.47323011580E+00  0.15782062715E+02 -0.19992968302E+02  0.25476016256E+02  0.10570000000E+00 0.  1.
         13    1    1    2    0    0 -0.47323011580E+00 -0.15782062715E+02  0.14334868229E+02  0.21325971722E+02  0.10570000000E+00 0. -1.
<mgrwt>
<rscale>  0 0.46458713E+02</rscale>
<asrwt>0</asrwt>
<pdfrwt beam="2">  1        2 0.40353914E-02 0.46458713E+02</pdfrwt>
<pdfrwt beam="1">  1       -2 0.31649145E-02 0.46458713E+02</pdfrwt>
<totfact> 0.55677231E+05</totfact>
</mgrwt>
</event>
<event>
 4    1  0.3704929E-001  0.3755453E+02  0.7818608E-02  0.1527019E+00
          2   -1    0    0  501    0  0.00000000000E+00  0.00000000000E+00  0.67783851318E+02  0.67783851368E+02  0.26000000000E-02 0.  1.
         -2   -1    0    0    0  501 -0.00000000000E+00 -0.00000000000E+00 -0.52016185800E+01  0.52016192298E+01  0.26000000000E-02 0. -1.
        -13    1    1    2    0    0 -0.42184533300E+00  0.13085841983E+02  0.51332664210E+01  0.14063385458E+02  0.10570000000E+00 0. -1.
         13    1    1    2    0    0  0.42184533300E+00 -0.13085841983E+02  0.57448966317E+02  0.58922085140E+02  0.10570000000E+00 0.  1.
<mgrwt>
<rscale>  0 0.37554535E+02</rscale>
<asrwt>0</asrwt>
<pdfrwt beam="1">  1        2 0.10428285E-01 0.37554535E+02</pdfrwt>
<pdfrwt beam="2">  1       -2 0.80024909E-03 0.37554535E+02</pdfrwt>
<totfact> 0.11169197E+06</totfact>
</mgrwt>
</event>
<event>
 4    1  0.3704929E-001  0.2347802E+02  0.7818608E-02  0.1683877E+00
         -2   -1    0    0    0  501 -0.00000000000E+00  0.00000000000E+00  0.28000640716E+01  0.28000652787E+01  0.26000000000E-02 0.  1.
          2   -1    0    0  501    0  0.00000000000E+00 -0.00000000000E+00 -0.49214700957E+02  0.49214701026E+02  0.26000000000E-02 0. -1.
        -13    1    1    2    0    0  0.11148586531E+02 -0.80931471593E+00 -0.31148214581E+02  0.33093328875E+02  0.10570000000E+00 0.  1.
         13    1    1    2    0    0 -0.11148586531E+02  0.80931471593E+00 -0.15266422304E+02  0.18921437430E+02  0.10570000000E+00 0. -1.
<mgrwt>
<rscale>  0 0.23478019E+02</rscale>
<asrwt>0</asrwt>
<pdfrwt beam="2">  1        2 0.75714919E-02 0.23478019E+02</pdfrwt>
<pdfrwt beam="1">  1       -2 0.43077922E-03 0.23478019E+02</pdfrwt>
<totfact> 0.32166133E+06</totfact>
</mgrwt>
</event>
<event>
 4    1  0.3704929E-001  0.6677947E+02  0.7818608E-02  0.1371400E+00
          2   -1    0    0  501    0  0.00000000000E+00  0.00000000000E+00  0.10016405524E+03  0.10016405528E+03  0.26000000000E-02 0.  1.
         -2   -1    0    0    0  501 -0.00000000000E+00 -0.00000000000E+00 -0.11130483880E+02  0.11130484183E+02  0.26000000000E-02 0. -1.
        -13    1    1    2    0    0 -0.19388496943E+02 -0.24771360797E+02  0.25859138391E+02  0.40721497274E+02  0.10570000000E+00 0.  1.
         13    1    1    2    0    0  0.19388496943E+02  0.24771360797E+02  0.63174432971E+02  0.70573042184E+02  0.10570000000E+00 0. -1.
<mgrwt>
<rscale>  0 0.66779471E+02</rscale>
<asrwt>0</asrwt>
<pdfrwt beam="1">  1        2 0.15409855E-01 0.66779471E+02</pdfrwt>
<pdfrwt beam="2">  1       -2 0.17123821E-02 0.66779471E+02</pdfrwt>
<totfact> 0.28372232E+05</totfact>
</mgrwt>
</event>
<event>
 4    1  0.3704929E-001  0.1286360E+03  0.7818608E-02  0.1229494E+00
         -2   -1    0    0    0  501 -0.00000000000E+00  0.00000000000E+00  0.15056160399E+03  0.15056160402E+03  0.26000000000E-02 0.  1.
          2   -1    0    0  501    0  0.00000000000E+00 -0.00000000000E+00 -0.27475843558E+02  0.27475843681E+02  0.26000000000E-02 0. -1.
        -13    1    1    2    0    0 -0.31844701259E+02 -0.24386217234E+02  0.13113166750E+03  0.13712876424E+03  0.10570000000E+00 0.  1.
         13    1    1    2    0    0  0.31844701259E+02  0.24386217234E+02 -0.80459070610E+01  0.40908683457E+02  0.10570000000E+00 0. -1.
<mgrwt>
<rscale>  0 0.12863603E+03</rscale>
<asrwt>0</asrwt>
<pdfrwt beam="2">  1        2 0.42270528E-02 0.12863603E+03</pdfrwt>
<pdfrwt beam="1">  1       -2 0.23163324E-01 0.12863603E+03</pdfrwt>
<totfact> 0.29208877E+04</totfact>
</mgrwt>
</event>
<event>
 4    1  0.3704929E-001  0.4096285E+02  0.7818608E-02  0.1501243E+00
         -2   -1    0    0    0  501 -0.00000000000E+00  0.00000000000E+00  0.19578832165E+02  0.19578832338E+02  0.26000000000E-02 0. -1.
          2   -1    0    0  501    0  0.00000000000E+00 -0.00000000000E+00 -0.21425626400E+02  0.21425626558E+02  0.26000000000E-02 0.  1.
        -13    1    1    2    0    0  0.16173356899E+02 -0.22198153181E+01  0.11457372631E+02  0.19944613647E+02  0.10570000000E+00 0. -1.
         13    1    1    2    0    0 -0.16173356899E+02  0.22198153181E+01 -0.13304166866E+02  0.21059845249E+02  0.10570000000E+00 0.  1.
<mgrwt>
<rscale>  0 0.40962849E+02</rscale>
<asrwt>0</asrwt>
<pdfrwt beam="2">  1        2 0.32962502E-02 0.40962849E+02</pdfrwt>
<pdfrwt beam="1">  1       -2 0.30121281E-02 0.40962849E+02</pdfrwt>
<totfact> 0.74858085E+05</totfact>
</mgrwt>
</event>
<event>
 4    1  0.3704929E-001  0.3565955E+02  0.7818608E-02  0.1542820E+00
          2   -1    0    0  501    0  0.00000000000E+00  0.00000000000E+00  0.22259204591E+02  0.22259204743E+02  0.26000000000E-02 0. -1.
         -2   -1    0    0    0  501 -0.00000000000E+00 -0.00000000000E+00 -0.14281773719E+02  0.14281773956E+02  0.26000000000E-02 0.  1.
        -13    1    1    2    0    0 -0.15937525442E+02 -0.19119770484E+01  0.11941303590E+02  0.20006655826E+02  0.10570000000E+00 0. -1.
         13    1    1    2    0    0  0.15937525442E+02  0.19119770484E+01 -0.39638727182E+01  0.16534322873E+02  0.10570000000E+00 0.  1.
<mgrwt>
<rscale>  0 0.35659553E+02</rscale>
<asrwt>0</asrwt>
<pdfrwt beam="1">  1        2 0.34244930E-02 0.35659553E+02</pdfrwt>
<pdfrwt beam="2">  1       -2 0.21971960E-02 0.35659553E+02</pdfrwt>
<totfact> 0.10678119E+06</totfact>
</mgrwt>
</event>
<event>
 4    1  0.3704929E-001  0.2478107E+02  0.7818608E-02  0.1664167E+00
         -2   -1    0    0    0  501 -0.00000000000E+00  0.00000000000E+00  0.10405308529E+02  0.10405308854E+02  0.26000000000E-02 0.  1.
          2   -1    0    0  501    0  0.00000000000E+00 -0.00000000000E+00 -0.14754517624E+02  0.14754517853E+02  0.26000000000E-02 0. -1.
        -13    1    1    2    0    0  0.87532728875E+01  0.52008932042E+01 -0.93426168121E+01  0.13818999159E+02  0.10570000000E+00 0. -1.
         13    1    1    2    0    0 -0.87532728875E+01 -0.52008932042E+01  0.49934077172E+01  0.11340827549E+02  0.10570000000E+00 0.  1.
<mgrwt>
<rscale>  0 0.24781067E+02</rscale>
<asrwt>0</asrwt>
<pdfrwt beam="2">  1        2 0.22699258E-02 0.24781067E+02</pdfrwt>
<pdfrwt beam="1">  1       -2 0.16008167E-02 0.24781067E+02</pdfrwt>
<totfact> 0.24744780E+06</totfact>
</mgrwt>
</event>
<event>
 4    1  0.3704929E-001  0.3065804E+02  0.7818608E-02  0.1590927E+00
         -2   -1    0    0    0  501 -0.00000000000E+00  0.00000000000E+00  0.30114210624E+02  0.30114210737E+02  0.26000000000E-02 0. -1.
          2   -1    0    0  501    0  0.00000000000E+00 -0.00000000000E+00 -0.78029241188E+01  0.78029245520E+01  0.26000000000E-02 0.  1.
        -13    1    1    2    0    0 -0.14783396422E+02 -0.39395516962E+01  0.99830771701E+01  0.18268603658E+02  0.10570000000E+00 0.  1.
         13    1    1    2    0    0  0.14783396422E+02  0.39395516962E+01  0.12328209335E+02  0.19648531631E+02  0.10570000000E+00 0. -1.
<mgrwt>
<rscale>  0 0.30658044E+02</rscale>
<asrwt>0</asrwt>
<pdfrwt beam="2">  1        2 0.12004499E-02 0.30658044E+02</pdfrwt>
<pdfrwt beam="1">  1       -2 0.46329554E-02 0.30658044E+02</pdfrwt>
<totfact> 0.13836665E+06</totfact>
</mgrwt>
</event>
<event>
 4    1  0.3704929E-001  0.4230045E+02  0.7818608E-02  0.1491934E+00
         -2   -1    0    0    0  501 -0.00000000000E+00  0.00000000000E+00  0.26069791002E+02  0.26069791132E+02  0.26000000000E-02 0.  1.
          2   -1    0    0  501    0  0.00000000000E+00 -0.00000000000E+00 -0.17159015894E+02  0.17159016091E+02  0.26000000000E-02 0. -1.
        -13    1    1    2    0    0 -0.90804761492E+01  0.19101370180E+02  0.45150020905E+01  0.21626691985E+02  0.10570000000E+00 0. -1.
         13    1    1    2    0    0  0.90804761492E+01 -0.19101370180E+02  0.43957730173E+01  0.21602115238E+02  0.10570000000E+00 0.  1.
<mgrwt>
<rscale>  0 0.42300448E+02</rscale>
<asrwt>0</asrwt>
<pdfrwt beam="2">  1        2 0.26398486E-02 0.42300448E+02</pdfrwt>
<pdfrwt beam="1">  1       -2 0.40107371E-02 0.42300448E+02</pdfrwt>
<totfact> 0.66881917E+05</totfact>
</mgrwt>
</event>
<event>
 4    1  0.3704929E-001  0.2576314E+02  0.7818608E-02  0.1650277E+00
          2   -1    0    0  501    0  0.00000000000E+00  0.00000000000E+00  0.18380635007E+01  0.18380653396E+01  0.26000000000E-02 0.  1.
         -2   -1    0    0    0  501 -0.00000000000E+00 -0.00000000000E+00 -0.90276969118E+02  0.90276969155E+02  0.26000000000E-02 0. -1.
        -13    1    1    2    0    0 -0.32536254052E+01  0.12457977444E+02 -0.45540126171E+02  0.47325485147E+02  0.10570000000E+00 0.  1.
         13    1    1    2    0    0  0.32536254052E+01 -0.12457977444E+02 -0.42898779446E+02  0.44789549348E+02  0.10570000000E+00 0. -1.
<mgrwt>
<rscale>  0 0.25763143E+02</rscale>
<asrwt>0</asrwt>
<pdfrwt beam="1">  1        2 0.28277921E-03 0.25763143E+02</pdfrwt>
<pdfrwt beam="2">  1       -2 0.13888761E-01 0.25763143E+02</pdfrwt>
<totfact> 0.17324255E+06</totfact>
</mgrwt>
</event>
<event>
 4    1  0.3704929E-001  0.3502279E+02  0.7818608E-02  0.1548398E+00
          2   -1    0    0  501    0  0.00000000000E+00  0.00000000000E+00  0.22427365716E+02  0.22427365867E+02  0.26000000000E-02 0.  1.
         -2   -1    0    0    0  501 -0.00000000000E+00 -0.00000000000E+00 -0.13672977880E+02  0.13672978128E+02  0.26000000000E-02 0. -1.
        -13    1    1    2    0    0 -0.13339024984E+02  0.54152529117E+01  0.14653027180E+02  0.20542077053E+02  0.10570000000E+00 0.  1.
         13    1    1    2    0    0  0.13339024984E+02 -0.54152529117E+01 -0.58986393441E+01  0.15558266942E+02  0.10570000000E+00 0. -1.
<mgrwt>
<rscale>  0 0.35022786E+02</rscale>
<asrwt>0</asrwt>
<pdfrwt beam="1">  1        2 0.34503639E-02 0.35022786E+02</pdfrwt>
<pdfrwt beam="2">  1       -2 0.21035351E-02 0.35022786E+02</pdfrwt>
<totfact> 0.11177721E+06</totfact>
</mgrwt>
</event>
<event>
 4    1  0.3704929E-001  0.1180028E+03  0.7818608E-02  0.1246429E+00
         -2   -1    0    0    0  501 -0.00000000000E+00  0.00000000000E+00  0.20530782667E+02  0.20530782831E+02  0.26000000000E-02 0.  1.
          2   -1    0    0  501    0  0.00000000000E+00 -0.00000000000E+00 -0.16955825257E+03  0.16955825259E+03  0.26000000000E-02 0. -1.
        -13    1    1    2    0    0 -0.21873521959E+02  0.53775387649E+02 -0.91478530644E+02  0.10834470924E+03  0.10570000000E+00 0.  1.
         13    1    1    2    0    0  0.21873521959E+02 -0.53775387649E+02 -0.57548939255E+02  0.81744326174E+02  0.10570000000E+00 0. -1.
<mgrwt>
<rscale>  0 0.11800277E+03</rscale>
<asrwt>0</asrwt>
<pdfrwt beam="2">  1        2 0.26085884E-01 0.11800277E+03</pdfrwt>
<pdfrwt beam="1">  1       -2 0.31585821E-02 0.11800277E+03</pdfrwt>
<totfact> 0.71728421E+04</totfact>
</mgrwt>
</event>
<event>
 4    1  0.3704929E-001  0.2762607E+02  0.7818608E-02  0.1625916E+00
          2   -1    0    0  501    0  0.00000000000E+00  0.00000000000E+00  0.61837501122E+02  0.61837501177E+02  0.26000000000E-02 0. -1.
         -2   -1    0    0    0  501 -0.00000000000E+00 -0.00000000000E+00 -0.30855056930E+01  0.30855067884E+01  0.26000000000E-02 0.  1.
        -13    1    1    2    0    0 -0.63991144675E+01  0.11748956545E+02  0.37449474183E+02  0.39767586486E+02  0.10570000000E+00 0. -1.
         13    1    1    2    0    0  0.63991144675E+01 -0.11748956545E+02  0.21302521246E+02  0.25155421479E+02  0.10570000000E+00 0.  1.
<mgrwt>
<rscale>  0 0.27626075E+02</rscale>
<asrwt>0</asrwt>
<pdfrwt beam="1">  1        2 0.95134614E-02 0.27626075E+02</pdfrwt>
<pdfrwt beam="2">  1       -2 0.47469329E-03 0.27626075E+02</pdfrwt>
<totfact> 0.22919936E+06</totfact>
</mgrwt>
</event>
<event>
 4    1  0.3704929E-001  0.6630866E+02  0.7818608E-02  0.1373115E+00
         -2   -1    0    0    0  501 -0.00000000000E+00  0.00000000000E+00  0.15828787226E+02  0.15828787440E+02  0.26000000000E-02 0. -1.
          2   -1    0    0  501    0  0.00000000000E+00 -0.00000000000E+00 -0.69443699707E+02  0.69443699756E+02  0.26000000000E-02 0.  1.
        -13    1    1    2    0    0  0.28007461216E+02 -0.14514478677E+00 -0.49622855082E+02  0.56981381782E+02  0.10570000000E+00 0.  1.
         13    1    1    2    0    0 -0.28007461216E+02  0.14514478677E+00 -0.39920573989E+01  0.28291105414E+02  0.10570000000E+00 0. -1.
<mgrwt>
<rscale>  0 0.66308659E+02</rscale>
<asrwt>0</asrwt>
<pdfrwt beam="2">  1        2 0.10683646E-01 0.66308659E+02</pdfrwt>
<pdfrwt beam="1">  1       -2 0.24351981E-02 0.66308659E+02</pdfrwt>
<totfact> 0.26298237E+05</totfact>
</mgrwt>
</event>
<event>
 4    1  0.3704929E-001  0.8325845E+02  0.7818608E-02  0.1320051E+00
          2   -1    0    0  501    0  0.00000000000E+00  0.00000000000E+00  0.33812306095E+02  0.33812306195E+02  0.26000000000E-02 0. -1.
         -2   -1    0    0    0  501 -0.00000000000E+00 -0.00000000000E+00 -0.51253300585E+02  0.51253300651E+02  0.26000000000E-02 0.  1.
        -13    1    1    2    0    0  0.13978944222E+02 -0.26520697516E+02  0.20789334418E+02  0.36482405024E+02  0.10570000000E+00 0. -1.
         13    1    1    2    0    0 -0.13978944222E+02  0.26520697516E+02 -0.38230328908E+02  0.48583201821E+02  0.10570000000E+00 0.  1.
<mgrwt>
<rscale>  0 0.83258448E+02</rscale>
<asrwt>0</asrwt>
<pdfrwt beam="1">  1        2 0.52018933E-02 0.83258448E+02</pdfrwt>
<pdfrwt beam="2">  1       -2 0.78851232E-02 0.83258448E+02</pdfrwt>
<totfact> 0.11887041E+05</totfact>
</mgrwt>
</event>
<event>
 4    1  0.3704929E-001  0.2636867E+02  0.7818608E-02  0.1642087E+00
         -2   -1    0    0    0  501 -0.00000000000E+00  0.00000000000E+00  0.15849913247E+01  0.15849934572E+01  0.26000000000E-02 0.  1.
          2   -1    0    0  501    0  0.00000000000E+00 -0.00000000000E+00 -0.10967037876E+03  0.10967037879E+03  0.26000000000E-02 0. -1.
        -13    1    1    2    0    0  0.11185101372E+02 -0.61394365771E+01 -0.68046691598E+02  0.69232669919E+02  0.10570000000E+00 0.  1.
         13    1    1    2    0    0 -0.11185101372E+02  0.61394365771E+01 -0.40038695833E+02  0.42022702325E+02  0.10570000000E+00 0. -1.
<mgrwt>
<rscale>  0 0.26368672E+02</rscale>
<asrwt>0</asrwt>
<pdfrwt beam="2">  1        2 0.16872360E-01 0.26368672E+02</pdfrwt>
<pdfrwt beam="1">  1       -2 0.24384507E-03 0.26368672E+02</pdfrwt>
<totfact> 0.28880138E+06</totfact>
</mgrwt>
</event>
<event>
 4    1  0.3704929E-001  0.2212774E+02  0.7818608E-02  0.1706052E+00
         -2   -1    0    0    0  501 -0.00000000000E+00  0.00000000000E+00  0.34588894133E+01  0.34588903905E+01  0.26000000000E-02 0.  1.
          2   -1    0    0  501    0  0.00000000000E+00 -0.00000000000E+00 -0.35389750474E+02  0.35389750570E+02  0.26000000000E-02 0. -1.
        -13    1    1    2    0    0 -0.99180475335E+01 -0.41403713267E+01 -0.20573055059E+02  0.23211465023E+02  0.10570000000E+00 0.  1.
         13    1    1    2    0    0  0.99180475335E+01  0.41403713267E+01 -0.11357806002E+02  0.15637175937E+02  0.10570000000E+00 0. -1.
<mgrwt>
<rscale>  0 0.22127743E+02</rscale>
<asrwt>0</asrwt>
<pdfrwt beam="2">  1        2 0.54445768E-02 0.22127743E+02</pdfrwt>
<pdfrwt beam="1">  1       -2 0.53213694E-03 0.22127743E+02</pdfrwt>
<totfact> 0.35180254E+06</totfact>
</mgrwt>
</event>
<event>
 4    1  0.3704929E-001  0.2897364E+02  0.7818608E-02  0.1609719E+00
          2   -1    0    0  501    0  0.00000000000E+00  0.00000000000E+00  0.88983247191E+01  0.88983250990E+01  0.26000000000E-02 0. -1.
         -2   -1    0    0    0  501 -0.00000000000E+00 -0.00000000000E+00 -0.23585104975E+02  0.23585105118E+02  0.26000000000E-02 0.  1.
        -13    1    1    2    0    0 -0.91246585451E+01  0.80498513771E+01  0.14700092384E+01  0.12256900114E+02  0.10570000000E+00 0. -1.
         13    1    1    2    0    0  0.91246585451E+01 -0.80498513771E+01 -0.16156789494E+02  0.20226530103E+02  0.10570000000E+00 0.  1.
<mgrwt>
<rscale>  0 0.28973638E+02</rscale>
<asrwt>0</asrwt>
<pdfrwt beam="1">  1        2 0.13689731E-02 0.28973638E+02</pdfrwt>
<pdfrwt beam="2">  1       -2 0.36284777E-02 0.28973638E+02</pdfrwt>
<totfact> 0.16170776E+06</totfact>
</mgrwt>
</event>
<event>
 4    1  0.3704929E-001  0.3297710E+02  0.7818608E-02  0.1567335E+00
          2   -1    0    0  501    0  0.00000000000E+00  0.00000000000E+00  0.12945961586E+03  0.12945961589E+03  0.26000000000E-02 0. -1.
         -2   -1    0    0    0  501 -0.00000000000E+00 -0.00000000000E+00 -0.21000545180E+01  0.21000561275E+01  0.26000000000E-02 0.  1.
        -13    1    1    2    0    0 -0.15826385387E+02  0.21183385735E+01  0.47279725661E+02  0.49903361248E+02  0.10570000000E+00 0.  1.
         13    1    1    2    0    0  0.15826385387E+02 -0.21183385735E+01  0.80079835682E+02  0.81656310767E+02  0.10570000000E+00 0. -1.
<mgrwt>
<rscale>  0 0.32977105E+02</rscale>
<asrwt>0</asrwt>
<pdfrwt beam="1">  1        2 0.19916875E-01 0.32977105E+02</pdfrwt>
<pdfrwt beam="2">  1       -2 0.32308526E-03 0.32977105E+02</pdfrwt>
<totfact> 0.17841165E+06</totfact>
</mgrwt>
</event>
<event>
 4    1  0.3704929E-001  0.2553217E+02  0.7818608E-02  0.1653474E+00
          2   -1    0    0  501    0  0.00000000000E+00  0.00000000000E+00  0.18648942961E+02  0.18648943142E+02  0.26000000000E-02 0.  1.
         -2   -1    0    0    0  501 -0.00000000000E+00 -0.00000000000E+00 -0.87389917286E+01  0.87389921153E+01  0.26000000000E-02 0. -1.
        -13    1    1    2    0    0 -0.11000659402E+02 -0.28905730701E+01 -0.12621354495E+01  0.11444390693E+02  0.10570000000E+00 0.  1.
         13    1    1    2    0    0  0.11000659402E+02  0.28905730701E+01  0.11172086682E+02  0.15943544564E+02  0.10570000000E+00 0. -1.
<mgrwt>
<rscale>  0 0.25532173E+02</rscale>
<asrwt>0</asrwt>
<pdfrwt beam="1">  1        2 0.28690682E-02 0.25532173E+02</pdfrwt>
<pdfrwt beam="2">  1       -2 0.13444603E-02 0.25532173E+02</pdfrwt>
<totfact> 0.23564436E+06</totfact>
</mgrwt>
</event>
<event>
 4    1  0.3704929E-001  0.4932015E+02  0.7818608E-02  0.1449043E+00
          2   -1    0    0  501    0  0.00000000000E+00  0.00000000000E+00  0.27176858002E+02  0.27176858127E+02  0.26000000000E-02 0.  1.
         -2   -1    0    0    0  501 -0.00000000000E+00 -0.00000000000E+00 -0.22376362367E+02  0.22376362518E+02  0.26000000000E-02 0. -1.
        -13    1    1    2    0    0 -0.33573073407E+01 -0.23088535913E+02  0.10422720306E+02  0.25553791778E+02  0.10570000000E+00 0.  1.
         13    1    1    2    0    0  0.33573073407E+01  0.23088535913E+02 -0.56222246706E+01  0.23999428866E+02  0.10570000000E+00 0. -1.
<mgrwt>
<rscale>  0 0.49320147E+02</rscale>
<asrwt>0</asrwt>
<pdfrwt beam="1">  1        2 0.41810551E-02 0.49320147E+02</pdfrwt>
<pdfrwt beam="2">  1       -2 0.34425173E-02 0.49320147E+02</pdfrwt>
<totfact> 0.47897466E+05</totfact>
</mgrwt>
</event>
<event>
 4    1  0.3704929E-001  0.2219724E+02  0.7818608E-02  0.1704863E+00
          2   -1    0    0  501    0  0.00000000000E+00  0.00000000000E+00  0.33149614960E+02  0.33149615062E+02  0.26000000000E-02 0. -1.
         -2   -1    0    0    0  501 -0.00000000000E+00 -0.00000000000E+00 -0.37158595665E+01  0.37158604761E+01  0.26000000000E-02 0.  1.
        -13    1    1    2    0    0 -0.83483368346E+01 -0.72691919007E+01  0.16037492220E+02  0.19487129291E+02  0.10570000000E+00 0.  1.
         13    1    1    2    0    0  0.83483368346E+01  0.72691919007E+01  0.13396263174E+02  0.17378346248E+02  0.10570000000E+00 0. -1.
<mgrwt>
<rscale>  0 0.22197237E+02</rscale>
<asrwt>0</asrwt>
<pdfrwt beam="1">  1        2 0.50999409E-02 0.22197237E+02</pdfrwt>
<pdfrwt beam="2">  1       -2 0.57167078E-03 0.22197237E+02</pdfrwt>
<totfact> 0.34651943E+06</totfact>
</mgrwt>
</event>
<event>
 4    1  0.3704929E-001  0.2755815E+02  0.7818608E-02  0.1626763E+00
          2   -1    0    0  501    0  0.00000000000E+00  0.00000000000E+00  0.60308104093E+02  0.60308104149E+02  0.26000000000E-02 0.  1.
         -2   -1    0    0    0  501 -0.00000000000E+00 -0.00000000000E+00 -0.31482151652E+01  0.31482162388E+01  0.26000000000E-02 0. -1.
        -13    1    1    2    0    0  0.19744591814E+01  0.13509956748E+02  0.24312716219E+02  0.27884346197E+02  0.10570000000E+00 0. -1.
         13    1    1    2    0    0 -0.19744591814E+01 -0.13509956748E+02  0.32847172708E+02  0.35571974191E+02  0.10570000000E+00 0.  1.
<mgrwt>
<rscale>  0 0.27558151E+02</rscale>
<asrwt>0</asrwt>
<pdfrwt beam="1">  1        2 0.92781700E-02 0.27558151E+02</pdfrwt>
<pdfrwt beam="2">  1       -2 0.48434088E-03 0.27558151E+02</pdfrwt>
<totfact> 0.22948273E+06</totfact>
</mgrwt>
</event>
<event>
 4    1  0.3704929E-001  0.3750103E+02  0.7818608E-02  0.1527450E+00
          2   -1    0    0  501    0  0.00000000000E+00  0.00000000000E+00  0.24421880740E+02  0.24421880879E+02  0.26000000000E-02 0. -1.
         -2   -1    0    0    0  501 -0.00000000000E+00 -0.00000000000E+00 -0.14396184367E+02  0.14396184602E+02  0.26000000000E-02 0.  1.
        -13    1    1    2    0    0 -0.51863008842E+01  0.10029467302E+02  0.20507966535E+02  0.23411018669E+02  0.10570000000E+00 0. -1.
         13    1    1    2    0    0  0.51863008842E+01 -0.10029467302E+02 -0.10482270162E+02  0.15407046812E+02  0.10570000000E+00 0.  1.
<mgrwt>
<rscale>  0 0.37501035E+02</rscale>
<asrwt>0</asrwt>
<pdfrwt beam="1">  1        2 0.37572124E-02 0.37501035E+02</pdfrwt>
<pdfrwt beam="2">  1       -2 0.22147976E-02 0.37501035E+02</pdfrwt>
<totfact> 0.95239463E+05</totfact>
</mgrwt>
</event>
<event>
 4    1  0.3704929E-001  0.4269313E+02  0.7818608E-02  0.1489279E+00
         -2   -1    0    0    0  501 -0.00000000000E+00  0.00000000000E+00  0.15774245616E+02  0.15774245830E+02  0.26000000000E-02 0.  1.
          2   -1    0    0  501    0  0.00000000000E+00 -0.00000000000E+00 -0.28887322793E+02  0.28887322910E+02  0.26000000000E-02 0. -1.
        -13    1    1    2    0    0  0.12251129488E+02  0.62696598579E+01 -0.23626544918E+02  0.27342706628E+02  0.10570000000E+00 0. -1.
         13    1    1    2    0    0 -0.12251129488E+02 -0.62696598579E+01  0.10513467741E+02  0.17318862113E+02  0.10570000000E+00 0.  1.
<mgrwt>
<rscale>  0 0.42693125E+02</rscale>
<asrwt>0</asrwt>
<pdfrwt beam="2">  1        2 0.44442035E-02 0.42693125E+02</pdfrwt>
<pdfrwt beam="1">  1       -2 0.24268071E-02 0.42693125E+02</pdfrwt>
<totfact> 0.70210835E+05</totfact>
</mgrwt>
</event>
<event>
 4    1  0.3704929E-001  0.2132609E+02  0.7818608E-02  0.1720174E+00
         -2   -1    0    0    0  501 -0.00000000000E+00  0.00000000000E+00  0.67674190993E+02  0.67674191043E+02  0.26000000000E-02 0. -1.
          2   -1    0    0  501    0  0.00000000000E+00 -0.00000000000E+00 -0.16801151346E+01  0.16801171463E+01  0.26000000000E-02 0.  1.
        -13    1    1    2    0    0  0.98716179809E+01  0.39453049241E+01  0.35669017425E+02  0.37219675563E+02  0.10570000000E+00 0.  1.
         13    1    1    2    0    0 -0.98716179809E+01 -0.39453049241E+01  0.30325058433E+02  0.32134632625E+02  0.10570000000E+00 0. -1.
<mgrwt>
<rscale>  0 0.21326088E+02</rscale>
<asrwt>0</asrwt>
<pdfrwt beam="2">  1        2 0.25847937E-03 0.21326088E+02</pdfrwt>
<pdfrwt beam="1">  1       -2 0.10411416E-01 0.21326088E+02</pdfrwt>
<totfact> 0.28034964E+06</totfact>
</mgrwt>
</event>
<event>
 4    1  0.3704929E-001  0.2750949E+02  0.7818608E-02  0.1627371E+00
          2   -1    0    0  501    0  0.00000000000E+00  0.00000000000E+00  0.34779993556E+01  0.34780003274E+01  0.26000000000E-02 0. -1.
         -2   -1    0    0    0  501 -0.00000000000E+00 -0.00000000000E+00 -0.54397067065E+02  0.54397067127E+02  0.26000000000E-02 0.  1.
        -13    1    1    2    0    0  0.13295328050E+01 -0.13241938949E+02 -0.18151903718E+02  0.22508207074E+02  0.10570000000E+00 0. -1.
         13    1    1    2    0    0 -0.13295328050E+01  0.13241938949E+02 -0.32767163992E+02  0.35366860381E+02  0.10570000000E+00 0.  1.
<mgrwt>
<rscale>  0 0.27509489E+02</rscale>
<asrwt>0</asrwt>
<pdfrwt beam="1">  1        2 0.53507694E-03 0.27509489E+02</pdfrwt>
<pdfrwt beam="2">  1       -2 0.83687790E-02 0.27509489E+02</pdfrwt>
<totfact> 0.16398945E+06</totfact>
</mgrwt>
</event>
<event>
 4    1  0.3704929E-001  0.6294554E+02  0.7818608E-02  0.1385870E+00
         -2   -1    0    0    0  501 -0.00000000000E+00  0.00000000000E+00  0.15625391604E+02  0.15625391821E+02  0.26000000000E-02 0.  1.
          2   -1    0    0  501    0  0.00000000000E+00 -0.00000000000E+00 -0.63392671533E+02  0.63392671586E+02  0.26000000000E-02 0. -1.
        -13    1    1    2    0    0 -0.11607281214E+02 -0.16571481559E+02 -0.54147001874E+02  0.57803563581E+02  0.10570000000E+00 0. -1.
         13    1    1    2    0    0  0.11607281214E+02  0.16571481559E+02  0.63797219453E+01  0.21214499826E+02  0.10570000000E+00 0.  1.
<mgrwt>
<rscale>  0 0.62945542E+02</rscale>
<asrwt>0</asrwt>
<pdfrwt beam="2">  1        2 0.97527186E-02 0.62945542E+02</pdfrwt>
<pdfrwt beam="1">  1       -2 0.24039065E-02 0.62945542E+02</pdfrwt>
<totfact> 0.29556862E+05</totfact>
</mgrwt>
</event>
<event>
 4    1  0.3704929E-001  0.2754346E+02  0.7818608E-02  0.1626946E+00
         -2   -1    0    0    0  501 -0.00000000000E+00  0.00000000000E+00  0.21486861497E+01  0.21486877228E+01  0.26000000000E-02 0. -1.
          2   -1    0    0  501    0  0.00000000000E+00 -0.00000000000E+00 -0.88268112410E+02  0.88268112449E+02  0.26000000000E-02 0.  1.
        -13    1    1    2    0    0  0.73874237849E+01 -0.10946739347E+02 -0.55876628277E+02  0.57416146619E+02  0.10570000000E+00 0.  1.
         13    1    1    2    0    0 -0.73874237849E+01  0.10946739347E+02 -0.30242797984E+02  0.33000653552E+02  0.10570000000E+00 0. -1.
<mgrwt>
<rscale>  0 0.27543460E+02</rscale>
<asrwt>0</asrwt>
<pdfrwt beam="2">  1        2 0.13579707E-01 0.27543460E+02</pdfrwt>
<pdfrwt beam="1">  1       -2 0.33056729E-03 0.27543460E+02</pdfrwt>
<totfact> 0.24803320E+06</totfact>
</mgrwt>
</event>
<event>
 4    1  0.3704929E-001  0.2272604E+02  0.7818608E-02  0.1695990E+00
         -2   -1    0    0    0  501 -0.00000000000E+00  0.00000000000E+00  0.11331949616E+02  0.11331949915E+02  0.26000000000E-02 0. -1.
          2   -1    0    0  501    0  0.00000000000E+00 -0.00000000000E+00 -0.11394171149E+02  0.11394171445E+02  0.26000000000E-02 0.  1.
        -13    1    1    2    0    0  0.73016152579E+01  0.78638154258E+01  0.37043856961E+01  0.11352833316E+02  0.10570000000E+00 0. -1.
         13    1    1    2    0    0 -0.73016152579E+01 -0.78638154258E+01 -0.37666072284E+01  0.11373288044E+02  0.10570000000E+00 0.  1.
<mgrwt>
<rscale>  0 0.22726036E+02</rscale>
<asrwt>0</asrwt>
<pdfrwt beam="2">  1        2 0.17529495E-02 0.22726036E+02</pdfrwt>
<pdfrwt beam="1">  1       -2 0.17433769E-02 0.22726036E+02</pdfrwt>
<totfact> 0.29663009E+06</totfact>
</mgrwt>
</event>
<event>
 4    1  0.3704929E-001  0.7594888E+02  0.7818608E-02  0.1340958E+00
          2   -1    0    0  501    0  0.00000000000E+00  0.00000000000E+00  0.98805615798E+02  0.98805615832E+02  0.26000000000E-02 0. -1.
         -2   -1    0    0    0  501 -0.00000000000E+00 -0.00000000000E+00 -0.14594901491E+02  0.14594901723E+02  0.26000000000E-02 0.  1.
        -13    1    1    2    0    0 -0.52986132157E+01  0.20489800930E+02 -0.49725747794E+01  0.21740398262E+02  0.10570000000E+00 0.  1.
         13    1    1    2    0    0  0.52986132157E+01 -0.20489800930E+02  0.89183289086E+02  0.91660119293E+02  0.10570000000E+00 0. -1.
<mgrwt>
<rscale>  0 0.75948884E+02</rscale>
<asrwt>0</asrwt>
<pdfrwt beam="1">  1        2 0.15200865E-01 0.75948884E+02</pdfrwt>
<pdfrwt beam="2">  1       -2 0.22453694E-02 0.75948884E+02</pdfrwt>
<totfact> 0.20082152E+05</totfact>
</mgrwt>
</event>
<event>
 4    1  0.3704929E-001  0.2224049E+02  0.7818608E-02  0.1704126E+00
          2   -1    0    0  501    0  0.00000000000E+00  0.00000000000E+00  0.43044616078E+02  0.43044616156E+02  0.26000000000E-02 0. -1.
         -2   -1    0    0    0  501 -0.00000000000E+00 -0.00000000000E+00 -0.28728294585E+01  0.28728306351E+01  0.26000000000E-02 0.  1.
        -13    1    1    2    0    0  0.85810978542E+01 -0.60549191537E+01  0.27629810752E+02  0.29558668796E+02  0.10570000000E+00 0. -1.
         13    1    1    2    0    0 -0.85810978542E+01  0.60549191537E+01  0.12541975868E+02  0.16358777995E+02  0.10570000000E+00 0.  1.
<mgrwt>
<rscale>  0 0.22240492E+02</rscale>
<asrwt>0</asrwt>
<pdfrwt beam="1">  1        2 0.66222489E-02 0.22240492E+02</pdfrwt>
<pdfrwt beam="2">  1       -2 0.44197385E-03 0.22240492E+02</pdfrwt>
<totfact> 0.35687486E+06</totfact>
</mgrwt>
</event>
<event>
 4    1  0.3704929E-001  0.2425814E+02  0.7818608E-02  0.1671892E+00
          2   -1    0    0  501    0  0.00000000000E+00  0.00000000000E+00  0.87127895002E+01  0.87127898881E+01  0.26000000000E-02 0. -1.
         -2   -1    0    0    0  501 -0.00000000000E+00 -0.00000000000E+00 -0.16884874727E+02  0.16884874927E+02  0.26000000000E-02 0.  1.
        -13    1    1    2    0    0 -0.34038494229E+01 -0.10190210293E+02 -0.10025027356E+02  0.14694860417E+02  0.10570000000E+00 0.  1.
         13    1    1    2    0    0  0.34038494229E+01  0.10190210293E+02  0.18529421289E+01  0.10902804398E+02  0.10570000000E+00 0. -1.
<mgrwt>
<rscale>  0 0.24258142E+02</rscale>
<asrwt>0</asrwt>
<pdfrwt beam="1">  1        2 0.13404292E-02 0.24258142E+02</pdfrwt>
<pdfrwt beam="2">  1       -2 0.25976731E-02 0.24258142E+02</pdfrwt>
<totfact> 0.24863224E+06</totfact>
</mgrwt>
</event>
<event>
 4    1  0.3704929E-001  0.3167046E+02  0.7818608E-02  0.1580325E+00
          2   -1    0    0  501    0  0.00000000000E+00  0.00000000000E+00  0.72150640258E+02  0.72150640305E+02  0.26000000000E-02 0.  1.
         -2   -1    0    0    0  501 -0.00000000000E+00 -0.00000000000E+00 -0.34754303971E+01  0.34754313697E+01  0.26000000000E-02 0. -1.
        -13    1    1    2    0    0 -0.11233757118E+02 -0.94560051697E+01  0.48490867915E+02  0.50665459402E+02  0.10570000000E+00 0.  1.
         13    1    1    2    0    0  0.11233757118E+02  0.94560051697E+01  0.20184341946E+02  0.24960612273E+02  0.10570000000E+00 0. -1.
<mgrwt>
<rscale>  0 0.31670464E+02</rscale>
<asrwt>0</asrwt>
<pdfrwt beam="1">  1        2 0.11100099E-01 0.31670464E+02</pdfrwt>
<pdfrwt beam="2">  1       -2 0.53468166E-03 0.31670464E+02</pdfrwt>
<totfact> 0.17087225E+06</totfact>
</mgrwt>
</event>
<event>
 4    1  0.3704929E-001  0.2644028E+02  0.7818608E-02  0.1641137E+00
         -2   -1    0    0    0  501 -0.00000000000E+00  0.00000000000E+00  0.32625529049E+01  0.32625539409E+01  0.26000000000E-02 0. -1.
          2   -1    0    0  501    0  0.00000000000E+00 -0.00000000000E+00 -0.53569110309E+02  0.53569110372E+02  0.26000000000E-02 0.  1.
        -13    1    1    2    0    0  0.10513884068E+02  0.79676480714E+01 -0.23309593035E+02  0.26783828590E+02  0.10570000000E+00 0. -1.
         13    1    1    2    0    0 -0.10513884068E+02 -0.79676480714E+01 -0.26996964368E+02  0.30047835722E+02  0.10570000000E+00 0.  1.
<mgrwt>
<rscale>  0 0.26440279E+02</rscale>
<asrwt>0</asrwt>
<pdfrwt beam="2">  1        2 0.82414011E-02 0.26440279E+02</pdfrwt>
<pdfrwt beam="1">  1       -2 0.50193134E-03 0.26440279E+02</pdfrwt>
<totfact> 0.24770015E+06</totfact>
</mgrwt>
</event>
<event>
 4    1  0.3704929E-001  0.2982851E+02  0.7818608E-02  0.1599992E+00
          2   -1    0    0  501    0  0.00000000000E+00  0.00000000000E+00  0.47498771631E+02  0.47498771703E+02  0.26000000000E-02 0.  1.
         -2   -1    0    0    0  501 -0.00000000000E+00 -0.00000000000E+00 -0.46829625128E+01  0.46829632345E+01  0.26000000000E-02 0. -1.
        -13    1    1    2    0    0 -0.30167265953E+01 -0.12570201643E+02  0.34418626223E+02  0.36766338031E+02  0.10570000000E+00 0.  1.
         13    1    1    2    0    0  0.30167265953E+01  0.12570201643E+02  0.83971828960E+01  0.15415396906E+02  0.10570000000E+00 0. -1.
<mgrwt>
<rscale>  0 0.29828509E+02</rscale>
<asrwt>0</asrwt>
<pdfrwt beam="1">  1        2 0.73075038E-02 0.29828509E+02</pdfrwt>
<pdfrwt beam="2">  1       -2 0.72045579E-03 0.29828509E+02</pdfrwt>
<totfact> 0.18281169E+06</totfact>
</mgrwt>
</event>
<event>
 4    1  0.3704929E-001  0.2452017E+02  0.7818608E-02  0.1667991E+00
         -2   -1    0    0    0  501 -0.00000000000E+00  0.00000000000E+00  0.95991880403E+02  0.95991880438E+02  0.26000000000E-02 0. -1.
          2   -1    0    0  501    0  0.00000000000E+00 -0.00000000000E+00 -0.15658577965E+01  0.15658599551E+01  0.26000000000E-02 0.  1.
        -13    1    1    2    0    0 -0.11946865078E+02  0.14862839767E+01  0.56425973607E+02  0.57696085615E+02  0.10570000000E+00 0. -1.
         13    1    1    2    0    0  0.11946865078E+02 -0.14862839767E+01  0.38000048999E+02  0.39861654778E+02  0.10570000000E+00 0.  1.
<mgrwt>
<rscale>  0 0.24520175E+02</rscale>
<asrwt>0</asrwt>
<pdfrwt beam="2">  1        2 0.24090138E-03 0.24520175E+02</pdfrwt>
<pdfrwt beam="1">  1       -2 0.14767981E-01 0.24520175E+02</pdfrwt>
<totfact> 0.19105134E+06</totfact>
</mgrwt>
</event>
<event>
 4    1  0.3704929E-001  0.2694616E+02  0.7818608E-02  0.1634526E+00
         -2   -1    0    0    0  501 -0.00000000000E+00  0.00000000000E+00  0.30351847199E+01  0.30351858335E+01  0.26000000000E-02 0. -1.
          2   -1    0    0  501    0  0.00000000000E+00 -0.00000000000E+00 -0.59806530956E+02  0.59806531013E+02  0.26000000000E-02 0.  1.
        -13    1    1    2    0    0 -0.57050657314E+01 -0.83037070522E+01 -0.49246547835E+02  0.50266618863E+02  0.10570000000E+00 0.  1.
         13    1    1    2    0    0  0.57050657314E+01  0.83037070522E+01 -0.75247984016E+01  0.12575097983E+02  0.10570000000E+00 0. -1.
<mgrwt>
<rscale>  0 0.26946162E+02</rscale>
<asrwt>0</asrwt>
<pdfrwt beam="2">  1        2 0.92010040E-02 0.26946162E+02</pdfrwt>
<pdfrwt beam="1">  1       -2 0.46695163E-03 0.26946162E+02</pdfrwt>
<totfact> 0.24150809E+06</totfact>
</mgrwt>
</event>
<event>
 4    1  0.3704929E-001  0.2259608E+02  0.7818608E-02  0.1698142E+00
         -2   -1    0    0    0  501 -0.00000000000E+00  0.00000000000E+00  0.10121681917E+02  0.10121682251E+02  0.26000000000E-02 0. -1.
          2   -1    0    0  501    0  0.00000000000E+00 -0.00000000000E+00 -0.12611116785E+02  0.12611117053E+02  0.26000000000E-02 0.  1.
        -13    1    1    2    0    0  0.50214665096E+01  0.99347243766E+01  0.69585800139E+00  0.11153890137E+02  0.10570000000E+00 0.  1.
         13    1    1    2    0    0 -0.50214665096E+01 -0.99347243766E+01 -0.31852928694E+01  0.11578909167E+02  0.10570000000E+00 0. -1.
<mgrwt>
<rscale>  0 0.22596081E+02</rscale>
<asrwt>0</asrwt>
<pdfrwt beam="2">  1        2 0.19401719E-02 0.22596081E+02</pdfrwt>
<pdfrwt beam="1">  1       -2 0.15571819E-02 0.22596081E+02</pdfrwt>
<totfact> 0.30312591E+06</totfact>
</mgrwt>
</event>
<event>
 4    1  0.3704929E-001  0.5866633E+02  0.7818608E-02  0.1403515E+00
          2   -1    0    0  501    0  0.00000000000E+00  0.00000000000E+00  0.96916172181E+02  0.96916172216E+02  0.26000000000E-02 0. -1.
         -2   -1    0    0    0  501 -0.00000000000E+00 -0.00000000000E+00 -0.88781320300E+01  0.88781324107E+01  0.26000000000E-02 0.  1.
        -13    1    1    2    0    0  0.20362030622E+02  0.10855542643E+02  0.76676999560E+02  0.80073894192E+02  0.10570000000E+00 0. -1.
         13    1    1    2    0    0 -0.20362030622E+02 -0.10855542643E+02  0.11361040591E+02  0.25720410434E+02  0.10570000000E+00 0.  1.
<mgrwt>
<rscale>  0 0.58666331E+02</rscale>
<asrwt>0</asrwt>
<pdfrwt beam="1">  1        2 0.14910180E-01 0.58666331E+02</pdfrwt>
<pdfrwt beam="2">  1       -2 0.13658666E-02 0.58666331E+02</pdfrwt>
<totfact> 0.39435560E+05</totfact>
</mgrwt>
</event>
<event>
 4    1  0.3704929E-001  0.4487867E+02  0.7818608E-02  0.1475100E+00
          2   -1    0    0  501    0  0.00000000000E+00  0.00000000000E+00  0.36819249575E+02  0.36819249667E+02  0.26000000000E-02 0. -1.
         -2   -1    0    0    0  501 -0.00000000000E+00 -0.00000000000E+00 -0.13675558900E+02  0.13675559147E+02  0.26000000000E-02 0.  1.
        -13    1    1    2    0    0  0.15732173649E+02 -0.32856069391E+00 -0.64270048799E+01  0.16997847042E+02  0.10570000000E+00 0.  1.
         13    1    1    2    0    0 -0.15732173649E+02  0.32856069391E+00  0.29570695555E+02  0.33496961772E+02  0.10570000000E+00 0. -1.
<mgrwt>
<rscale>  0 0.44878673E+02</rscale>
<asrwt>0</asrwt>
<pdfrwt beam="1">  1        2 0.56644998E-02 0.44878673E+02</pdfrwt>
<pdfrwt beam="2">  1       -2 0.21039322E-02 0.44878673E+02</pdfrwt>
<totfact> 0.64140638E+05</totfact>
</mgrwt>
</event>
<event>
 4    1  0.3704929E-001  0.5488347E+02  0.7818608E-02  0.1420651E+00
         -2   -1    0    0    0  501 -0.00000000000E+00  0.00000000000E+00  0.40581956833E+01  0.40581965162E+01  0.26000000000E-02 0.  1.
          2   -1    0    0  501    0  0.00000000000E+00 -0.00000000000E+00 -0.18556248510E+03  0.18556248512E+03  0.26000000000E-02 0. -1.
        -13    1    1    2    0    0 -0.26671218569E+02  0.24345653580E+01 -0.11141180984E+03  0.11458570396E+03  0.10570000000E+00 0. -1.
         13    1    1    2    0    0  0.26671218569E+02 -0.24345653580E+01 -0.70092479581E+02  0.75034977675E+02  0.10570000000E+00 0.  1.
<mgrwt>
<rscale>  0 0.54883475E+02</rscale>
<asrwt>0</asrwt>
<pdfrwt beam="2">  1        2 0.28548068E-01 0.54883475E+02</pdfrwt>
<pdfrwt beam="1">  1       -2 0.62433801E-03 0.54883475E+02</pdfrwt>
<totfact> 0.56784660E+05</totfact>
</mgrwt>
</event>
<event>
 4    1  0.3704929E-001  0.3366317E+02  0.7818608E-02  0.1560803E+00
         -2   -1    0    0    0  501 -0.00000000000E+00  0.00000000000E+00  0.21398755677E+02  0.21398755835E+02  0.26000000000E-02 0. -1.
          2   -1    0    0  501    0  0.00000000000E+00 -0.00000000000E+00 -0.13239194539E+02  0.13239194795E+02  0.26000000000E-02 0.  1.
        -13    1    1    2    0    0 -0.95710720127E+01  0.11953234164E+02  0.11268198149E+02  0.19012329906E+02  0.10570000000E+00 0. -1.
         13    1    1    2    0    0  0.95710720127E+01 -0.11953234164E+02 -0.31086370112E+01  0.15625620724E+02  0.10570000000E+00 0.  1.
<mgrwt>
<rscale>  0 0.33663173E+02</rscale>
<asrwt>0</asrwt>
<pdfrwt beam="2">  1        2 0.20367992E-02 0.33663173E+02</pdfrwt>
<pdfrwt beam="1">  1       -2 0.32921163E-02 0.33663173E+02</pdfrwt>
<totfact> 0.11609327E+06</totfact>
</mgrwt>
</event>
<event>
 4    1  0.3704929E-001  0.4599361E+02  0.7818608E-02  0.1468232E+00
          2   -1    0    0  501    0  0.00000000000E+00  0.00000000000E+00  0.23523456763E+02  0.23523456906E+02  0.26000000000E-02 0.  1.
         -2   -1    0    0    0  501 -0.00000000000E+00 -0.00000000000E+00 -0.22481945468E+02  0.22481945618E+02  0.26000000000E-02 0. -1.
        -13    1    1    2    0    0 -0.65780711495E+01  0.21377197584E+02 -0.48272316722E+01  0.22881628760E+02  0.10570000000E+00 0. -1.
         13    1    1    2    0    0  0.65780711495E+01 -0.21377197584E+02  0.58687429673E+01  0.23123773764E+02  0.10570000000E+00 0.  1.
<mgrwt>
<rscale>  0 0.45993612E+02</rscale>
<asrwt>0</asrwt>
<pdfrwt beam="1">  1        2 0.36189934E-02 0.45993612E+02</pdfrwt>
<pdfrwt beam="2">  1       -2 0.34587609E-02 0.45993612E+02</pdfrwt>
<totfact> 0.56237069E+05</totfact>
</mgrwt>
</event>
<event>
 4    1  0.3704929E-001  0.4685717E+02  0.7818608E-02  0.1463070E+00
         -2   -1    0    0    0  501 -0.00000000000E+00  0.00000000000E+00  0.34459232160E+02  0.34459232258E+02  0.26000000000E-02 0. -1.
          2   -1    0    0  501    0  0.00000000000E+00 -0.00000000000E+00 -0.15928925717E+02  0.15928925929E+02  0.26000000000E-02 0.  1.
        -13    1    1    2    0    0  0.12465015399E+02 -0.93140673114E+01 -0.95692146186E+01  0.18267717419E+02  0.10570000000E+00 0.  1.
         13    1    1    2    0    0 -0.12465015399E+02  0.93140673114E+01  0.28099521062E+02  0.32120440769E+02  0.10570000000E+00 0. -1.
<mgrwt>
<rscale>  0 0.46857168E+02</rscale>
<asrwt>0</asrwt>
<pdfrwt beam="2">  1        2 0.24506040E-02 0.46857168E+02</pdfrwt>
<pdfrwt beam="1">  1       -2 0.53014204E-02 0.46857168E+02</pdfrwt>
<totfact> 0.50545165E+05</totfact>
</mgrwt>
</event>
<event>
 4    1  0.3704929E-001  0.2816868E+02  0.7818608E-02  0.1619261E+00
          2   -1    0    0  501    0  0.00000000000E+00  0.00000000000E+00  0.91666516769E+02  0.91666516806E+02  0.26000000000E-02 0. -1.
         -2   -1    0    0    0  501 -0.00000000000E+00 -0.00000000000E+00 -0.21640235932E+01  0.21640251551E+01  0.26000000000E-02 0.  1.
        -13    1    1    2    0    0 -0.24832271687E+00 -0.12198002334E+02  0.21314352959E+02  0.24559432804E+02  0.10570000000E+00 0.  1.
         13    1    1    2    0    0  0.24832271687E+00  0.12198002334E+02  0.68188140217E+02  0.69271109157E+02  0.10570000000E+00 0. -1.
<mgrwt>
<rscale>  0 0.28168676E+02</rscale>
<asrwt>0</asrwt>
<pdfrwt beam="1">  1        2 0.14102541E-01 0.28168676E+02</pdfrwt>
<pdfrwt beam="2">  1       -2 0.33292683E-03 0.28168676E+02</pdfrwt>
<totfact> 0.23737985E+06</totfact>
</mgrwt>
</event>
<event>
 4    1  0.3704929E-001  0.2984025E+02  0.7818608E-02  0.1599861E+00
         -2   -1    0    0    0  501 -0.00000000000E+00  0.00000000000E+00  0.11480096603E+02  0.11480096897E+02  0.26000000000E-02 0. -1.
          2   -1    0    0  501    0  0.00000000000E+00 -0.00000000000E+00 -0.19390966795E+02  0.19390966969E+02  0.26000000000E-02 0.  1.
        -13    1    1    2    0    0 -0.14114997246E+02 -0.47816023312E+01 -0.46885312291E+01  0.15623391619E+02  0.10570000000E+00 0. -1.
         13    1    1    2    0    0  0.14114997246E+02  0.47816023312E+01 -0.32223389630E+01  0.15247672248E+02  0.10570000000E+00 0.  1.
<mgrwt>
<rscale>  0 0.29840253E+02</rscale>
<asrwt>0</asrwt>
<pdfrwt beam="2">  1        2 0.29832257E-02 0.29840253E+02</pdfrwt>
<pdfrwt beam="1">  1       -2 0.17661688E-02 0.29840253E+02</pdfrwt>
<totfact> 0.16290680E+06</totfact>
</mgrwt>
</event>
<event>
 4    1  0.3704929E-001  0.3704476E+02  0.7818608E-02  0.1531158E+00
          2   -1    0    0  501    0  0.00000000000E+00  0.00000000000E+00  0.26733555516E+02  0.26733555643E+02  0.26000000000E-02 0.  1.
         -2   -1    0    0    0  501 -0.00000000000E+00 -0.00000000000E+00 -0.12833254115E+02  0.12833254378E+02  0.26000000000E-02 0. -1.
        -13    1    1    2    0    0 -0.12879924677E+01  0.12115253422E+02 -0.79505989233E+01  0.14548590509E+02  0.10570000000E+00 0. -1.
         13    1    1    2    0    0  0.12879924677E+01 -0.12115253422E+02  0.21850900325E+02  0.25018219512E+02  0.10570000000E+00 0.  1.
<mgrwt>
<rscale>  0 0.37044758E+02</rscale>
<asrwt>0</asrwt>
<pdfrwt beam="1">  1        2 0.41128547E-02 0.37044758E+02</pdfrwt>
<pdfrwt beam="2">  1       -2 0.19743468E-02 0.37044758E+02</pdfrwt>
<totfact> 0.99366764E+05</totfact>
</mgrwt>
</event>
<event>
 4    1  0.3704929E-001  0.7995596E+02  0.7818608E-02  0.1329176E+00
         -2   -1    0    0    0  501 -0.00000000000E+00  0.00000000000E+00  0.15619631431E+02  0.15619631647E+02  0.26000000000E-02 0.  1.
          2   -1    0    0  501    0  0.00000000000E+00 -0.00000000000E+00 -0.10232244437E+03  0.10232244441E+03  0.26000000000E-02 0. -1.
        -13    1    1    2    0    0  0.34375488900E+01  0.20302046285E+02  0.71956616522E+01  0.21812348449E+02  0.10570000000E+00 0.  1.
         13    1    1    2    0    0 -0.34375488900E+01 -0.20302046285E+02 -0.93898474594E+02  0.96129727604E+02  0.10570000000E+00 0. -1.
<mgrwt>
<rscale>  0 0.79955960E+02</rscale>
<asrwt>0</asrwt>
<pdfrwt beam="2">  1        2 0.15741914E-01 0.79955960E+02</pdfrwt>
<pdfrwt beam="1">  1       -2 0.24030203E-02 0.79955960E+02</pdfrwt>
<totfact> 0.17664874E+05</totfact>
</mgrwt>
</event>
<event>
 4    1  0.3704929E-001  0.2090350E+02  0.7818608E-02  0.1727936E+00
          2   -1    0    0  501    0  0.00000000000E+00  0.00000000000E+00  0.38679696452E+02  0.38679696539E+02  0.26000000000E-02 0.  1.
         -2   -1    0    0    0  501 -0.00000000000E+00 -0.00000000000E+00 -0.28241971509E+01  0.28241983477E+01  0.26000000000E-02 0. -1.
        -13    1    1    2    0    0 -0.73312411307E+01 -0.74410486518E+01  0.17264339872E+02  0.20178823188E+02  0.10570000000E+00 0.  1.
         13    1    1    2    0    0  0.73312411307E+01  0.74410486518E+01  0.18591159429E+02  0.21325071699E+02  0.10570000000E+00 0. -1.
<mgrwt>
<rscale>  0 0.20903504E+02</rscale>
<asrwt>0</asrwt>
<pdfrwt beam="1">  1        2 0.59507225E-02 0.20903504E+02</pdfrwt>
<pdfrwt beam="2">  1       -2 0.43449198E-03 0.20903504E+02</pdfrwt>
<totfact> 0.40479231E+06</totfact>
</mgrwt>
</event>
<event>
 4    1  0.3704929E-001  0.3064881E+02  0.7818608E-02  0.1591026E+00
          2   -1    0    0  501    0  0.00000000000E+00  0.00000000000E+00  0.41343978736E+01  0.41343986911E+01  0.26000000000E-02 0.  1.
         -2   -1    0    0    0  501 -0.00000000000E+00 -0.00000000000E+00 -0.56800879556E+02  0.56800879616E+02  0.26000000000E-02 0. -1.
        -13    1    1    2    0    0 -0.10681323550E+02  0.94436656057E+01 -0.15165275798E+02  0.20815144856E+02  0.10570000000E+00 0.  1.
         13    1    1    2    0    0  0.10681323550E+02 -0.94436656057E+01 -0.37501205884E+02  0.40120133451E+02  0.10570000000E+00 0. -1.
<mgrwt>
<rscale>  0 0.30648815E+02</rscale>
<asrwt>0</asrwt>
<pdfrwt beam="1">  1        2 0.63606132E-03 0.30648815E+02</pdfrwt>
<pdfrwt beam="2">  1       -2 0.87385964E-02 0.30648815E+02</pdfrwt>
<totfact> 0.12700798E+06</totfact>
</mgrwt>
</event>
<event>
 4    1  0.3704929E-001  0.2374085E+02  0.7818608E-02  0.1679775E+00
         -2   -1    0    0    0  501 -0.00000000000E+00  0.00000000000E+00  0.49533729184E+02  0.49533729253E+02  0.26000000000E-02 0. -1.
          2   -1    0    0  501    0  0.00000000000E+00 -0.00000000000E+00 -0.28446675188E+01  0.28446687069E+01  0.26000000000E-02 0.  1.
        -13    1    1    2    0    0 -0.86960456198E+01 -0.79904432991E+01  0.20708579009E+02  0.23839563977E+02  0.10570000000E+00 0. -1.
         13    1    1    2    0    0  0.86960456198E+01  0.79904432991E+01  0.25980482656E+02  0.28538833982E+02  0.10570000000E+00 0.  1.
<mgrwt>
<rscale>  0 0.23740853E+02</rscale>
<asrwt>0</asrwt>
<pdfrwt beam="2">  1        2 0.43764126E-03 0.23740853E+02</pdfrwt>
<pdfrwt beam="1">  1       -2 0.76205738E-02 0.23740853E+02</pdfrwt>
<totfact> 0.23218461E+06</totfact>
</mgrwt>
</event>
<event>
 4    1  0.3704929E-001  0.2230819E+02  0.7818608E-02  0.1702976E+00
          2   -1    0    0  501    0  0.00000000000E+00  0.00000000000E+00  0.25029059034E+02  0.25029059169E+02  0.26000000000E-02 0. -1.
         -2   -1    0    0    0  501 -0.00000000000E+00 -0.00000000000E+00 -0.49707744657E+01  0.49707751457E+01  0.26000000000E-02 0.  1.
        -13    1    1    2    0    0 -0.42551255073E+01  0.10266934137E+02  0.87628827566E+01  0.14153279350E+02  0.10570000000E+00 0. -1.
         13    1    1    2    0    0  0.42551255073E+01 -0.10266934137E+02  0.11295401811E+02  0.15846554964E+02  0.10570000000E+00 0.  1.
<mgrwt>
<rscale>  0 0.22308189E+02</rscale>
<asrwt>0</asrwt>
<pdfrwt beam="1">  1        2 0.38506246E-02 0.22308189E+02</pdfrwt>
<pdfrwt beam="2">  1       -2 0.76473459E-03 0.22308189E+02</pdfrwt>
<totfact> 0.33208813E+06</totfact>
</mgrwt>
</event>
<event>
 4    1  0.3704929E-001  0.3531775E+02  0.7818608E-02  0.1545797E+00
          2   -1    0    0  501    0  0.00000000000E+00  0.00000000000E+00  0.56558270340E+02  0.56558270399E+02  0.26000000000E-02 0.  1.
         -2   -1    0    0    0  501 -0.00000000000E+00 -0.00000000000E+00 -0.55135316727E+01  0.55135322858E+01  0.26000000000E-02 0. -1.
        -13    1    1    2    0    0  0.84174487259E+01  0.13668066013E+02  0.12588710521E+02  0.20399908741E+02  0.10570000000E+00 0. -1.
         13    1    1    2    0    0 -0.84174487259E+01 -0.13668066013E+02  0.38456028146E+02  0.41671893944E+02  0.10570000000E+00 0.  1.
<mgrwt>
<rscale>  0 0.35317748E+02</rscale>
<asrwt>0</asrwt>
<pdfrwt beam="1">  1        2 0.87012727E-02 0.35317748E+02</pdfrwt>
<pdfrwt beam="2">  1       -2 0.84823567E-03 0.35317748E+02</pdfrwt>
<totfact> 0.12534476E+06</totfact>
</mgrwt>
</event>
<event>
 4    1  0.3704929E-001  0.4055164E+02  0.7818608E-02  0.1504191E+00
          2   -1    0    0  501    0  0.00000000000E+00  0.00000000000E+00  0.34537464982E+01  0.34537474768E+01  0.26000000000E-02 0.  1.
         -2   -1    0    0    0  501 -0.00000000000E+00 -0.00000000000E+00 -0.11903271547E+03  0.11903271550E+03  0.26000000000E-02 0. -1.
        -13    1    1    2    0    0  0.18637915923E+02 -0.78588804131E+01 -0.53556676888E+02  0.57249128579E+02  0.10570000000E+00 0.  1.
         13    1    1    2    0    0 -0.18637915923E+02  0.78588804131E+01 -0.62022292082E+02  0.65237334395E+02  0.10570000000E+00 0. -1.
<mgrwt>
<rscale>  0 0.40551640E+02</rscale>
<asrwt>0</asrwt>
<pdfrwt beam="1">  1        2 0.53134578E-03 0.40551640E+02</pdfrwt>
<pdfrwt beam="2">  1       -2 0.18312722E-01 0.40551640E+02</pdfrwt>
<totfact> 0.55972410E+05</totfact>
</mgrwt>
</event>
<event>
 4    1  0.3704929E-001  0.8303471E+02  0.7818608E-02  0.1320653E+00
         -2   -1    0    0    0  501 -0.00000000000E+00  0.00000000000E+00  0.25441486418E+02  0.25441486551E+02  0.26000000000E-02 0.  1.
          2   -1    0    0  501    0  0.00000000000E+00 -0.00000000000E+00 -0.67751176212E+02  0.67751176262E+02  0.26000000000E-02 0. -1.
        -13    1    1    2    0    0 -0.34349912505E+02  0.67833409503E+01 -0.46194444292E+02  0.57964368879E+02  0.10570000000E+00 0. -1.
         13    1    1    2    0    0  0.34349912505E+02 -0.67833409503E+01  0.38847544988E+01  0.35228293935E+02  0.10570000000E+00 0.  1.
<mgrwt>
<rscale>  0 0.83034707E+02</rscale>
<asrwt>0</asrwt>
<pdfrwt beam="2">  1        2 0.10423258E-01 0.83034707E+02</pdfrwt>
<pdfrwt beam="1">  1       -2 0.39140749E-02 0.83034707E+02</pdfrwt>
<totfact> 0.14216254E+05</totfact>
</mgrwt>
</event>
<event>
 4    1  0.3704929E-001  0.3648201E+02  0.7818608E-02  0.1535820E+00
          2   -1    0    0  501    0  0.00000000000E+00  0.00000000000E+00  0.31904646857E+02  0.31904646963E+02  0.26000000000E-02 0.  1.
         -2   -1    0    0    0  501 -0.00000000000E+00 -0.00000000000E+00 -0.10429020238E+02  0.10429020562E+02  0.26000000000E-02 0. -1.
        -13    1    1    2    0    0 -0.16539992451E+02 -0.48487502735E+01  0.38101938144E+01  0.17652492144E+02  0.10570000000E+00 0.  1.
         13    1    1    2    0    0  0.16539992451E+02  0.48487502735E+01  0.17665432805E+02  0.24681175381E+02  0.10570000000E+00 0. -1.
<mgrwt>
<rscale>  0 0.36482007E+02</rscale>
<asrwt>0</asrwt>
<pdfrwt beam="1">  1        2 0.49084073E-02 0.36482007E+02</pdfrwt>
<pdfrwt beam="2">  1       -2 0.16044647E-02 0.36482007E+02</pdfrwt>
<totfact> 0.10571538E+06</totfact>
</mgrwt>
</event>
<event>
 4    1  0.3704929E-001  0.2209885E+02  0.7818608E-02  0.1706548E+00
          2   -1    0    0  501    0  0.00000000000E+00  0.00000000000E+00  0.43695978985E+02  0.43695979062E+02  0.26000000000E-02 0. -1.
         -2   -1    0    0    0  501 -0.00000000000E+00 -0.00000000000E+00 -0.27940727592E+01  0.27940739689E+01  0.26000000000E-02 0.  1.
        -13    1    1    2    0    0 -0.85341176165E+01  0.55888207349E+01  0.11522470570E+02  0.15389755724E+02  0.10570000000E+00 0.  1.
         13    1    1    2    0    0  0.85341176165E+01 -0.55888207349E+01  0.29379435655E+02  0.31100297307E+02  0.10570000000E+00 0. -1.
<mgrwt>
<rscale>  0 0.22098848E+02</rscale>
<asrwt>0</asrwt>
<pdfrwt beam="1">  1        2 0.67224582E-02 0.22098848E+02</pdfrwt>
<pdfrwt beam="2">  1       -2 0.42985746E-03 0.22098848E+02</pdfrwt>
<totfact> 0.36286385E+06</totfact>
</mgrwt>
</event>
<event>
 4    1  0.3704929E-001  0.2579919E+02  0.7818608E-02  0.1649781E+00
          2   -1    0    0  501    0  0.00000000000E+00  0.00000000000E+00  0.19500379048E+02  0.19500379221E+02  0.26000000000E-02 0.  1.
         -2   -1    0    0    0  501 -0.00000000000E+00 -0.00000000000E+00 -0.85331458347E+01  0.85331462308E+01  0.26000000000E-02 0. -1.
        -13    1    1    2    0    0 -0.62644516565E+01 -0.90248358110E+01 -0.18618152757E+01  0.11143094031E+02  0.10570000000E+00 0. -1.
         13    1    1    2    0    0  0.62644516565E+01  0.90248358110E+01  0.12829048489E+02  0.16890431421E+02  0.10570000000E+00 0.  1.
<mgrwt>
<rscale>  0 0.25799193E+02</rscale>
<asrwt>0</asrwt>
<pdfrwt beam="1">  1        2 0.30000583E-02 0.25799193E+02</pdfrwt>
<pdfrwt beam="2">  1       -2 0.13127917E-02 0.25799193E+02</pdfrwt>
<totfact> 0.23091995E+06</totfact>
</mgrwt>
</event>
<event>
 4    1  0.3704929E-001  0.7618010E+02  0.7818608E-02  0.1340255E+00
         -2   -1    0    0    0  501 -0.00000000000E+00  0.00000000000E+00  0.17943185237E+02  0.17943185425E+02  0.26000000000E-02 0. -1.
          2   -1    0    0  501    0  0.00000000000E+00 -0.00000000000E+00 -0.80858100944E+02  0.80858100985E+02  0.26000000000E-02 0.  1.
        -13    1    1    2    0    0 -0.37912367950E+00  0.38045970528E+02 -0.33777904673E+02  0.50878262792E+02  0.10570000000E+00 0.  1.
         13    1    1    2    0    0  0.37912367950E+00 -0.38045970528E+02 -0.29137011034E+02  0.47923023618E+02  0.10570000000E+00 0. -1.
<mgrwt>
<rscale>  0 0.76180100E+02</rscale>
<asrwt>0</asrwt>
<pdfrwt beam="2">  1        2 0.12439708E-01 0.76180100E+02</pdfrwt>
<pdfrwt beam="1">  1       -2 0.27604901E-02 0.76180100E+02</pdfrwt>
<totfact> 0.18845392E+05</totfact>
</mgrwt>
</event>
<event>
 4    1  0.3704929E-001  0.4275949E+02  0.7818608E-02  0.1488834E+00
         -2   -1    0    0    0  501 -0.00000000000E+00  0.00000000000E+00  0.47078699672E+02  0.47078699744E+02  0.26000000000E-02 0. -1.
          2   -1    0    0  501    0  0.00000000000E+00 -0.00000000000E+00 -0.97091352003E+01  0.97091355484E+01  0.26000000000E-02 0.  1.
        -13    1    1    2    0    0 -0.20594838018E+02 -0.14250719994E+01  0.26067750040E+02  0.33252322442E+02  0.10570000000E+00 0. -1.
         13    1    1    2    0    0  0.20594838018E+02  0.14250719994E+01  0.11301814432E+02  0.23535512850E+02  0.10570000000E+00 0.  1.
<mgrwt>
<rscale>  0 0.42759489E+02</rscale>
<asrwt>0</asrwt>
<pdfrwt beam="2">  1        2 0.14937131E-02 0.42759489E+02</pdfrwt>
<pdfrwt beam="1">  1       -2 0.72428769E-02 0.42759489E+02</pdfrwt>
<totfact> 0.59843644E+05</totfact>
</mgrwt>
</event>
<event>
 4    1  0.3704929E-001  0.1150832E+03  0.7818608E-02  0.1251436E+00
         -2   -1    0    0    0  501 -0.00000000000E+00  0.00000000000E+00  0.93498352942E+01  0.93498356557E+01  0.26000000000E-02 0.  1.
          2   -1    0    0  501    0  0.00000000000E+00 -0.00000000000E+00 -0.35412743664E+03  0.35412743665E+03  0.26000000000E-02 0. -1.
        -13    1    1    2    0    0  0.50957096213E+00  0.47625317639E+02 -0.70407019229E+02  0.85003470940E+02  0.10570000000E+00 0.  1.
         13    1    1    2    0    0 -0.50957096213E+00 -0.47625317639E+02 -0.27437058211E+03  0.27847380136E+03  0.10570000000E+00 0. -1.
<mgrwt>
<rscale>  0 0.11508316E+03</rscale>
<asrwt>0</asrwt>
<pdfrwt beam="2">  1        2 0.54481134E-01 0.11508316E+03</pdfrwt>
<pdfrwt beam="1">  1       -2 0.14384365E-02 0.11508316E+03</pdfrwt>
<totfact> 0.10198312E+05</totfact>
</mgrwt>
</event>
<event>
 4    1  0.3704929E-001  0.2322420E+02  0.7818608E-02  0.1687901E+00
         -2   -1    0    0    0  501 -0.00000000000E+00  0.00000000000E+00  0.13677473019E+02  0.13677473266E+02  0.26000000000E-02 0.  1.
          2   -1    0    0  501    0  0.00000000000E+00 -0.00000000000E+00 -0.98586098464E+01  0.98586101892E+01  0.26000000000E-02 0. -1.
        -13    1    1    2    0    0 -0.96179292787E+01 -0.39223417038E+01  0.71695466738E+01  0.12621525266E+02  0.10570000000E+00 0.  1.
         13    1    1    2    0    0  0.96179292787E+01  0.39223417038E+01 -0.33506835010E+01  0.10914558189E+02  0.10570000000E+00 0. -1.
<mgrwt>
<rscale>  0 0.23224201E+02</rscale>
<asrwt>0</asrwt>
<pdfrwt beam="2">  1        2 0.15167092E-02 0.23224201E+02</pdfrwt>
<pdfrwt beam="1">  1       -2 0.21042267E-02 0.23224201E+02</pdfrwt>
<totfact> 0.27858947E+06</totfact>
</mgrwt>
</event>
<event>
 4    1  0.3704929E-001  0.2546955E+02  0.7818608E-02  0.1654348E+00
          2   -1    0    0  501    0  0.00000000000E+00  0.00000000000E+00  0.59083800663E+01  0.59083806384E+01  0.26000000000E-02 0.  1.
         -2   -1    0    0    0  501 -0.00000000000E+00 -0.00000000000E+00 -0.27448209972E+02  0.27448210095E+02  0.26000000000E-02 0. -1.
        -13    1    1    2    0    0 -0.10216374122E+02  0.55008224156E+01 -0.38982319401E+01  0.12240944906E+02  0.10570000000E+00 0.  1.
         13    1    1    2    0    0  0.10216374122E+02 -0.55008224156E+01 -0.17641597966E+02  0.21115645828E+02  0.10570000000E+00 0. -1.
<mgrwt>
<rscale>  0 0.25469548E+02</rscale>
<asrwt>0</asrwt>
<pdfrwt beam="1">  1        2 0.90898162E-03 0.25469548E+02</pdfrwt>
<pdfrwt beam="2">  1       -2 0.42228015E-02 0.25469548E+02</pdfrwt>
<totfact> 0.21297863E+06</totfact>
</mgrwt>
</event>
<event>
 4    1  0.3704929E-001  0.3509233E+02  0.7818608E-02  0.1547782E+00
          2   -1    0    0  501    0  0.00000000000E+00  0.00000000000E+00  0.54250498140E+02  0.54250498202E+02  0.26000000000E-02 0. -1.
         -2   -1    0    0    0  501 -0.00000000000E+00 -0.00000000000E+00 -0.56749328748E+01  0.56749334704E+01  0.26000000000E-02 0.  1.
        -13    1    1    2    0    0 -0.17964096826E+01  0.14783881028E+02  0.40130006494E+02  0.42804425235E+02  0.10570000000E+00 0.  1.
         13    1    1    2    0    0  0.17964096826E+01 -0.14783881028E+02  0.84455587711E+01  0.17121006438E+02  0.10570000000E+00 0. -1.
<mgrwt>
<rscale>  0 0.35092333E+02</rscale>
<asrwt>0</asrwt>
<pdfrwt beam="1">  1        2 0.83462301E-02 0.35092333E+02</pdfrwt>
<pdfrwt beam="2">  1       -2 0.87306669E-03 0.35092333E+02</pdfrwt>
<totfact> 0.12636394E+06</totfact>
</mgrwt>
</event>
<event>
 4    1  0.3704929E-001  0.2566840E+02  0.7818608E-02  0.1651583E+00
          2   -1    0    0  501    0  0.00000000000E+00  0.00000000000E+00  0.94425405587E+02  0.94425405622E+02  0.26000000000E-02 0. -1.
         -2   -1    0    0    0  501 -0.00000000000E+00 -0.00000000000E+00 -0.17444103356E+01  0.17444122732E+01  0.26000000000E-02 0.  1.
        -13    1    1    2    0    0 -0.11592418729E+02 -0.51046562728E+01  0.38604028053E+02  0.40629100927E+02  0.10570000000E+00 0.  1.
         13    1    1    2    0    0  0.11592418729E+02  0.51046562728E+01  0.54076967198E+02  0.55540716969E+02  0.10570000000E+00 0. -1.
<mgrwt>
<rscale>  0 0.25668405E+02</rscale>
<asrwt>0</asrwt>
<pdfrwt beam="1">  1        2 0.14526994E-01 0.25668405E+02</pdfrwt>
<pdfrwt beam="2">  1       -2 0.26837083E-03 0.25668405E+02</pdfrwt>
<totfact> 0.29656625E+06</totfact>
</mgrwt>
</event>
<event>
 4    1  0.3704929E-001  0.2315092E+02  0.7818608E-02  0.1689075E+00
         -2   -1    0    0    0  501 -0.00000000000E+00  0.00000000000E+00  0.19881281624E+02  0.19881281794E+02  0.26000000000E-02 0. -1.
          2   -1    0    0  501    0  0.00000000000E+00 -0.00000000000E+00 -0.67395704176E+01  0.67395709191E+01  0.26000000000E-02 0.  1.
        -13    1    1    2    0    0  0.18945017055E+01 -0.10185014606E+02  0.12507691068E+02  0.16241218168E+02  0.10570000000E+00 0. -1.
         13    1    1    2    0    0 -0.18945017055E+01  0.10185014606E+02  0.63402013767E+00  0.10379634544E+02  0.10570000000E+00 0.  1.
<mgrwt>
<rscale>  0 0.23150923E+02</rscale>
<asrwt>0</asrwt>
<pdfrwt beam="2">  1        2 0.10368570E-02 0.23150923E+02</pdfrwt>
<pdfrwt beam="1">  1       -2 0.30586588E-02 0.23150923E+02</pdfrwt>
<totfact> 0.27175413E+06</totfact>
</mgrwt>
</event>
<event>
 4    1  0.3704929E-001  0.2282200E+02  0.7818608E-02  0.1694412E+00
         -2   -1    0    0    0  501 -0.00000000000E+00  0.00000000000E+00  0.25777088044E+02  0.25777088175E+02  0.26000000000E-02 0.  1.
          2   -1    0    0  501    0  0.00000000000E+00 -0.00000000000E+00 -0.50514201331E+01  0.50514208022E+01  0.26000000000E-02 0. -1.
        -13    1    1    2    0    0  0.10029989785E+02 -0.16743477632E+00  0.17708512585E+02  0.20352673534E+02  0.10570000000E+00 0.  1.
         13    1    1    2    0    0 -0.10029989785E+02  0.16743477632E+00  0.30171553256E+01  0.10475835444E+02  0.10570000000E+00 0. -1.
<mgrwt>
<rscale>  0 0.22821999E+02</rscale>
<asrwt>0</asrwt>
<pdfrwt beam="2">  1        2 0.77714163E-03 0.22821999E+02</pdfrwt>
<pdfrwt beam="1">  1       -2 0.39657059E-02 0.22821999E+02</pdfrwt>
<totfact> 0.27383242E+06</totfact>
</mgrwt>
</event>
<event>
 4    1  0.3704929E-001  0.3313177E+02  0.7818608E-02  0.1565846E+00
          2   -1    0    0  501    0  0.00000000000E+00  0.00000000000E+00  0.12910203366E+02  0.12910203628E+02  0.26000000000E-02 0. -1.
         -2   -1    0    0    0  501 -0.00000000000E+00 -0.00000000000E+00 -0.21256714560E+02  0.21256714719E+02  0.26000000000E-02 0.  1.
        -13    1    1    2    0    0 -0.14347753387E+02 -0.73266919602E+00 -0.12678514273E+02  0.19161177627E+02  0.10570000000E+00 0.  1.
         13    1    1    2    0    0  0.14347753387E+02  0.73266919602E+00  0.43320030790E+01  0.15005740720E+02  0.10570000000E+00 0. -1.
<mgrwt>
<rscale>  0 0.33131768E+02</rscale>
<asrwt>0</asrwt>
<pdfrwt beam="1">  1        2 0.19861852E-02 0.33131768E+02</pdfrwt>
<pdfrwt beam="2">  1       -2 0.32702638E-02 0.33131768E+02</pdfrwt>
<totfact> 0.12048026E+06</totfact>
</mgrwt>
</event>
<event>
 4    1  0.3704929E-001  0.2096355E+02  0.7818608E-02  0.1726819E+00
          2   -1    0    0  501    0  0.00000000000E+00  0.00000000000E+00  0.18254193110E+01  0.18254211626E+01  0.26000000000E-02 0. -1.
         -2   -1    0    0    0  501 -0.00000000000E+00 -0.00000000000E+00 -0.60187547372E+02  0.60187547428E+02  0.26000000000E-02 0.  1.
        -13    1    1    2    0    0 -0.37927509109E+01 -0.95921394576E+01 -0.34685338165E+02  0.36186709646E+02  0.10570000000E+00 0.  1.
         13    1    1    2    0    0  0.37927509109E+01  0.95921394576E+01 -0.23676789896E+02  0.25826258945E+02  0.10570000000E+00 0. -1.
<mgrwt>
<rscale>  0 0.20963546E+02</rscale>
<asrwt>0</asrwt>
<pdfrwt beam="1">  1        2 0.28083393E-03 0.20963546E+02</pdfrwt>
<pdfrwt beam="2">  1       -2 0.92596213E-02 0.20963546E+02</pdfrwt>
<totfact> 0.29710842E+06</totfact>
</mgrwt>
</event>
<event>
 4    1  0.3704929E-001  0.3907465E+02  0.7818608E-02  0.1515134E+00
          2   -1    0    0  501    0  0.00000000000E+00  0.00000000000E+00  0.33897425343E+01  0.33897435314E+01  0.26000000000E-02 0. -1.
         -2   -1    0    0    0  501 -0.00000000000E+00 -0.00000000000E+00 -0.11260650413E+03  0.11260650416E+03  0.26000000000E-02 0.  1.
        -13    1    1    2    0    0 -0.77608808222E+01 -0.15060000562E+02 -0.83490861275E+02  0.85192546487E+02  0.10570000000E+00 0. -1.
         13    1    1    2    0    0  0.77608808222E+01  0.15060000562E+02 -0.25725900318E+02  0.30803701201E+02  0.10570000000E+00 0.  1.
<mgrwt>
<rscale>  0 0.39074652E+02</rscale>
<asrwt>0</asrwt>
<pdfrwt beam="1">  1        2 0.52149902E-03 0.39074652E+02</pdfrwt>
<pdfrwt beam="2">  1       -2 0.17324075E-01 0.39074652E+02</pdfrwt>
<totfact> 0.62106312E+05</totfact>
</mgrwt>
</event>
<event>
 4    1  0.3704929E-001  0.2525170E+02  0.7818608E-02  0.1657413E+00
          2   -1    0    0  501    0  0.00000000000E+00  0.00000000000E+00  0.19404805462E+01  0.19404822880E+01  0.26000000000E-02 0.  1.
         -2   -1    0    0    0  501 -0.00000000000E+00 -0.00000000000E+00 -0.82150799089E+02  0.82150799130E+02  0.26000000000E-02 0. -1.
        -13    1    1    2    0    0  0.69862795986E+01 -0.90175428071E+01 -0.22086529783E+02  0.24858603164E+02  0.10570000000E+00 0.  1.
         13    1    1    2    0    0 -0.69862795986E+01  0.90175428071E+01 -0.58123788759E+02  0.59232678254E+02  0.10570000000E+00 0. -1.
<mgrwt>
<rscale>  0 0.25251701E+02</rscale>
<asrwt>0</asrwt>
<pdfrwt beam="1">  1        2 0.29853567E-03 0.25251701E+02</pdfrwt>
<pdfrwt beam="2">  1       -2 0.12638582E-01 0.25251701E+02</pdfrwt>
<totfact> 0.18504081E+06</totfact>
</mgrwt>
</event>
<event>
 4    1  0.3704929E-001  0.2377382E+02  0.7818608E-02  0.1679265E+00
          2   -1    0    0  501    0  0.00000000000E+00  0.00000000000E+00  0.45908224462E+02  0.45908224535E+02  0.26000000000E-02 0. -1.
         -2   -1    0    0    0  501 -0.00000000000E+00 -0.00000000000E+00 -0.30778504515E+01  0.30778515497E+01  0.26000000000E-02 0.  1.
        -13    1    1    2    0    0  0.21201571733E+01 -0.10965154275E+02  0.29799651481E+02  0.31823891585E+02  0.10570000000E+00 0. -1.
         13    1    1    2    0    0 -0.21201571733E+01  0.10965154275E+02  0.13030722529E+02  0.17162184500E+02  0.10570000000E+00 0.  1.
<mgrwt>
<rscale>  0 0.23773824E+02</rscale>
<asrwt>0</asrwt>
<pdfrwt beam="1">  1        2 0.70628033E-02 0.23773824E+02</pdfrwt>
<pdfrwt beam="2">  1       -2 0.47351558E-03 0.23773824E+02</pdfrwt>
<totfact> 0.30928736E+06</totfact>
</mgrwt>
</event>
<event>
 4    1  0.3704929E-001  0.1011648E+03  0.7818608E-02  0.1277865E+00
          2   -1    0    0  501    0  0.00000000000E+00  0.00000000000E+00  0.62197919432E+02  0.62197919487E+02  0.26000000000E-02 0. -1.
         -2   -1    0    0    0  501 -0.00000000000E+00 -0.00000000000E+00 -0.41136096039E+02  0.41136096121E+02  0.26000000000E-02 0.  1.
        -13    1    1    2    0    0 -0.47746979666E+01  0.41633530114E+02 -0.18403501370E+02  0.45769516117E+02  0.10570000000E+00 0.  1.
         13    1    1    2    0    0  0.47746979666E+01 -0.41633530114E+02  0.39465324764E+02  0.57564499491E+02  0.10570000000E+00 0. -1.
<mgrwt>
<rscale>  0 0.10116481E+03</rscale>
<asrwt>0</asrwt>
<pdfrwt beam="1">  1        2 0.95689107E-02 0.10116481E+03</pdfrwt>
<pdfrwt beam="2">  1       -2 0.63286302E-02 0.10116481E+03</pdfrwt>
<totfact> 0.79692183E+04</totfact>
</mgrwt>
</event>
<event>
 4    1  0.3704929E-001  0.5298985E+02  0.7818608E-02  0.1429851E+00
          2   -1    0    0  501    0  0.00000000000E+00  0.00000000000E+00  0.49397871455E+01  0.49397878298E+01  0.26000000000E-02 0. -1.
         -2   -1    0    0    0  501 -0.00000000000E+00 -0.00000000000E+00 -0.14210755719E+03  0.14210755722E+03  0.26000000000E-02 0.  1.
        -13    1    1    2    0    0  0.15823400339E+02  0.21001363644E+02 -0.59577839538E+02  0.65122710399E+02  0.10570000000E+00 0. -1.
         13    1    1    2    0    0 -0.15823400339E+02 -0.21001363644E+02 -0.77589930508E+02  0.81924634647E+02  0.10570000000E+00 0.  1.
<mgrwt>
<rscale>  0 0.52989853E+02</rscale>
<asrwt>0</asrwt>
<pdfrwt beam="1">  1        2 0.75996742E-03 0.52989853E+02</pdfrwt>
<pdfrwt beam="2">  1       -2 0.21862698E-01 0.52989853E+02</pdfrwt>
<totfact> 0.27688059E+05</totfact>
</mgrwt>
</event>
<event>
 4    1  0.3704929E-001  0.2212918E+02  0.7818608E-02  0.1706027E+00
          2   -1    0    0  501    0  0.00000000000E+00  0.00000000000E+00  0.24356560541E+01  0.24356574418E+01  0.26000000000E-02 0.  1.
         -2   -1    0    0    0  501 -0.00000000000E+00 -0.00000000000E+00 -0.50263708372E+02  0.50263708440E+02  0.26000000000E-02 0. -1.
        -13    1    1    2    0    0 -0.66193115627E+01 -0.87787294507E+01 -0.20965847484E+02  0.23674021828E+02  0.10570000000E+00 0. -1.
         13    1    1    2    0    0  0.66193115627E+01  0.87787294507E+01 -0.26862204835E+02  0.29025344053E+02  0.10570000000E+00 0.  1.
<mgrwt>
<rscale>  0 0.22129179E+02</rscale>
<asrwt>0</asrwt>
<pdfrwt beam="1">  1        2 0.37471647E-03 0.22129179E+02</pdfrwt>
<pdfrwt beam="2">  1       -2 0.77328775E-02 0.22129179E+02</pdfrwt>
<totfact> 0.27103136E+06</totfact>
</mgrwt>
</event>
<event>
 4    1  0.3704929E-001  0.3393275E+02  0.7818608E-02  0.1558288E+00
         -2   -1    0    0    0  501 -0.00000000000E+00  0.00000000000E+00  0.38518914240E+02  0.38518914327E+02  0.26000000000E-02 0. -1.
          2   -1    0    0  501    0  0.00000000000E+00 -0.00000000000E+00 -0.74731542445E+01  0.74731546968E+01  0.26000000000E-02 0.  1.
        -13    1    1    2    0    0 -0.39028443329E+01 -0.13489135931E+02  0.26176375383E+01  0.14284683434E+02  0.10570000000E+00 0.  1.
         13    1    1    2    0    0  0.39028443329E+01  0.13489135931E+02  0.28428122457E+02  0.31707385590E+02  0.10570000000E+00 0. -1.
<mgrwt>
<rscale>  0 0.33932745E+02</rscale>
<asrwt>0</asrwt>
<pdfrwt beam="2">  1        2 0.11497161E-02 0.33932745E+02</pdfrwt>
<pdfrwt beam="1">  1       -2 0.59259868E-02 0.33932745E+02</pdfrwt>
<totfact> 0.10614190E+06</totfact>
</mgrwt>
</event>
<event>
 4    1  0.3704929E-001  0.3717663E+02  0.7818608E-02  0.1530080E+00
          2   -1    0    0  501    0  0.00000000000E+00  0.00000000000E+00  0.23083684807E+01  0.23083699449E+01  0.26000000000E-02 0.  1.
         -2   -1    0    0    0  501 -0.00000000000E+00 -0.00000000000E+00 -0.14968375767E+03  0.14968375770E+03  0.26000000000E-02 0. -1.
        -13    1    1    2    0    0  0.14815321097E+02  0.10581283985E+02 -0.58359327926E+02  0.61133294025E+02  0.10570000000E+00 0.  1.
         13    1    1    2    0    0 -0.14815321097E+02 -0.10581283985E+02 -0.89016061268E+02  0.90858833617E+02  0.10570000000E+00 0. -1.
<mgrwt>
<rscale>  0 0.37176626E+02</rscale>
<asrwt>0</asrwt>
<pdfrwt beam="1">  1        2 0.35513385E-03 0.37176626E+02</pdfrwt>
<pdfrwt beam="2">  1       -2 0.23028263E-01 0.37176626E+02</pdfrwt>
<totfact> 0.64270368E+05</totfact>
</mgrwt>
</event>
<event>
 4    1  0.3704929E-001  0.2741894E+02  0.7818608E-02  0.1628506E+00
          2   -1    0    0  501    0  0.00000000000E+00  0.00000000000E+00  0.80439340761E+01  0.80439344963E+01  0.26000000000E-02 0.  1.
         -2   -1    0    0    0  501 -0.00000000000E+00 -0.00000000000E+00 -0.23365386171E+02  0.23365386315E+02  0.26000000000E-02 0. -1.
        -13    1    1    2    0    0 -0.11137877143E+02 -0.60153397882E+01 -0.13689959962E+02  0.18645717907E+02  0.10570000000E+00 0. -1.
         13    1    1    2    0    0  0.11137877143E+02  0.60153397882E+01 -0.16314921328E+01  0.12763602904E+02  0.10570000000E+00 0.  1.
<mgrwt>
<rscale>  0 0.27418945E+02</rscale>
<asrwt>0</asrwt>
<pdfrwt beam="1">  1        2 0.12375284E-02 0.27418945E+02</pdfrwt>
<pdfrwt beam="2">  1       -2 0.35946748E-02 0.27418945E+02</pdfrwt>
<totfact> 0.18336476E+06</totfact>
</mgrwt>
</event>
<event>
 4    1  0.3704929E-001  0.2391999E+02  0.7818608E-02  0.1677017E+00
         -2   -1    0    0    0  501 -0.00000000000E+00  0.00000000000E+00  0.32766438956E+02  0.32766439059E+02  0.26000000000E-02 0.  1.
          2   -1    0    0  501    0  0.00000000000E+00 -0.00000000000E+00 -0.43654873968E+01  0.43654881711E+01  0.26000000000E-02 0. -1.
        -13    1    1    2    0    0  0.64408754624E+01  0.99526323343E+01  0.11750654672E+02  0.16692178552E+02  0.10570000000E+00 0.  1.
         13    1    1    2    0    0 -0.64408754624E+01 -0.99526323343E+01  0.16650296888E+02  0.20439748679E+02  0.10570000000E+00 0. -1.
<mgrwt>
<rscale>  0 0.23919991E+02</rscale>
<asrwt>0</asrwt>
<pdfrwt beam="2">  1        2 0.67161351E-03 0.23919991E+02</pdfrwt>
<pdfrwt beam="1">  1       -2 0.50409907E-02 0.23919991E+02</pdfrwt>
<totfact> 0.24055693E+06</totfact>
</mgrwt>
</event>
<event>
 4    1  0.3704929E-001  0.2240890E+02  0.7818608E-02  0.1701275E+00
          2   -1    0    0  501    0  0.00000000000E+00  0.00000000000E+00  0.11464730382E+02  0.11464730677E+02  0.26000000000E-02 0.  1.
         -2   -1    0    0    0  501 -0.00000000000E+00 -0.00000000000E+00 -0.10950081839E+02  0.10950082148E+02  0.26000000000E-02 0. -1.
        -13    1    1    2    0    0  0.97672612005E+01 -0.49240981910E+01 -0.21686886207E+01  0.11151704676E+02  0.10570000000E+00 0. -1.
         13    1    1    2    0    0 -0.97672612005E+01  0.49240981910E+01  0.26833371641E+01  0.11263108149E+02  0.10570000000E+00 0.  1.
<mgrwt>
<rscale>  0 0.22408904E+02</rscale>
<asrwt>0</asrwt>
<pdfrwt beam="1">  1        2 0.17638047E-02 0.22408904E+02</pdfrwt>
<pdfrwt beam="2">  1       -2 0.16846280E-02 0.22408904E+02</pdfrwt>
<totfact> 0.30667324E+06</totfact>
</mgrwt>
</event>
<event>
 4    1  0.3704929E-001  0.2280723E+02  0.7818608E-02  0.1694654E+00
          2   -1    0    0  501    0  0.00000000000E+00  0.00000000000E+00  0.14875587630E+01  0.14875610352E+01  0.26000000000E-02 0. -1.
         -2   -1    0    0    0  501 -0.00000000000E+00 -0.00000000000E+00 -0.87419934770E+02  0.87419934808E+02  0.26000000000E-02 0.  1.
        -13    1    1    2    0    0  0.66833445959E+01  0.90000826546E+01 -0.51108363703E+02  0.52323461236E+02  0.10570000000E+00 0.  1.
         13    1    1    2    0    0 -0.66833445959E+01 -0.90000826546E+01 -0.34824012304E+02  0.36584034608E+02  0.10570000000E+00 0. -1.
<mgrwt>
<rscale>  0 0.22807226E+02</rscale>
<asrwt>0</asrwt>
<pdfrwt beam="1">  1        2 0.22885544E-03 0.22807226E+02</pdfrwt>
<pdfrwt beam="2">  1       -2 0.13449217E-01 0.22807226E+02</pdfrwt>
<totfact> 0.22954870E+06</totfact>
</mgrwt>
</event>
<event>
 4    1  0.3704929E-001  0.2484699E+02  0.7818608E-02  0.1663209E+00
         -2   -1    0    0    0  501 -0.00000000000E+00  0.00000000000E+00  0.38733275064E+02  0.38733275151E+02  0.26000000000E-02 0.  1.
          2   -1    0    0  501    0  0.00000000000E+00 -0.00000000000E+00 -0.39847715496E+01  0.39847723979E+01  0.26000000000E-02 0. -1.
        -13    1    1    2    0    0 -0.11074492141E+02  0.30305632168E+01  0.25529960677E+02  0.27993191213E+02  0.10570000000E+00 0.  1.
         13    1    1    2    0    0  0.11074492141E+02 -0.30305632168E+01  0.92185428370E+01  0.14724856336E+02  0.10570000000E+00 0. -1.
<mgrwt>
<rscale>  0 0.24846994E+02</rscale>
<asrwt>0</asrwt>
<pdfrwt beam="2">  1        2 0.61304186E-03 0.24846994E+02</pdfrwt>
<pdfrwt beam="1">  1       -2 0.59589654E-02 0.24846994E+02</pdfrwt>
<totfact> 0.21659052E+06</totfact>
</mgrwt>
</event>
<event>
 4    1  0.3704929E-001  0.2248931E+02  0.7818608E-02  0.1699924E+00
          2   -1    0    0  501    0  0.00000000000E+00  0.00000000000E+00  0.13204503300E+02  0.13204503556E+02  0.26000000000E-02 0.  1.
         -2   -1    0    0    0  501 -0.00000000000E+00 -0.00000000000E+00 -0.95756927825E+01  0.95756931354E+01  0.26000000000E-02 0. -1.
        -13    1    1    2    0    0  0.11138905209E+02  0.29028722990E+00  0.33410911389E+01  0.11633294393E+02  0.10570000000E+00 0. -1.
         13    1    1    2    0    0 -0.11138905209E+02 -0.29028722990E+00  0.28771937889E+00  0.11146902299E+02  0.10570000000E+00 0.  1.
<mgrwt>
<rscale>  0 0.22489311E+02</rscale>
<asrwt>0</asrwt>
<pdfrwt beam="1">  1        2 0.20314621E-02 0.22489311E+02</pdfrwt>
<pdfrwt beam="2">  1       -2 0.14731835E-02 0.22489311E+02</pdfrwt>
<totfact> 0.30764316E+06</totfact>
</mgrwt>
</event>
<event>
 4    1  0.3704929E-001  0.3069600E+02  0.7818608E-02  0.1590520E+00
          2   -1    0    0  501    0  0.00000000000E+00  0.00000000000E+00  0.48380824163E+01  0.48380831149E+01  0.26000000000E-02 0. -1.
         -2   -1    0    0    0  501 -0.00000000000E+00 -0.00000000000E+00 -0.48688928552E+02  0.48688928621E+02  0.26000000000E-02 0.  1.
        -13    1    1    2    0    0 -0.90914879622E+01  0.11570667821E+02 -0.14321592302E+02  0.20534232047E+02  0.10570000000E+00 0. -1.
         13    1    1    2    0    0  0.90914879622E+01 -0.11570667821E+02 -0.29529253833E+02  0.32992779689E+02  0.10570000000E+00 0.  1.
<mgrwt>
<rscale>  0 0.30695998E+02</rscale>
<asrwt>0</asrwt>
<pdfrwt beam="1">  1        2 0.74432046E-03 0.30695998E+02</pdfrwt>
<pdfrwt beam="2">  1       -2 0.74906041E-02 0.30695998E+02</pdfrwt>
<totfact> 0.12960861E+06</totfact>
</mgrwt>
</event>
<event>
 4    1  0.3704929E-001  0.2541238E+02  0.7818608E-02  0.1655148E+00
          2   -1    0    0  501    0  0.00000000000E+00  0.00000000000E+00  0.26004151286E+02  0.26004151416E+02  0.26000000000E-02 0. -1.
         -2   -1    0    0    0  501 -0.00000000000E+00 -0.00000000000E+00 -0.62085201684E+01  0.62085207128E+01  0.26000000000E-02 0.  1.
        -13    1    1    2    0    0 -0.10582222973E+02  0.26734574877E+01  0.18142591053E+02  0.21172992245E+02  0.10570000000E+00 0. -1.
         13    1    1    2    0    0  0.10582222973E+02 -0.26734574877E+01  0.16530400645E+01  0.11039679884E+02  0.10570000000E+00 0.  1.
<mgrwt>
<rscale>  0 0.25412383E+02</rscale>
<asrwt>0</asrwt>
<pdfrwt beam="1">  1        2 0.40006387E-02 0.25412383E+02</pdfrwt>
<pdfrwt beam="2">  1       -2 0.95515700E-03 0.25412383E+02</pdfrwt>
<totfact> 0.24651265E+06</totfact>
</mgrwt>
</event>
<event>
 4    1  0.3704929E-001  0.2838616E+02  0.7818608E-02  0.1616645E+00
         -2   -1    0    0    0  501 -0.00000000000E+00  0.00000000000E+00  0.92598278981E+01  0.92598282631E+01  0.26000000000E-02 0.  1.
          2   -1    0    0  501    0  0.00000000000E+00 -0.00000000000E+00 -0.21754560191E+02  0.21754560347E+02  0.26000000000E-02 0. -1.
        -13    1    1    2    0    0  0.27748301504E+01 -0.12858589766E+02 -0.12068853993E+02  0.17852490648E+02  0.10570000000E+00 0. -1.
         13    1    1    2    0    0 -0.27748301504E+01  0.12858589766E+02 -0.42587830054E+00  0.13161897962E+02  0.10570000000E+00 0.  1.
<mgrwt>
<rscale>  0 0.28386158E+02</rscale>
<asrwt>0</asrwt>
<pdfrwt beam="2">  1        2 0.33468554E-02 0.28386158E+02</pdfrwt>
<pdfrwt beam="1">  1       -2 0.14245890E-02 0.28386158E+02</pdfrwt>
<totfact> 0.18601509E+06</totfact>
</mgrwt>
</event>
<event>
 4    1  0.3704929E-001  0.4325126E+02  0.7818608E-02  0.1485564E+00
         -2   -1    0    0    0  501 -0.00000000000E+00  0.00000000000E+00  0.24927356410E+01  0.24927369969E+01  0.26000000000E-02 0.  1.
          2   -1    0    0  501    0  0.00000000000E+00 -0.00000000000E+00 -0.18761228008E+03  0.18761228010E+03  0.26000000000E-02 0. -1.
        -13    1    1    2    0    0  0.16069390002E+02 -0.13096853259E+02 -0.11962033440E+03  0.12140341196E+03  0.10570000000E+00 0. -1.
         13    1    1    2    0    0 -0.16069390002E+02  0.13096853259E+02 -0.65499210038E+02  0.68701605137E+02  0.10570000000E+00 0.  1.
<mgrwt>
<rscale>  0 0.43251263E+02</rscale>
<asrwt>0</asrwt>
<pdfrwt beam="2">  1        2 0.28863417E-01 0.43251263E+02</pdfrwt>
<pdfrwt beam="1">  1       -2 0.38349804E-03 0.43251263E+02</pdfrwt>
<totfact> 0.10332814E+06</totfact>
</mgrwt>
</event>
<event>
 4    1  0.3704929E-001  0.3324865E+02  0.7818608E-02  0.1564727E+00
          2   -1    0    0  501    0  0.00000000000E+00  0.00000000000E+00  0.18895627922E+02  0.18895628101E+02  0.26000000000E-02 0.  1.
         -2   -1    0    0    0  501 -0.00000000000E+00 -0.00000000000E+00 -0.14626035699E+02  0.14626035930E+02  0.26000000000E-02 0. -1.
        -13    1    1    2    0    0 -0.42653805276E+01  0.15438360804E+02 -0.23537839400E+01  0.16189129893E+02  0.10570000000E+00 0. -1.
         13    1    1    2    0    0  0.42653805276E+01 -0.15438360804E+02  0.66233761626E+01  0.17332534138E+02  0.10570000000E+00 0.  1.
<mgrwt>
<rscale>  0 0.33248647E+02</rscale>
<asrwt>0</asrwt>
<pdfrwt beam="1">  1        2 0.29070197E-02 0.33248647E+02</pdfrwt>
<pdfrwt beam="2">  1       -2 0.22501594E-02 0.33248647E+02</pdfrwt>
<totfact> 0.12461729E+06</totfact>
</mgrwt>
</event>
<event>
 4    1  0.3704929E-001  0.2404886E+02  0.7818608E-02  0.1675052E+00
         -2   -1    0    0    0  501 -0.00000000000E+00  0.00000000000E+00  0.18473982886E+01  0.18474001182E+01  0.26000000000E-02 0. -1.
          2   -1    0    0  501    0  0.00000000000E+00 -0.00000000000E+00 -0.78265136153E+02  0.78265136196E+02  0.26000000000E-02 0.  1.
        -13    1    1    2    0    0  0.38900933095E+01  0.11099112627E+02 -0.46538737178E+02  0.48001962019E+02  0.10570000000E+00 0. -1.
         13    1    1    2    0    0 -0.38900933095E+01 -0.11099112627E+02 -0.29879000686E+02  0.32110574295E+02  0.10570000000E+00 0.  1.
<mgrwt>
<rscale>  0 0.24048863E+02</rscale>
<asrwt>0</asrwt>
<pdfrwt beam="2">  1        2 0.12040788E-01 0.24048863E+02</pdfrwt>
<pdfrwt beam="1">  1       -2 0.28421533E-03 0.24048863E+02</pdfrwt>
<totfact> 0.33073012E+06</totfact>
</mgrwt>
</event>
<event>
 4    1  0.3704929E-001  0.2964796E+02  0.7818608E-02  0.1602013E+00
          2   -1    0    0  501    0  0.00000000000E+00  0.00000000000E+00  0.54577599193E+02  0.54577599255E+02  0.26000000000E-02 0.  1.
         -2   -1    0    0    0  501 -0.00000000000E+00 -0.00000000000E+00 -0.40263849916E+01  0.40263858311E+01  0.26000000000E-02 0. -1.
        -13    1    1    2    0    0  0.24663032710E+01  0.14087146707E+02  0.17566900115E+02  0.22652538628E+02  0.10570000000E+00 0. -1.
         13    1    1    2    0    0 -0.24663032710E+01 -0.14087146707E+02  0.32984314086E+02  0.35951446457E+02  0.10570000000E+00 0.  1.
<mgrwt>
<rscale>  0 0.29647965E+02</rscale>
<asrwt>0</asrwt>
<pdfrwt beam="1">  1        2 0.83965537E-02 0.29647965E+02</pdfrwt>
<pdfrwt beam="2">  1       -2 0.61944392E-03 0.29647965E+02</pdfrwt>
<totfact> 0.18977855E+06</totfact>
</mgrwt>
</event>
<event>
 4    1  0.3704929E-001  0.5505423E+02  0.7818608E-02  0.1419843E+00
          2   -1    0    0  501    0  0.00000000000E+00  0.00000000000E+00  0.92741788680E+01  0.92741792324E+01  0.26000000000E-02 0.  1.
         -2   -1    0    0    0  501 -0.00000000000E+00 -0.00000000000E+00 -0.81704493596E+02  0.81704493637E+02  0.26000000000E-02 0. -1.
        -13    1    1    2    0    0 -0.18876624484E+02 -0.11891247930E+01 -0.69265307656E+02  0.71801357835E+02  0.10570000000E+00 0. -1.
         13    1    1    2    0    0  0.18876624484E+02  0.11891247930E+01 -0.31650070714E+01  0.19177315035E+02  0.10570000000E+00 0.  1.
<mgrwt>
<rscale>  0 0.55054232E+02</rscale>
<asrwt>0</asrwt>
<pdfrwt beam="1">  1        2 0.14267968E-02 0.55054232E+02</pdfrwt>
<pdfrwt beam="2">  1       -2 0.12569922E-01 0.55054232E+02</pdfrwt>
<totfact> 0.29280643E+05</totfact>
</mgrwt>
</event>
<event>
 4    1  0.3704929E-001  0.2639432E+02  0.7818608E-02  0.1641746E+00
          2   -1    0    0  501    0  0.00000000000E+00  0.00000000000E+00  0.10428378561E+03  0.10428378564E+03  0.26000000000E-02 0.  1.
         -2   -1    0    0    0  501 -0.00000000000E+00 -0.00000000000E+00 -0.16701054648E+01  0.16701074886E+01  0.26000000000E-02 0. -1.
        -13    1    1    2    0    0  0.13721056183E+01  0.12577591668E+02  0.66367235168E+02  0.67562560360E+02  0.10570000000E+00 0.  1.
         13    1    1    2    0    0 -0.13721056183E+01 -0.12577591668E+02  0.36246444977E+02  0.38391332771E+02  0.10570000000E+00 0. -1.
<mgrwt>
<rscale>  0 0.26394320E+02</rscale>
<asrwt>0</asrwt>
<pdfrwt beam="1">  1        2 0.16043665E-01 0.26394320E+02</pdfrwt>
<pdfrwt beam="2">  1       -2 0.25693936E-03 0.26394320E+02</pdfrwt>
<totfact> 0.28463442E+06</totfact>
</mgrwt>
</event>
<event>
 4    1  0.3704929E-001  0.2467550E+02  0.7818608E-02  0.1665707E+00
         -2   -1    0    0    0  501 -0.00000000000E+00  0.00000000000E+00  0.10843108335E+02  0.10843108646E+02  0.26000000000E-02 0.  1.
          2   -1    0    0  501    0  0.00000000000E+00 -0.00000000000E+00 -0.14038419909E+02  0.14038420150E+02  0.26000000000E-02 0. -1.
        -13    1    1    2    0    0 -0.29924534152E+01 -0.11688533547E+02 -0.41944928934E+01  0.12774252896E+02  0.10570000000E+00 0.  1.
         13    1    1    2    0    0  0.29924534152E+01  0.11688533547E+02  0.99918131942E+00  0.12107275900E+02  0.10570000000E+00 0. -1.
<mgrwt>
<rscale>  0 0.24675503E+02</rscale>
<asrwt>0</asrwt>
<pdfrwt beam="2">  1        2 0.21597570E-02 0.24675503E+02</pdfrwt>
<pdfrwt beam="1">  1       -2 0.16681705E-02 0.24675503E+02</pdfrwt>
<totfact> 0.24885646E+06</totfact>
</mgrwt>
</event>
<event>
 4    1  0.3704929E-001  0.3046347E+02  0.7818608E-02  0.1593021E+00
         -2   -1    0    0    0  501 -0.00000000000E+00  0.00000000000E+00  0.14086936694E+02  0.14086936934E+02  0.26000000000E-02 0.  1.
          2   -1    0    0  501    0  0.00000000000E+00 -0.00000000000E+00 -0.16469566478E+02  0.16469566683E+02  0.26000000000E-02 0. -1.
        -13    1    1    2    0    0 -0.30946182754E+01  0.14233120430E+02  0.32760711098E+01  0.14929909371E+02  0.10570000000E+00 0.  1.
         13    1    1    2    0    0  0.30946182754E+01 -0.14233120430E+02 -0.56587008940E+01  0.15626594246E+02  0.10570000000E+00 0. -1.
<mgrwt>
<rscale>  0 0.30463470E+02</rscale>
<asrwt>0</asrwt>
<pdfrwt beam="2">  1        2 0.25337795E-02 0.30463470E+02</pdfrwt>
<pdfrwt beam="1">  1       -2 0.21672211E-02 0.30463470E+02</pdfrwt>
<totfact> 0.15225947E+06</totfact>
</mgrwt>
</event>
<event>
 4    1  0.3704929E-001  0.2140580E+02  0.7818608E-02  0.1718736E+00
         -2   -1    0    0    0  501 -0.00000000000E+00  0.00000000000E+00  0.56967359691E+01  0.56967365625E+01  0.26000000000E-02 0. -1.
          2   -1    0    0  501    0  0.00000000000E+00 -0.00000000000E+00 -0.20108374839E+02  0.20108375007E+02  0.26000000000E-02 0.  1.
        -13    1    1    2    0    0  0.59086897249E+01  0.89230605902E+01 -0.71027140448E+01  0.12844973486E+02  0.10570000000E+00 0. -1.
         13    1    1    2    0    0 -0.59086897249E+01 -0.89230605902E+01 -0.73089248250E+01  0.12960138084E+02  0.10570000000E+00 0.  1.
<mgrwt>
<rscale>  0 0.21405804E+02</rscale>
<asrwt>0</asrwt>
<pdfrwt beam="2">  1        2 0.30935962E-02 0.21405804E+02</pdfrwt>
<pdfrwt beam="1">  1       -2 0.87642099E-03 0.21405804E+02</pdfrwt>
<totfact> 0.35736445E+06</totfact>
</mgrwt>
</event>
<event>
 4    1  0.3704929E-001  0.3475517E+02  0.7818608E-02  0.1550786E+00
         -2   -1    0    0    0  501 -0.00000000000E+00  0.00000000000E+00  0.15601949863E+02  0.15601950080E+02  0.26000000000E-02 0. -1.
          2   -1    0    0  501    0  0.00000000000E+00 -0.00000000000E+00 -0.19355296809E+02  0.19355296983E+02  0.26000000000E-02 0.  1.
        -13    1    1    2    0    0  0.38833000682E+01  0.12548406870E+02 -0.13319406250E+02  0.18707225602E+02  0.10570000000E+00 0.  1.
         13    1    1    2    0    0 -0.38833000682E+01 -0.12548406870E+02  0.95660593047E+01  0.16250021461E+02  0.10570000000E+00 0. -1.
<mgrwt>
<rscale>  0 0.34755165E+02</rscale>
<asrwt>0</asrwt>
<pdfrwt beam="2">  1        2 0.29777380E-02 0.34755165E+02</pdfrwt>
<pdfrwt beam="1">  1       -2 0.24003000E-02 0.34755165E+02</pdfrwt>
<totfact> 0.11194734E+06</totfact>
</mgrwt>
</event>
<event>
 4    1  0.3704929E-001  0.2120606E+02  0.7818608E-02  0.1722356E+00
         -2   -1    0    0    0  501 -0.00000000000E+00  0.00000000000E+00  0.15022997901E+01  0.15023020400E+01  0.26000000000E-02 0.  1.
          2   -1    0    0  501    0  0.00000000000E+00 -0.00000000000E+00 -0.74834736842E+02  0.74834736887E+02  0.26000000000E-02 0. -1.
        -13    1    1    2    0    0  0.75914534078E+01  0.73274519538E+01 -0.32905518380E+02  0.34555839294E+02  0.10570000000E+00 0.  1.
         13    1    1    2    0    0 -0.75914534078E+01 -0.73274519538E+01 -0.40426918672E+02  0.41781199633E+02  0.10570000000E+00 0. -1.
<mgrwt>
<rscale>  0 0.21206065E+02</rscale>
<asrwt>0</asrwt>
<pdfrwt beam="2">  1        2 0.11513034E-01 0.21206065E+02</pdfrwt>
<pdfrwt beam="1">  1       -2 0.23112328E-03 0.21206065E+02</pdfrwt>
<totfact> 0.43572217E+06</totfact>
</mgrwt>
</event>
<event>
 4    1  0.3704929E-001  0.3985954E+02  0.7818608E-02  0.1509248E+00
         -2   -1    0    0    0  501 -0.00000000000E+00  0.00000000000E+00  0.32415752109E+02  0.32415752214E+02  0.26000000000E-02 0. -1.
          2   -1    0    0  501    0  0.00000000000E+00 -0.00000000000E+00 -0.12253170202E+02  0.12253170478E+02  0.26000000000E-02 0.  1.
        -13    1    1    2    0    0  0.91217064089E+01 -0.14302235761E+02 -0.16415169004E+01  0.17043040392E+02  0.10570000000E+00 0.  1.
         13    1    1    2    0    0 -0.91217064089E+01  0.14302235761E+02  0.21804098807E+02  0.27625882300E+02  0.10570000000E+00 0. -1.
<mgrwt>
<rscale>  0 0.39859540E+02</rscale>
<asrwt>0</asrwt>
<pdfrwt beam="2">  1        2 0.18851031E-02 0.39859540E+02</pdfrwt>
<pdfrwt beam="1">  1       -2 0.49870388E-02 0.39859540E+02</pdfrwt>
<totfact> 0.74591937E+05</totfact>
</mgrwt>
</event>
<event>
 4    1  0.3704929E-001  0.2117739E+02  0.7818608E-02  0.1722880E+00
         -2   -1    0    0    0  501 -0.00000000000E+00  0.00000000000E+00  0.15481894108E+01  0.15481915940E+01  0.26000000000E-02 0.  1.
          2   -1    0    0  501    0  0.00000000000E+00 -0.00000000000E+00 -0.72420300245E+02  0.72420300292E+02  0.26000000000E-02 0. -1.
        -13    1    1    2    0    0  0.85952937853E+01  0.61656221030E+01 -0.37056659854E+02  0.38537010564E+02  0.10570000000E+00 0. -1.
         13    1    1    2    0    0 -0.85952937853E+01 -0.61656221030E+01 -0.33815450980E+02  0.35431481321E+02  0.10570000000E+00 0.  1.
<mgrwt>
<rscale>  0 0.21177386E+02</rscale>
<asrwt>0</asrwt>
<pdfrwt beam="2">  1        2 0.11141582E-01 0.21177386E+02</pdfrwt>
<pdfrwt beam="1">  1       -2 0.23818321E-03 0.21177386E+02</pdfrwt>
<totfact> 0.43428506E+06</totfact>
</mgrwt>
</event>
<event>
 4    1  0.3704929E-001  0.2418317E+02  0.7818608E-02  0.1673019E+00
         -2   -1    0    0    0  501 -0.00000000000E+00  0.00000000000E+00  0.59804726297E+02  0.59804726353E+02  0.26000000000E-02 0. -1.
          2   -1    0    0  501    0  0.00000000000E+00 -0.00000000000E+00 -0.24447295865E+01  0.24447309690E+01  0.26000000000E-02 0.  1.
        -13    1    1    2    0    0  0.95720083527E+01 -0.43693986410E+01  0.44012597572E+02  0.45253009910E+02  0.10570000000E+00 0. -1.
         13    1    1    2    0    0 -0.95720083527E+01  0.43693986410E+01  0.13347399138E+02  0.16996447412E+02  0.10570000000E+00 0.  1.
<mgrwt>
<rscale>  0 0.24183170E+02</rscale>
<asrwt>0</asrwt>
<pdfrwt beam="2">  1        2 0.37611239E-03 0.24183170E+02</pdfrwt>
<pdfrwt beam="1">  1       -2 0.92007263E-02 0.24183170E+02</pdfrwt>
<totfact> 0.21639298E+06</totfact>
</mgrwt>
</event>
<event>
 4    1  0.3704929E-001  0.3308828E+02  0.7818608E-02  0.1566263E+00
          2   -1    0    0  501    0  0.00000000000E+00  0.00000000000E+00  0.24180866305E+01  0.24180880283E+01  0.26000000000E-02 0.  1.
         -2   -1    0    0    0  501 -0.00000000000E+00 -0.00000000000E+00 -0.11319215904E+03  0.11319215907E+03  0.26000000000E-02 0. -1.
        -13    1    1    2    0    0 -0.30031204338E+01  0.16260025321E+02 -0.53504811754E+02  0.56001635772E+02  0.10570000000E+00 0.  1.
         13    1    1    2    0    0  0.30031204338E+01 -0.16260025321E+02 -0.57269260655E+02  0.59608611326E+02  0.10570000000E+00 0. -1.
<mgrwt>
<rscale>  0 0.33088278E+02</rscale>
<asrwt>0</asrwt>
<pdfrwt beam="1">  1        2 0.37201353E-03 0.33088278E+02</pdfrwt>
<pdfrwt beam="2">  1       -2 0.17414174E-01 0.33088278E+02</pdfrwt>
<totfact> 0.91968790E+05</totfact>
</mgrwt>
</event>
<event>
 4    1  0.3704929E-001  0.2368525E+02  0.7818608E-02  0.1680637E+00
         -2   -1    0    0    0  501 -0.00000000000E+00  0.00000000000E+00  0.48454735793E+02  0.48454735863E+02  0.26000000000E-02 0.  1.
          2   -1    0    0  501    0  0.00000000000E+00 -0.00000000000E+00 -0.28944069970E+01  0.28944081648E+01  0.26000000000E-02 0. -1.
        -13    1    1    2    0    0  0.10478548070E+02 -0.46691562152E+01  0.29151073548E+02  0.31327260507E+02  0.10570000000E+00 0.  1.
         13    1    1    2    0    0 -0.10478548070E+02  0.46691562152E+01  0.16409255248E+02  0.20021883520E+02  0.10570000000E+00 0. -1.
<mgrwt>
<rscale>  0 0.23685249E+02</rscale>
<asrwt>0</asrwt>
<pdfrwt beam="2">  1        2 0.44529351E-03 0.23685249E+02</pdfrwt>
<pdfrwt beam="1">  1       -2 0.74545743E-02 0.23685249E+02</pdfrwt>
<totfact> 0.23414308E+06</totfact>
</mgrwt>
</event>
<event>
 4    1  0.3704929E-001  0.3693114E+02  0.7818608E-02  0.1532091E+00
          2   -1    0    0  501    0  0.00000000000E+00  0.00000000000E+00  0.11322903518E+03  0.11322903521E+03  0.26000000000E-02 0.  1.
         -2   -1    0    0    0  501 -0.00000000000E+00 -0.00000000000E+00 -0.30113933012E+01  0.30113944236E+01  0.26000000000E-02 0. -1.
        -13    1    1    2    0    0  0.10601815987E+02  0.14617153523E+02  0.42956743746E+02  0.46597775538E+02  0.10570000000E+00 0. -1.
         13    1    1    2    0    0 -0.10601815987E+02 -0.14617153523E+02  0.67260898135E+02  0.69642654097E+02  0.10570000000E+00 0.  1.
<mgrwt>
<rscale>  0 0.36931137E+02</rscale>
<asrwt>0</asrwt>
<pdfrwt beam="1">  1        2 0.17419849E-01 0.36931137E+02</pdfrwt>
<pdfrwt beam="2">  1       -2 0.46329143E-03 0.36931137E+02</pdfrwt>
<totfact> 0.13108410E+06</totfact>
</mgrwt>
</event>
<event>
 4    1  0.3704929E-001  0.2899924E+02  0.7818608E-02  0.1609422E+00
          2   -1    0    0  501    0  0.00000000000E+00  0.00000000000E+00  0.50080446359E+01  0.50080453108E+01  0.26000000000E-02 0. -1.
         -2   -1    0    0    0  501 -0.00000000000E+00 -0.00000000000E+00 -0.41980259231E+02  0.41980259312E+02  0.26000000000E-02 0.  1.
        -13    1    1    2    0    0 -0.94422600788E+01 -0.10977119461E+02 -0.19714173452E+02  0.24460442237E+02  0.10570000000E+00 0.  1.
         13    1    1    2    0    0  0.94422600788E+01  0.10977119461E+02 -0.17258041143E+02  0.22527862385E+02  0.10570000000E+00 0. -1.
<mgrwt>
<rscale>  0 0.28999243E+02</rscale>
<asrwt>0</asrwt>
<pdfrwt beam="1">  1        2 0.77046849E-03 0.28999243E+02</pdfrwt>
<pdfrwt beam="2">  1       -2 0.64585013E-02 0.28999243E+02</pdfrwt>
<totfact> 0.15086521E+06</totfact>
</mgrwt>
</event>
<event>
 4    1  0.3704929E-001  0.2312676E+02  0.7818608E-02  0.1689464E+00
          2   -1    0    0  501    0  0.00000000000E+00  0.00000000000E+00  0.90549104751E+01  0.90549108484E+01  0.26000000000E-02 0. -1.
         -2   -1    0    0    0  501 -0.00000000000E+00 -0.00000000000E+00 -0.14766771303E+02  0.14766771531E+02  0.26000000000E-02 0.  1.
        -13    1    1    2    0    0  0.10909177938E+02  0.32983101850E+01 -0.84493076593E+00  0.11428652320E+02  0.10570000000E+00 0. -1.
         13    1    1    2    0    0 -0.10909177938E+02 -0.32983101850E+01 -0.48669300615E+01  0.12393030060E+02  0.10570000000E+00 0.  1.
<mgrwt>
<rscale>  0 0.23126764E+02</rscale>
<asrwt>0</asrwt>
<pdfrwt beam="1">  1        2 0.13930632E-02 0.23126764E+02</pdfrwt>
<pdfrwt beam="2">  1       -2 0.22718110E-02 0.23126764E+02</pdfrwt>
<totfact> 0.27938789E+06</totfact>
</mgrwt>
</event>
<event>
 4    1  0.3704929E-001  0.2723627E+02  0.7818608E-02  0.1630814E+00
         -2   -1    0    0    0  501 -0.00000000000E+00  0.00000000000E+00  0.18210932726E+02  0.18210932912E+02  0.26000000000E-02 0.  1.
          2   -1    0    0  501    0  0.00000000000E+00 -0.00000000000E+00 -0.10183638947E+02  0.10183639279E+02  0.26000000000E-02 0. -1.
        -13    1    1    2    0    0 -0.11616727044E+02  0.70994530259E+01  0.36977451603E+01  0.14107979027E+02  0.10570000000E+00 0. -1.
         13    1    1    2    0    0  0.11616727044E+02 -0.70994530259E+01  0.43295486192E+01  0.14286593163E+02  0.10570000000E+00 0.  1.
<mgrwt>
<rscale>  0 0.27236268E+02</rscale>
<asrwt>0</asrwt>
<pdfrwt beam="2">  1        2 0.15667137E-02 0.27236268E+02</pdfrwt>
<pdfrwt beam="1">  1       -2 0.28016820E-02 0.27236268E+02</pdfrwt>
<totfact> 0.19074875E+06</totfact>
</mgrwt>
</event>
<event>
 4    1  0.3704929E-001  0.2508915E+02  0.7818608E-02  0.1659725E+00
         -2   -1    0    0    0  501 -0.00000000000E+00  0.00000000000E+00  0.61097484963E+01  0.61097490495E+01  0.26000000000E-02 0. -1.
          2   -1    0    0  501    0  0.00000000000E+00 -0.00000000000E+00 -0.25756606278E+02  0.25756606409E+02  0.26000000000E-02 0.  1.
        -13    1    1    2    0    0 -0.10846396251E+02 -0.52503484906E+01 -0.53971297607E+01  0.13204190738E+02  0.10570000000E+00 0.  1.
         13    1    1    2    0    0  0.10846396251E+02  0.52503484906E+01 -0.14249728021E+02  0.18662164721E+02  0.10570000000E+00 0. -1.
<mgrwt>
<rscale>  0 0.25089153E+02</rscale>
<asrwt>0</asrwt>
<pdfrwt beam="2">  1        2 0.39625548E-02 0.25089153E+02</pdfrwt>
<pdfrwt beam="1">  1       -2 0.93996137E-03 0.25089153E+02</pdfrwt>
<totfact> 0.25375525E+06</totfact>
</mgrwt>
</event>
<event>
 4    1  0.3704929E-001  0.4656158E+02  0.7818608E-02  0.1464822E+00
          2   -1    0    0  501    0  0.00000000000E+00  0.00000000000E+00  0.38611395932E+02  0.38611396020E+02  0.26000000000E-02 0.  1.
         -2   -1    0    0    0  501 -0.00000000000E+00 -0.00000000000E+00 -0.14037178652E+02  0.14037178893E+02  0.26000000000E-02 0. -1.
        -13    1    1    2    0    0 -0.19095623778E+02  0.76731764980E+01 -0.19859542119E-01  0.20579894362E+02  0.10570000000E+00 0. -1.
         13    1    1    2    0    0  0.19095623778E+02 -0.76731764980E+01  0.24594076822E+02  0.32068680551E+02  0.10570000000E+00 0.  1.
<mgrwt>
<rscale>  0 0.46561575E+02</rscale>
<asrwt>0</asrwt>
<pdfrwt beam="1">  1        2 0.59402149E-02 0.46561575E+02</pdfrwt>
<pdfrwt beam="2">  1       -2 0.21595659E-02 0.46561575E+02</pdfrwt>
<totfact> 0.58829137E+05</totfact>
</mgrwt>
</event>
<event>
 4    1  0.3704929E-001  0.2745420E+02  0.7818608E-02  0.1628064E+00
         -2   -1    0    0    0  501 -0.00000000000E+00  0.00000000000E+00  0.21009059345E+01  0.21009075434E+01  0.26000000000E-02 0. -1.
          2   -1    0    0  501    0  0.00000000000E+00 -0.00000000000E+00 -0.89691406077E+02  0.89691406115E+02  0.26000000000E-02 0.  1.
        -13    1    1    2    0    0  0.11414689046E+02  0.37247876483E+01 -0.21553519029E+02  0.24672545958E+02  0.10570000000E+00 0. -1.
         13    1    1    2    0    0 -0.11414689046E+02 -0.37247876483E+01 -0.66036981113E+02  0.67119767700E+02  0.10570000000E+00 0.  1.
<mgrwt>
<rscale>  0 0.27454201E+02</rscale>
<asrwt>0</asrwt>
<pdfrwt beam="2">  1        2 0.13798675E-01 0.27454201E+02</pdfrwt>
<pdfrwt beam="1">  1       -2 0.32321649E-03 0.27454201E+02</pdfrwt>
<totfact> 0.25081375E+06</totfact>
</mgrwt>
</event>
<event>
 4    1  0.3704929E-001  0.8596255E+02  0.7818608E-02  0.1312934E+00
         -2   -1    0    0    0  501 -0.00000000000E+00  0.00000000000E+00  0.29374191027E+02  0.29374191142E+02  0.26000000000E-02 0.  1.
          2   -1    0    0  501    0  0.00000000000E+00 -0.00000000000E+00 -0.62891597255E+02  0.62891597309E+02  0.26000000000E-02 0. -1.
        -13    1    1    2    0    0  0.63710493472E+01  0.20162425132E+02  0.23405258486E+02  0.31542526123E+02  0.10570000000E+00 0.  1.
         13    1    1    2    0    0 -0.63710493472E+01 -0.20162425132E+02 -0.56922664715E+02  0.60723262327E+02  0.10570000000E+00 0. -1.
<mgrwt>
<rscale>  0 0.85962545E+02</rscale>
<asrwt>0</asrwt>
<pdfrwt beam="2">  1        2 0.96756303E-02 0.85962545E+02</pdfrwt>
<pdfrwt beam="1">  1       -2 0.45191063E-02 0.85962545E+02</pdfrwt>
<totfact> 0.12665626E+05</totfact>
</mgrwt>
</event>
<event>
 4    1  0.3704929E-001  0.3584168E+02  0.7818608E-02  0.1541251E+00
         -2   -1    0    0    0  501 -0.00000000000E+00  0.00000000000E+00  0.11289967146E+02  0.11289967446E+02  0.26000000000E-02 0. -1.
          2   -1    0    0  501    0  0.00000000000E+00 -0.00000000000E+00 -0.28446183077E+02  0.28446183196E+02  0.26000000000E-02 0.  1.
        -13    1    1    2    0    0  0.10426664674E+02  0.10968224281E+02  0.20631590412E+01  0.15273672702E+02  0.10570000000E+00 0. -1.
         13    1    1    2    0    0 -0.10426664674E+02 -0.10968224281E+02 -0.19219374972E+02  0.24462477939E+02  0.10570000000E+00 0.  1.
<mgrwt>
<rscale>  0 0.35841679E+02</rscale>
<asrwt>0</asrwt>
<pdfrwt beam="2">  1        2 0.43763359E-02 0.35841679E+02</pdfrwt>
<pdfrwt beam="1">  1       -2 0.17369181E-02 0.35841679E+02</pdfrwt>
<totfact> 0.10876362E+06</totfact>
</mgrwt>
</event>
<event>
 4    1  0.3704929E-001  0.3104323E+02  0.7818608E-02  0.1586835E+00
          2   -1    0    0  501    0  0.00000000000E+00  0.00000000000E+00  0.37235121774E+02  0.37235121865E+02  0.26000000000E-02 0. -1.
         -2   -1    0    0    0  501 -0.00000000000E+00 -0.00000000000E+00 -0.64702485906E+01  0.64702491129E+01  0.26000000000E-02 0.  1.
        -13    1    1    2    0    0 -0.78633581431E+01 -0.63504800962E+01  0.31966151485E+02  0.33526213803E+02  0.10570000000E+00 0. -1.
         13    1    1    2    0    0  0.78633581431E+01  0.63504800962E+01 -0.12012783012E+01  0.10179157175E+02  0.10570000000E+00 0.  1.
<mgrwt>
<rscale>  0 0.31043228E+02</rscale>
<asrwt>0</asrwt>
<pdfrwt beam="1">  1        2 0.57284803E-02 0.31043228E+02</pdfrwt>
<pdfrwt beam="2">  1       -2 0.99542291E-03 0.31043228E+02</pdfrwt>
<totfact> 0.16020724E+06</totfact>
</mgrwt>
</event>
<event>
 4    1  0.3704929E-001  0.2625739E+02  0.7818608E-02  0.1643572E+00
          2   -1    0    0  501    0  0.00000000000E+00  0.00000000000E+00  0.43432014318E+02  0.43432014396E+02  0.26000000000E-02 0.  1.
         -2   -1    0    0    0  501 -0.00000000000E+00 -0.00000000000E+00 -0.39685606332E+01  0.39685614849E+01  0.26000000000E-02 0. -1.
        -13    1    1    2    0    0  0.93557016971E+01 -0.79254289163E+01  0.11262560169E+02  0.16649264602E+02  0.10570000000E+00 0. -1.
         13    1    1    2    0    0 -0.93557016971E+01  0.79254289163E+01  0.28200893516E+02  0.30751311278E+02  0.10570000000E+00 0.  1.
<mgrwt>
<rscale>  0 0.26257388E+02</rscale>
<asrwt>0</asrwt>
<pdfrwt beam="1">  1        2 0.66818482E-02 0.26257388E+02</pdfrwt>
<pdfrwt beam="2">  1       -2 0.61054788E-03 0.26257388E+02</pdfrwt>
<totfact> 0.24364272E+06</totfact>
</mgrwt>
</event>
<event>
 4    1  0.3704929E-001  0.2089427E+02  0.7818608E-02  0.1728108E+00
         -2   -1    0    0    0  501 -0.00000000000E+00  0.00000000000E+00  0.13406328933E+02  0.13406329185E+02  0.26000000000E-02 0.  1.
          2   -1    0    0  501    0  0.00000000000E+00 -0.00000000000E+00 -0.81411230491E+01  0.81411234643E+01  0.26000000000E-02 0. -1.
        -13    1    1    2    0    0 -0.98978413037E+01 -0.15406842783E+01 -0.42495065934E+00  0.10026600923E+02  0.10570000000E+00 0. -1.
         13    1    1    2    0    0  0.98978413037E+01  0.15406842783E+01  0.56901565431E+01  0.11520851726E+02  0.10570000000E+00 0.  1.
<mgrwt>
<rscale>  0 0.20894265E+02</rscale>
<asrwt>0</asrwt>
<pdfrwt beam="2">  1        2 0.12524805E-02 0.20894265E+02</pdfrwt>
<pdfrwt beam="1">  1       -2 0.20625122E-02 0.20894265E+02</pdfrwt>
<totfact> 0.35136017E+06</totfact>
</mgrwt>
</event>
<event>
 4    1  0.3704929E-001  0.5557311E+02  0.7818608E-02  0.1417408E+00
         -2   -1    0    0    0  501 -0.00000000000E+00  0.00000000000E+00  0.14883217377E+03  0.14883217380E+03  0.26000000000E-02 0.  1.
          2   -1    0    0  501    0  0.00000000000E+00 -0.00000000000E+00 -0.51876726143E+01  0.51876732658E+01  0.26000000000E-02 0. -1.
        -13    1    1    2    0    0  0.48513404490E+01 -0.26936248759E+02  0.58535180289E+02  0.64617919383E+02  0.10570000000E+00 0. -1.
         13    1    1    2    0    0 -0.48513404490E+01  0.26936248759E+02  0.85109320871E+02  0.89401927681E+02  0.10570000000E+00 0.  1.
<mgrwt>
<rscale>  0 0.55573110E+02</rscale>
<asrwt>0</asrwt>
<pdfrwt beam="2">  1        2 0.79810354E-03 0.55573110E+02</pdfrwt>
<pdfrwt beam="1">  1       -2 0.22897257E-01 0.55573110E+02</pdfrwt>
<totfact> 0.24246681E+05</totfact>
</mgrwt>
</event>
<event>
 4    1  0.3704929E-001  0.2333054E+02  0.7818608E-02  0.1686208E+00
         -2   -1    0    0    0  501 -0.00000000000E+00  0.00000000000E+00  0.46110650664E+02  0.46110650738E+02  0.26000000000E-02 0.  1.
          2   -1    0    0  501    0  0.00000000000E+00 -0.00000000000E+00 -0.29511294044E+01  0.29511305497E+01  0.26000000000E-02 0. -1.
        -13    1    1    2    0    0  0.18285595746E+01 -0.10734970571E+02  0.30372830913E+02  0.32266131678E+02  0.10570000000E+00 0.  1.
         13    1    1    2    0    0 -0.18285595746E+01  0.10734970571E+02  0.12786690346E+02  0.16795649609E+02  0.10570000000E+00 0. -1.
<mgrwt>
<rscale>  0 0.23330540E+02</rscale>
<asrwt>0</asrwt>
<pdfrwt beam="2">  1        2 0.45402003E-03 0.23330540E+02</pdfrwt>
<pdfrwt beam="1">  1       -2 0.70939459E-02 0.23330540E+02</pdfrwt>
<totfact> 0.24386185E+06</totfact>
</mgrwt>
</event>
<event>
 4    1  0.3704929E-001  0.2198487E+02  0.7818608E-02  0.1708514E+00
          2   -1    0    0  501    0  0.00000000000E+00  0.00000000000E+00  0.31151023035E+01  0.31151033886E+01  0.26000000000E-02 0.  1.
         -2   -1    0    0    0  501 -0.00000000000E+00 -0.00000000000E+00 -0.38789605115E+02  0.38789605202E+02  0.26000000000E-02 0. -1.
        -13    1    1    2    0    0 -0.41397494490E-01  0.10586796935E+02 -0.12202094352E+02  0.16155007340E+02  0.10570000000E+00 0. -1.
         13    1    1    2    0    0  0.41397494490E-01 -0.10586796935E+02 -0.23472408460E+02  0.25749701250E+02  0.10570000000E+00 0.  1.
<mgrwt>
<rscale>  0 0.21984869E+02</rscale>
<asrwt>0</asrwt>
<pdfrwt beam="1">  1        2 0.47924663E-03 0.21984869E+02</pdfrwt>
<pdfrwt beam="2">  1       -2 0.59676313E-02 0.21984869E+02</pdfrwt>
<totfact> 0.28460906E+06</totfact>
</mgrwt>
</event>
<event>
 4    1  0.3704929E-001  0.2445638E+02  0.7818608E-02  0.1668935E+00
         -2   -1    0    0    0  501 -0.00000000000E+00  0.00000000000E+00  0.14650790180E+01  0.14650813250E+01  0.26000000000E-02 0.  1.
          2   -1    0    0  501    0  0.00000000000E+00 -0.00000000000E+00 -0.10206171022E+03  0.10206171026E+03  0.26000000000E-02 0. -1.
        -13    1    1    2    0    0  0.36951914050E+01 -0.11498534201E+02 -0.58382013852E+02  0.59618297880E+02  0.10570000000E+00 0. -1.
         13    1    1    2    0    0 -0.36951914050E+01  0.11498534201E+02 -0.42214617353E+02  0.43908493700E+02  0.10570000000E+00 0.  1.
<mgrwt>
<rscale>  0 0.24456377E+02</rscale>
<asrwt>0</asrwt>
<pdfrwt beam="2">  1        2 0.15701796E-01 0.24456377E+02</pdfrwt>
<pdfrwt beam="1">  1       -2 0.22539703E-03 0.24456377E+02</pdfrwt>
<totfact> 0.33742433E+06</totfact>
</mgrwt>
</event>
<event>
 4    1  0.3704929E-001  0.3132210E+02  0.7818608E-02  0.1583918E+00
          2   -1    0    0  501    0  0.00000000000E+00  0.00000000000E+00  0.33974638285E+02  0.33974638384E+02  0.26000000000E-02 0. -1.
         -2   -1    0    0    0  501 -0.00000000000E+00 -0.00000000000E+00 -0.72191632942E+01  0.72191637623E+01  0.26000000000E-02 0.  1.
        -13    1    1    2    0    0 -0.83398101391E+01 -0.13223735681E+02  0.14581444247E+02  0.21378711545E+02  0.10570000000E+00 0. -1.
         13    1    1    2    0    0  0.83398101391E+01  0.13223735681E+02  0.12174030744E+02  0.19815090602E+02  0.10570000000E+00 0.  1.
<mgrwt>
<rscale>  0 0.31322099E+02</rscale>
<asrwt>0</asrwt>
<pdfrwt beam="1">  1        2 0.52268674E-02 0.31322099E+02</pdfrwt>
<pdfrwt beam="2">  1       -2 0.11106406E-02 0.31322099E+02</pdfrwt>
<totfact> 0.15482649E+06</totfact>
</mgrwt>
</event>
<event>
 4    1  0.3704929E-001  0.2734718E+02  0.7818608E-02  0.1629410E+00
          2   -1    0    0  501    0  0.00000000000E+00  0.00000000000E+00  0.93866326427E+01  0.93866330027E+01  0.26000000000E-02 0.  1.
         -2   -1    0    0    0  501 -0.00000000000E+00 -0.00000000000E+00 -0.19918443826E+02  0.19918443996E+02  0.26000000000E-02 0. -1.
        -13    1    1    2    0    0 -0.13538981070E+02 -0.75305548668E+00 -0.71480252225E+01  0.15328944454E+02  0.10570000000E+00 0. -1.
         13    1    1    2    0    0  0.13538981070E+02  0.75305548668E+00 -0.33837859610E+01  0.13976132545E+02  0.10570000000E+00 0.  1.
<mgrwt>
<rscale>  0 0.27347184E+02</rscale>
<asrwt>0</asrwt>
<pdfrwt beam="1">  1        2 0.14440974E-02 0.27347184E+02</pdfrwt>
<pdfrwt beam="2">  1       -2 0.30643760E-02 0.27347184E+02</pdfrwt>
<totfact> 0.18739216E+06</totfact>
</mgrwt>
</event>
<event>
 4    1  0.3704929E-001  0.4599248E+02  0.7818608E-02  0.1468239E+00
         -2   -1    0    0    0  501 -0.00000000000E+00  0.00000000000E+00  0.69725769111E+02  0.69725769160E+02  0.26000000000E-02 0.  1.
          2   -1    0    0  501    0  0.00000000000E+00 -0.00000000000E+00 -0.75843835875E+01  0.75843840332E+01  0.26000000000E-02 0. -1.
        -13    1    1    2    0    0  0.11532606183E+02  0.66327264077E+01 -0.45837119398E+00  0.13312225269E+02  0.10570000000E+00 0. -1.
         13    1    1    2    0    0 -0.11532606183E+02 -0.66327264077E+01  0.62599756718E+02  0.63997927924E+02  0.10570000000E+00 0.  1.
<mgrwt>
<rscale>  0 0.45992478E+02</rscale>
<asrwt>0</asrwt>
<pdfrwt beam="2">  1        2 0.11668283E-02 0.45992478E+02</pdfrwt>
<pdfrwt beam="1">  1       -2 0.10727041E-01 0.45992478E+02</pdfrwt>
<totfact> 0.46864186E+05</totfact>
</mgrwt>
</event>
<event>
 4    1  0.3704929E-001  0.3687619E+02  0.7818608E-02  0.1532544E+00
          2   -1    0    0  501    0  0.00000000000E+00  0.00000000000E+00  0.23274448334E+02  0.23274448480E+02  0.26000000000E-02 0.  1.
         -2   -1    0    0    0  501 -0.00000000000E+00 -0.00000000000E+00 -0.14606718140E+02  0.14606718371E+02  0.26000000000E-02 0. -1.
        -13    1    1    2    0    0 -0.12981217430E+02  0.96024857864E+00 -0.90802650133E+01  0.15871246595E+02  0.10570000000E+00 0. -1.
         13    1    1    2    0    0  0.12981217430E+02 -0.96024857864E+00  0.17747995208E+02  0.22009920256E+02  0.10570000000E+00 0.  1.
<mgrwt>
<rscale>  0 0.36876188E+02</rscale>
<asrwt>0</asrwt>
<pdfrwt beam="1">  1        2 0.35806844E-02 0.36876188E+02</pdfrwt>
<pdfrwt beam="2">  1       -2 0.22471874E-02 0.36876188E+02</pdfrwt>
<totfact> 0.98730724E+05</totfact>
</mgrwt>
</event>
<event>
 4    1  0.3704929E-001  0.3038139E+02  0.7818608E-02  0.1593911E+00
         -2   -1    0    0    0  501 -0.00000000000E+00  0.00000000000E+00  0.39545451722E+01  0.39545460269E+01  0.26000000000E-02 0. -1.
          2   -1    0    0  501    0  0.00000000000E+00 -0.00000000000E+00 -0.58352413132E+02  0.58352413190E+02  0.26000000000E-02 0.  1.
        -13    1    1    2    0    0  0.37310856847E-01 -0.14955790044E+02 -0.32651610547E+02  0.35914006902E+02  0.10570000000E+00 0.  1.
         13    1    1    2    0    0 -0.37310856847E-01  0.14955790044E+02 -0.21746257412E+02  0.26392952314E+02  0.10570000000E+00 0. -1.
<mgrwt>
<rscale>  0 0.30381394E+02</rscale>
<asrwt>0</asrwt>
<pdfrwt beam="2">  1        2 0.89772938E-02 0.30381394E+02</pdfrwt>
<pdfrwt beam="1">  1       -2 0.60839167E-03 0.30381394E+02</pdfrwt>
<totfact> 0.18116810E+06</totfact>
</mgrwt>
</event>
<event>
 4    1  0.3704929E-001  0.3890472E+02  0.7818608E-02  0.1516430E+00
          2   -1    0    0  501    0  0.00000000000E+00  0.00000000000E+00  0.94482136327E+02  0.94482136362E+02  0.26000000000E-02 0.  1.
         -2   -1    0    0    0  501 -0.00000000000E+00 -0.00000000000E+00 -0.40049287317E+01  0.40049295756E+01  0.26000000000E-02 0. -1.
        -13    1    1    2    0    0  0.14040907803E+02 -0.77525978377E+01  0.73100365664E+02  0.74839324541E+02  0.10570000000E+00 0.  1.
         13    1    1    2    0    0 -0.14040907803E+02  0.77525978377E+01  0.17376841931E+02  0.23647741397E+02  0.10570000000E+00 0. -1.
<mgrwt>
<rscale>  0 0.38904718E+02</rscale>
<asrwt>0</asrwt>
<pdfrwt beam="1">  1        2 0.14535713E-01 0.38904718E+02</pdfrwt>
<pdfrwt beam="2">  1       -2 0.61614296E-03 0.38904718E+02</pdfrwt>
<totfact> 0.11029424E+06</totfact>
</mgrwt>
</event>
<event>
 4    1  0.3704929E-001  0.2780556E+02  0.7818608E-02  0.1623694E+00
          2   -1    0    0  501    0  0.00000000000E+00  0.00000000000E+00  0.16974413119E+02  0.16974413318E+02  0.26000000000E-02 0.  1.
         -2   -1    0    0    0  501 -0.00000000000E+00 -0.00000000000E+00 -0.11386981056E+02  0.11386981353E+02  0.26000000000E-02 0. -1.
        -13    1    1    2    0    0 -0.36747620939E+01 -0.12892374146E+02  0.65495744141E+01  0.14920632864E+02  0.10570000000E+00 0.  1.
         13    1    1    2    0    0  0.36747620939E+01  0.12892374146E+02 -0.96214235141E+00  0.13440761807E+02  0.10570000000E+00 0. -1.
<mgrwt>
<rscale>  0 0.27805563E+02</rscale>
<asrwt>0</asrwt>
<pdfrwt beam="1">  1        2 0.26114482E-02 0.27805563E+02</pdfrwt>
<pdfrwt beam="2">  1       -2 0.17518433E-02 0.27805563E+02</pdfrwt>
<totfact> 0.19055625E+06</totfact>
</mgrwt>
</event>
<event>
 4    1  0.3704929E-001  0.4429318E+02  0.7818608E-02  0.1478803E+00
         -2   -1    0    0    0  501 -0.00000000000E+00  0.00000000000E+00  0.20909036639E+01  0.20909052804E+01  0.26000000000E-02 0. -1.
          2   -1    0    0  501    0  0.00000000000E+00 -0.00000000000E+00 -0.23457380233E+03  0.23457380235E+03  0.26000000000E-02 0.  1.
        -13    1    1    2    0    0  0.19438490042E+02  0.10571747262E+02 -0.11133416467E+03  0.11351177970E+03  0.10570000000E+00 0.  1.
         13    1    1    2    0    0 -0.19438490042E+02 -0.10571747262E+02 -0.12114873399E+03  0.12315292792E+03  0.10570000000E+00 0. -1.
<mgrwt>
<rscale>  0 0.44293179E+02</rscale>
<asrwt>0</asrwt>
<pdfrwt beam="2">  1        2 0.36088257E-01 0.44293179E+02</pdfrwt>
<pdfrwt beam="1">  1       -2 0.32167780E-03 0.44293179E+02</pdfrwt>
<totfact> 0.10490684E+06</totfact>
</mgrwt>
</event>
<event>
 4    1  0.3704929E-001  0.2152905E+03  0.7818608E-02  0.1137444E+00
          2   -1    0    0  501    0  0.00000000000E+00  0.00000000000E+00  0.13702705651E+03  0.13702705654E+03  0.26000000000E-02 0. -1.
         -2   -1    0    0    0  501 -0.00000000000E+00 -0.00000000000E+00 -0.84563609751E+02  0.84563609791E+02  0.26000000000E-02 0.  1.
        -13    1    1    2    0    0 -0.56537261645E+02  0.30232800403E+02 -0.62768366616E+02  0.89723816206E+02  0.10570000000E+00 0.  1.
         13    1    1    2    0    0  0.56537261645E+02 -0.30232800403E+02  0.11523181337E+03  0.13186685012E+03  0.10570000000E+00 0. -1.
<mgrwt>
<rscale>  0 0.21529053E+03</rscale>
<asrwt>0</asrwt>
<pdfrwt beam="1">  1        2 0.21081086E-01 0.21529053E+03</pdfrwt>
<pdfrwt beam="2">  1       -2 0.13009786E-01 0.21529053E+03</pdfrwt>
<totfact> 0.11016888E+04</totfact>
</mgrwt>
</event>
<event>
 4    1  0.3704929E-001  0.2645441E+02  0.7818608E-02  0.1640950E+00
          2   -1    0    0  501    0  0.00000000000E+00  0.00000000000E+00  0.58229182642E+02  0.58229182700E+02  0.26000000000E-02 0. -1.
         -2   -1    0    0    0  501 -0.00000000000E+00 -0.00000000000E+00 -0.30046593750E+01  0.30046604999E+01  0.26000000000E-02 0.  1.
        -13    1    1    2    0    0  0.42395776676E+01 -0.11657708131E+02  0.38237573932E+02  0.40199495151E+02  0.10570000000E+00 0.  1.
         13    1    1    2    0    0 -0.42395776676E+01  0.11657708131E+02  0.16986949334E+02  0.21034348049E+02  0.10570000000E+00 0. -1.
<mgrwt>
<rscale>  0 0.26454406E+02</rscale>
<asrwt>0</asrwt>
<pdfrwt beam="1">  1        2 0.89583350E-02 0.26454406E+02</pdfrwt>
<pdfrwt beam="2">  1       -2 0.46225543E-03 0.26454406E+02</pdfrwt>
<totfact> 0.25093177E+06</totfact>
</mgrwt>
</event>
<event>
 4    1  0.3704929E-001  0.2280714E+02  0.7818608E-02  0.1694656E+00
          2   -1    0    0  501    0  0.00000000000E+00  0.00000000000E+00  0.20831653227E+02  0.20831653390E+02  0.26000000000E-02 0.  1.
         -2   -1    0    0    0  501 -0.00000000000E+00 -0.00000000000E+00 -0.62424897268E+01  0.62424902683E+01  0.26000000000E-02 0. -1.
        -13    1    1    2    0    0  0.24059363135E+01  0.11000564780E+02  0.94278018002E+01  0.14686578033E+02  0.10570000000E+00 0. -1.
         13    1    1    2    0    0 -0.24059363135E+01 -0.11000564780E+02  0.51613617004E+01  0.12387565625E+02  0.10570000000E+00 0.  1.
<mgrwt>
<rscale>  0 0.22807138E+02</rscale>
<asrwt>0</asrwt>
<pdfrwt beam="1">  1        2 0.32048698E-02 0.22807138E+02</pdfrwt>
<pdfrwt beam="2">  1       -2 0.96038308E-03 0.22807138E+02</pdfrwt>
<totfact> 0.30994609E+06</totfact>
</mgrwt>
</event>
<event>
 4    1  0.3704929E-001  0.3546355E+02  0.7818608E-02  0.1544522E+00
         -2   -1    0    0    0  501 -0.00000000000E+00  0.00000000000E+00  0.70472908627E+02  0.70472908675E+02  0.26000000000E-02 0.  1.
          2   -1    0    0  501    0  0.00000000000E+00 -0.00000000000E+00 -0.44615126365E+01  0.44615133941E+01  0.26000000000E-02 0. -1.
        -13    1    1    2    0    0 -0.13210387524E+02  0.70887881800E+00  0.57952308018E+02  0.59443233634E+02  0.10570000000E+00 0.  1.
         13    1    1    2    0    0  0.13210387524E+02 -0.70887881800E+00  0.80590879730E+01  0.15491188436E+02  0.10570000000E+00 0. -1.
<mgrwt>
<rscale>  0 0.35463548E+02</rscale>
<asrwt>0</asrwt>
<pdfrwt beam="2">  1        2 0.68638659E-03 0.35463548E+02</pdfrwt>
<pdfrwt beam="1">  1       -2 0.10841987E-01 0.35463548E+02</pdfrwt>
<totfact> 0.86948610E+05</totfact>
</mgrwt>
</event>
<event>
 4    1  0.3704929E-001  0.3988860E+02  0.7818608E-02  0.1509033E+00
         -2   -1    0    0    0  501 -0.00000000000E+00  0.00000000000E+00  0.51913197512E+02  0.51913197577E+02  0.26000000000E-02 0. -1.
          2   -1    0    0  501    0  0.00000000000E+00 -0.00000000000E+00 -0.76623131785E+01  0.76623136197E+01  0.26000000000E-02 0.  1.
        -13    1    1    2    0    0  0.12690236582E+02  0.12862542210E+02  0.95160716182E+01  0.20421897271E+02  0.10570000000E+00 0.  1.
         13    1    1    2    0    0 -0.12690236582E+02 -0.12862542210E+02  0.34734812715E+02  0.39153613926E+02  0.10570000000E+00 0. -1.
<mgrwt>
<rscale>  0 0.39888605E+02</rscale>
<asrwt>0</asrwt>
<pdfrwt beam="2">  1        2 0.11788174E-02 0.39888605E+02</pdfrwt>
<pdfrwt beam="1">  1       -2 0.79866460E-02 0.39888605E+02</pdfrwt>
<totfact> 0.69464282E+05</totfact>
</mgrwt>
</event>
<event>
 4    1  0.3704929E-001  0.3482862E+02  0.7818608E-02  0.1550128E+00
          2   -1    0    0  501    0  0.00000000000E+00  0.00000000000E+00  0.46723448073E+01  0.46723455307E+01  0.26000000000E-02 0.  1.
         -2   -1    0    0    0  501 -0.00000000000E+00 -0.00000000000E+00 -0.64904935478E+02  0.64904935530E+02  0.26000000000E-02 0. -1.
        -13    1    1    2    0    0 -0.51952291194E+01  0.12362708521E+02 -0.52309709906E+02  0.54001332304E+02  0.10570000000E+00 0. -1.
         13    1    1    2    0    0  0.51952291194E+01 -0.12362708521E+02 -0.79228807641E+01  0.15575948757E+02  0.10570000000E+00 0.  1.
<mgrwt>
<rscale>  0 0.34828624E+02</rscale>
<asrwt>0</asrwt>
<pdfrwt beam="1">  1        2 0.71882239E-03 0.34828624E+02</pdfrwt>
<pdfrwt beam="2">  1       -2 0.99853741E-02 0.34828624E+02</pdfrwt>
<totfact> 0.92118633E+05</totfact>
</mgrwt>
</event>
<event>
 4    1  0.3704929E-001  0.4746768E+02  0.7818608E-02  0.1459499E+00
         -2   -1    0    0    0  501 -0.00000000000E+00  0.00000000000E+00  0.91597906257E+01  0.91597909947E+01  0.26000000000E-02 0.  1.
          2   -1    0    0  501    0  0.00000000000E+00 -0.00000000000E+00 -0.61496508237E+02  0.61496508292E+02  0.26000000000E-02 0. -1.
        -13    1    1    2    0    0 -0.10986607229E+02  0.10891266844E+02  0.62318508586E+00  0.15483047633E+02  0.10570000000E+00 0.  1.
         13    1    1    2    0    0  0.10986607229E+02 -0.10891266844E+02 -0.52959902697E+02  0.55173251653E+02  0.10570000000E+00 0. -1.
<mgrwt>
<rscale>  0 0.47467680E+02</rscale>
<asrwt>0</asrwt>
<pdfrwt beam="2">  1        2 0.94610010E-02 0.47467680E+02</pdfrwt>
<pdfrwt beam="1">  1       -2 0.14091986E-02 0.47467680E+02</pdfrwt>
<totfact> 0.61025207E+05</totfact>
</mgrwt>
</event>
<event>
 4    1  0.3704929E-001  0.5565338E+02  0.7818608E-02  0.1417034E+00
         -2   -1    0    0    0  501 -0.00000000000E+00  0.00000000000E+00  0.46815843329E+02  0.46815843402E+02  0.26000000000E-02 0. -1.
          2   -1    0    0  501    0  0.00000000000E+00 -0.00000000000E+00 -0.16539798537E+02  0.16539798741E+02  0.26000000000E-02 0.  1.
        -13    1    1    2    0    0  0.15407117889E+02  0.13685415147E+02 -0.61485897593E+01  0.21505492273E+02  0.10570000000E+00 0.  1.
         13    1    1    2    0    0 -0.15407117889E+02 -0.13685415147E+02  0.36424634552E+02  0.41850149870E+02  0.10570000000E+00 0. -1.
<mgrwt>
<rscale>  0 0.55653378E+02</rscale>
<asrwt>0</asrwt>
<pdfrwt beam="2">  1        2 0.25445845E-02 0.55653378E+02</pdfrwt>
<pdfrwt beam="1">  1       -2 0.72024373E-02 0.55653378E+02</pdfrwt>
<totfact> 0.31891969E+05</totfact>
</mgrwt>
</event>
<event>
 4    1  0.3704929E-001  0.2293191E+03  0.7818608E-02  0.1127120E+00
         -2   -1    0    0    0  501 -0.00000000000E+00  0.00000000000E+00  0.17912651353E+03  0.17912651355E+03  0.26000000000E-02 0. -1.
          2   -1    0    0  501    0  0.00000000000E+00 -0.00000000000E+00 -0.73393994667E+02  0.73393994713E+02  0.26000000000E-02 0.  1.
        -13    1    1    2    0    0  0.28850773249E+02  0.79484394643E+01  0.17475027072E+03  0.17729414287E+03  0.10570000000E+00 0. -1.
         13    1    1    2    0    0 -0.28850773249E+02 -0.79484394643E+01 -0.69017751854E+02  0.75226365395E+02  0.10570000000E+00 0.  1.
<mgrwt>
<rscale>  0 0.22931908E+03</rscale>
<asrwt>0</asrwt>
<pdfrwt beam="2">  1        2 0.11291384E-01 0.22931908E+03</pdfrwt>
<pdfrwt beam="1">  1       -2 0.27557925E-01 0.22931908E+03</pdfrwt>
<totfact> 0.64537545E+03</totfact>
</mgrwt>
</event>
<event>
 4    1  0.3704929E-001  0.2692209E+02  0.7818608E-02  0.1634836E+00
         -2   -1    0    0    0  501 -0.00000000000E+00  0.00000000000E+00  0.49014840952E+02  0.49014841021E+02  0.26000000000E-02 0. -1.
          2   -1    0    0  501    0  0.00000000000E+00 -0.00000000000E+00 -0.36968336086E+01  0.36968345229E+01  0.26000000000E-02 0.  1.
        -13    1    1    2    0    0 -0.12344781985E+02 -0.25920739638E+01  0.31858392491E+02  0.34264862969E+02  0.10570000000E+00 0. -1.
         13    1    1    2    0    0  0.12344781985E+02  0.25920739638E+01  0.13459614853E+02  0.18446812575E+02  0.10570000000E+00 0.  1.
<mgrwt>
<rscale>  0 0.26922090E+02</rscale>
<asrwt>0</asrwt>
<pdfrwt beam="2">  1        2 0.56874375E-03 0.26922090E+02</pdfrwt>
<pdfrwt beam="1">  1       -2 0.75407443E-02 0.26922090E+02</pdfrwt>
<totfact> 0.17498535E+06</totfact>
</mgrwt>
</event>
<event>
 4    1  0.3704929E-001  0.4206311E+02  0.7818608E-02  0.1493556E+00
         -2   -1    0    0    0  501 -0.00000000000E+00  0.00000000000E+00  0.86254289767E+02  0.86254289807E+02  0.26000000000E-02 0. -1.
          2   -1    0    0  501    0  0.00000000000E+00 -0.00000000000E+00 -0.51281650214E+01  0.51281656805E+01  0.26000000000E-02 0.  1.
        -13    1    1    2    0    0  0.64370818869E+00  0.21000229558E+02  0.42613856708E+02  0.47511850709E+02  0.10570000000E+00 0.  1.
         13    1    1    2    0    0 -0.64370818869E+00 -0.21000229558E+02  0.38512268038E+02  0.43870604778E+02  0.10570000000E+00 0. -1.
<mgrwt>
<rscale>  0 0.42063108E+02</rscale>
<asrwt>0</asrwt>
<pdfrwt beam="2">  1        2 0.78894851E-03 0.42063108E+02</pdfrwt>
<pdfrwt beam="1">  1       -2 0.13269891E-01 0.42063108E+02</pdfrwt>
<totfact> 0.55558546E+05</totfact>
</mgrwt>
</event>
<event>
 4    1  0.3704929E-001  0.6718381E+02  0.7818608E-02  0.1369940E+00
          2   -1    0    0  501    0  0.00000000000E+00  0.00000000000E+00  0.88193053416E+01  0.88193057249E+01  0.26000000000E-02 0.  1.
         -2   -1    0    0    0  501 -0.00000000000E+00 -0.00000000000E+00 -0.12794839318E+03  0.12794839321E+03  0.26000000000E-02 0. -1.
        -13    1    1    2    0    0  0.26638243001E+02  0.52887836492E+01 -0.19319065968E+02  0.33328736925E+02  0.10570000000E+00 0.  1.
         13    1    1    2    0    0 -0.26638243001E+02 -0.52887836492E+01 -0.99810021869E+02  0.10343896200E+03  0.10570000000E+00 0. -1.
<mgrwt>
<rscale>  0 0.67183807E+02</rscale>
<asrwt>0</asrwt>
<pdfrwt beam="1">  1        2 0.13568163E-02 0.67183807E+02</pdfrwt>
<pdfrwt beam="2">  1       -2 0.19684367E-01 0.67183807E+02</pdfrwt>
<totfact> 0.15884993E+05</totfact>
</mgrwt>
</event>
<event>
 4    1  0.3704929E-001  0.2185695E+02  0.7818608E-02  0.1710738E+00
         -2   -1    0    0    0  501 -0.00000000000E+00  0.00000000000E+00  0.39379905493E+01  0.39379914076E+01  0.26000000000E-02 0.  1.
          2   -1    0    0  501    0  0.00000000000E+00 -0.00000000000E+00 -0.30328047636E+02  0.30328047748E+02  0.26000000000E-02 0. -1.
        -13    1    1    2    0    0 -0.10268603494E+02 -0.36760678492E+01 -0.12128599813E+02  0.16311707405E+02  0.10570000000E+00 0. -1.
         13    1    1    2    0    0  0.10268603494E+02  0.36760678492E+01 -0.14261457274E+02  0.17954331750E+02  0.10570000000E+00 0.  1.
<mgrwt>
<rscale>  0 0.21856951E+02</rscale>
<asrwt>0</asrwt>
<pdfrwt beam="2">  1        2 0.46658534E-02 0.21856951E+02</pdfrwt>
<pdfrwt beam="1">  1       -2 0.60584480E-03 0.21856951E+02</pdfrwt>
<totfact> 0.35524655E+06</totfact>
</mgrwt>
</event>
<event>
 4    1  0.3704929E-001  0.7577282E+02  0.7818608E-02  0.1341494E+00
         -2   -1    0    0    0  501 -0.00000000000E+00  0.00000000000E+00  0.87884386514E+02  0.87884386553E+02  0.26000000000E-02 0.  1.
          2   -1    0    0  501    0  0.00000000000E+00 -0.00000000000E+00 -0.16332596016E+02  0.16332596223E+02  0.26000000000E-02 0. -1.
        -13    1    1    2    0    0  0.28568930643E+02 -0.22852461271E+02  0.22233375954E+02  0.42810664127E+02  0.10570000000E+00 0. -1.
         13    1    1    2    0    0 -0.28568930643E+02  0.22852461271E+02  0.49318414545E+02  0.61406318648E+02  0.10570000000E+00 0.  1.
<mgrwt>
<rscale>  0 0.75772823E+02</rscale>
<asrwt>0</asrwt>
<pdfrwt beam="2">  1        2 0.25127071E-02 0.75772823E+02</pdfrwt>
<pdfrwt beam="1">  1       -2 0.13520675E-01 0.75772823E+02</pdfrwt>
<totfact> 0.13099605E+05</totfact>
</mgrwt>
</event>
<event>
 4    1  0.3704929E-001  0.2443659E+02  0.7818608E-02  0.1669229E+00
         -2   -1    0    0    0  501 -0.00000000000E+00  0.00000000000E+00  0.74451206562E+01  0.74451211102E+01  0.26000000000E-02 0. -1.
          2   -1    0    0  501    0  0.00000000000E+00 -0.00000000000E+00 -0.20051623829E+02  0.20051623997E+02  0.26000000000E-02 0.  1.
        -13    1    1    2    0    0  0.41536171148E+01  0.11403890717E+02 -0.47221812520E+01  0.13023495187E+02  0.10570000000E+00 0.  1.
         13    1    1    2    0    0 -0.41536171148E+01 -0.11403890717E+02 -0.78843219203E+01  0.14473249920E+02  0.10570000000E+00 0. -1.
<mgrwt>
<rscale>  0 0.24436593E+02</rscale>
<asrwt>0</asrwt>
<pdfrwt beam="2">  1        2 0.30848652E-02 0.24436593E+02</pdfrwt>
<pdfrwt beam="1">  1       -2 0.11454032E-02 0.24436593E+02</pdfrwt>
<totfact> 0.26308758E+06</totfact>
</mgrwt>
</event>
<event>
 4    1  0.3704929E-001  0.3099905E+02  0.7818608E-02  0.1587301E+00
         -2   -1    0    0    0  501 -0.00000000000E+00  0.00000000000E+00  0.22243606770E+01  0.22243621965E+01  0.26000000000E-02 0. -1.
          2   -1    0    0  501    0  0.00000000000E+00 -0.00000000000E+00 -0.10800192470E+03  0.10800192473E+03  0.26000000000E-02 0.  1.
        -13    1    1    2    0    0  0.12577602750E+02  0.81003509062E+01 -0.38483478149E+02  0.41289236354E+02  0.10570000000E+00 0. -1.
         13    1    1    2    0    0 -0.12577602750E+02 -0.81003509062E+01 -0.67294085876E+02  0.68937050576E+02  0.10570000000E+00 0.  1.
<mgrwt>
<rscale>  0 0.30999053E+02</rscale>
<asrwt>0</asrwt>
<pdfrwt beam="2">  1        2 0.16615677E-01 0.30999053E+02</pdfrwt>
<pdfrwt beam="1">  1       -2 0.34220954E-03 0.30999053E+02</pdfrwt>
<totfact> 0.19706228E+06</totfact>
</mgrwt>
</event>
<event>
 4    1  0.3704929E-001  0.4297594E+02  0.7818608E-02  0.1487388E+00
         -2   -1    0    0    0  501 -0.00000000000E+00  0.00000000000E+00  0.14697595162E+02  0.14697595392E+02  0.26000000000E-02 0.  1.
          2   -1    0    0  501    0  0.00000000000E+00 -0.00000000000E+00 -0.31415532187E+02  0.31415532294E+02  0.26000000000E-02 0. -1.
        -13    1    1    2    0    0 -0.12259558240E+02 -0.17502904836E+00  0.10575559908E+02  0.16192005536E+02  0.10570000000E+00 0.  1.
         13    1    1    2    0    0  0.12259558240E+02  0.17502904836E+00 -0.27293496933E+02  0.29921122150E+02  0.10570000000E+00 0. -1.
<mgrwt>
<rscale>  0 0.42975937E+02</rscale>
<asrwt>0</asrwt>
<pdfrwt beam="2">  1        2 0.48331588E-02 0.42975937E+02</pdfrwt>
<pdfrwt beam="1">  1       -2 0.22611685E-02 0.42975937E+02</pdfrwt>
<totfact> 0.69898354E+05</totfact>
</mgrwt>
</event>
<event>
 4    1  0.3704929E-001  0.2277665E+02  0.7818608E-02  0.1695156E+00
          2   -1    0    0  501    0  0.00000000000E+00  0.00000000000E+00  0.44998972153E+01  0.44998979665E+01  0.26000000000E-02 0.  1.
         -2   -1    0    0    0  501 -0.00000000000E+00 -0.00000000000E+00 -0.28821519692E+02  0.28821519809E+02  0.26000000000E-02 0. -1.
        -13    1    1    2    0    0  0.48443674797E+01 -0.96608949898E+01 -0.69100268853E+01  0.12828111019E+02  0.10570000000E+00 0.  1.
         13    1    1    2    0    0 -0.48443674797E+01  0.96608949898E+01 -0.17411595591E+02  0.20493306756E+02  0.10570000000E+00 0. -1.
<mgrwt>
<rscale>  0 0.22776645E+02</rscale>
<asrwt>0</asrwt>
<pdfrwt beam="1">  1        2 0.69229196E-03 0.22776645E+02</pdfrwt>
<pdfrwt beam="2">  1       -2 0.44340799E-02 0.22776645E+02</pdfrwt>
<totfact> 0.27198869E+06</totfact>
</mgrwt>
</event>
<event>
 4    1  0.3704929E-001  0.2744022E+02  0.7818608E-02  0.1628239E+00
          2   -1    0    0  501    0  0.00000000000E+00  0.00000000000E+00  0.24282307010E+01  0.24282320929E+01  0.26000000000E-02 0. -1.
         -2   -1    0    0    0  501 -0.00000000000E+00 -0.00000000000E+00 -0.77522022123E+02  0.77522022167E+02  0.26000000000E-02 0.  1.
        -13    1    1    2    0    0  0.17940196128E+01 -0.13530061365E+02 -0.33479116611E+02  0.36154439402E+02  0.10570000000E+00 0.  1.
         13    1    1    2    0    0 -0.17940196128E+01  0.13530061365E+02 -0.41614674811E+02  0.43795814858E+02  0.10570000000E+00 0. -1.
<mgrwt>
<rscale>  0 0.27440219E+02</rscale>
<asrwt>0</asrwt>
<pdfrwt beam="1">  1        2 0.37357412E-03 0.27440219E+02</pdfrwt>
<pdfrwt beam="2">  1       -2 0.11926463E-01 0.27440219E+02</pdfrwt>
<totfact> 0.15494478E+06</totfact>
</mgrwt>
</event>
<event>
 4    1  0.3704929E-001  0.3151160E+02  0.7818608E-02  0.1581957E+00
          2   -1    0    0  501    0  0.00000000000E+00  0.00000000000E+00  0.46877224097E+02  0.46877224169E+02  0.26000000000E-02 0.  1.
         -2   -1    0    0    0  501 -0.00000000000E+00 -0.00000000000E+00 -0.52956465569E+01  0.52956471951E+01  0.26000000000E-02 0. -1.
        -13    1    1    2    0    0  0.10649605399E+02  0.10320114841E+02  0.29600953632E+02  0.33108103146E+02  0.10570000000E+00 0.  1.
         13    1    1    2    0    0 -0.10649605399E+02 -0.10320114841E+02  0.11980623908E+02  0.19064768218E+02  0.10570000000E+00 0. -1.
<mgrwt>
<rscale>  0 0.31511600E+02</rscale>
<asrwt>0</asrwt>
<pdfrwt beam="1">  1        2 0.72118805E-02 0.31511600E+02</pdfrwt>
<pdfrwt beam="2">  1       -2 0.81471493E-03 0.31511600E+02</pdfrwt>
<totfact> 0.15995956E+06</totfact>
</mgrwt>
</event>
<event>
 4    1  0.3704929E-001  0.6558190E+02  0.7818608E-02  0.1375796E+00
          2   -1    0    0  501    0  0.00000000000E+00  0.00000000000E+00  0.35859654489E+02  0.35859654583E+02  0.26000000000E-02 0. -1.
         -2   -1    0    0    0  501 -0.00000000000E+00 -0.00000000000E+00 -0.29984846934E+02  0.29984847047E+02  0.26000000000E-02 0.  1.
        -13    1    1    2    0    0 -0.16987939308E+02 -0.64605589568E+01  0.30339660982E+02  0.35367147255E+02  0.10570000000E+00 0. -1.
         13    1    1    2    0    0  0.16987939308E+02  0.64605589568E+01 -0.24464853427E+02  0.30477354374E+02  0.10570000000E+00 0.  1.
<mgrwt>
<rscale>  0 0.65581896E+02</rscale>
<asrwt>0</asrwt>
<pdfrwt beam="1">  1        2 0.55168700E-02 0.65581896E+02</pdfrwt>
<pdfrwt beam="2">  1       -2 0.46130534E-02 0.65581896E+02</pdfrwt>
<totfact> 0.23478621E+05</totfact>
</mgrwt>
</event>
<event>
 4    1  0.3704929E-001  0.3119892E+02  0.7818608E-02  0.1585202E+00
         -2   -1    0    0    0  501 -0.00000000000E+00  0.00000000000E+00  0.15839407392E+01  0.15839428731E+01  0.26000000000E-02 0.  1.
          2   -1    0    0  501    0  0.00000000000E+00 -0.00000000000E+00 -0.15363133886E+03  0.15363133889E+03  0.26000000000E-02 0. -1.
        -13    1    1    2    0    0  0.49671340519E+01 -0.14733822924E+02 -0.82265264755E+02  0.83721818640E+02  0.10570000000E+00 0. -1.
         13    1    1    2    0    0 -0.49671340519E+01  0.14733822924E+02 -0.69782133369E+02  0.71493463119E+02  0.10570000000E+00 0.  1.
<mgrwt>
<rscale>  0 0.31198917E+02</rscale>
<asrwt>0</asrwt>
<pdfrwt beam="2">  1        2 0.23635579E-01 0.31198917E+02</pdfrwt>
<pdfrwt beam="1">  1       -2 0.24368348E-03 0.31198917E+02</pdfrwt>
<totfact> 0.21355882E+06</totfact>
</mgrwt>
</event>
<event>
 4    1  0.3704929E-001  0.6133114E+02  0.7818608E-02  0.1392329E+00
          2   -1    0    0  501    0  0.00000000000E+00  0.00000000000E+00  0.16415115436E+03  0.16415115438E+03  0.26000000000E-02 0.  1.
         -2   -1    0    0    0  501 -0.00000000000E+00 -0.00000000000E+00 -0.57287277062E+01  0.57287282962E+01  0.26000000000E-02 0. -1.
        -13    1    1    2    0    0 -0.14982763116E+02  0.17408328864E+02  0.13549043833E+03  0.13742344471E+03  0.10570000000E+00 0.  1.
         13    1    1    2    0    0  0.14982763116E+02 -0.17408328864E+02  0.22931988316E+02  0.32456437960E+02  0.10570000000E+00 0. -1.
<mgrwt>
<rscale>  0 0.61331144E+02</rscale>
<asrwt>0</asrwt>
<pdfrwt beam="1">  1        2 0.25254023E-01 0.61331144E+02</pdfrwt>
<pdfrwt beam="2">  1       -2 0.88134281E-03 0.61331144E+02</pdfrwt>
<totfact> 0.41077526E+05</totfact>
</mgrwt>
</event>
<event>
 4    1  0.3704929E-001  0.2190092E+02  0.7818608E-02  0.1709971E+00
          2   -1    0    0  501    0  0.00000000000E+00  0.00000000000E+00  0.26794311743E+01  0.26794324358E+01  0.26000000000E-02 0. -1.
         -2   -1    0    0    0  501 -0.00000000000E+00 -0.00000000000E+00 -0.44753000908E+02  0.44753000984E+02  0.26000000000E-02 0.  1.
        -13    1    1    2    0    0  0.73276932110E+01 -0.81258605499E+01 -0.21947305181E+02  0.24523867450E+02  0.10570000000E+00 0. -1.
         13    1    1    2    0    0 -0.73276932110E+01  0.81258605499E+01 -0.20126264553E+02  0.22908565970E+02  0.10570000000E+00 0.  1.
<mgrwt>
<rscale>  0 0.21900924E+02</rscale>
<asrwt>0</asrwt>
<pdfrwt beam="1">  1        2 0.41222032E-03 0.21900924E+02</pdfrwt>
<pdfrwt beam="2">  1       -2 0.68850766E-02 0.21900924E+02</pdfrwt>
<totfact> 0.28185165E+06</totfact>
</mgrwt>
</event>
<event>
 4    1  0.3704929E-001  0.5231497E+02  0.7818608E-02  0.1433241E+00
          2   -1    0    0  501    0  0.00000000000E+00  0.00000000000E+00  0.15816319820E+03  0.15816319823E+03  0.26000000000E-02 0.  1.
         -2   -1    0    0    0  501 -0.00000000000E+00 -0.00000000000E+00 -0.43260004228E+01  0.43260012041E+01  0.26000000000E-02 0. -1.
        -13    1    1    2    0    0  0.14422823410E+02  0.18977282430E+02  0.11037791610E+03  0.11292232117E+03  0.10570000000E+00 0.  1.
         13    1    1    2    0    0 -0.14422823410E+02 -0.18977282430E+02  0.43459281678E+02  0.49566878256E+02  0.10570000000E+00 0. -1.
<mgrwt>
<rscale>  0 0.52314974E+02</rscale>
<asrwt>0</asrwt>
<pdfrwt beam="1">  1        2 0.24332801E-01 0.52314974E+02</pdfrwt>
<pdfrwt beam="2">  1       -2 0.66553857E-03 0.52314974E+02</pdfrwt>
<totfact> 0.60907497E+05</totfact>
</mgrwt>
</event>
<event>
 4    1  0.3704929E-001  0.7383627E+02  0.7818608E-02  0.1347513E+00
          2   -1    0    0  501    0  0.00000000000E+00  0.00000000000E+00  0.10104577394E+03  0.10104577397E+03  0.26000000000E-02 0. -1.
         -2   -1    0    0    0  501 -0.00000000000E+00 -0.00000000000E+00 -0.13488429724E+02  0.13488429974E+02  0.26000000000E-02 0.  1.
        -13    1    1    2    0    0 -0.99366269726E+01 -0.27170042957E+02  0.79354426756E+02  0.84463506961E+02  0.10570000000E+00 0. -1.
         13    1    1    2    0    0  0.99366269726E+01  0.27170042957E+02  0.82029174592E+01  0.30070696986E+02  0.10570000000E+00 0.  1.
<mgrwt>
<rscale>  0 0.73836274E+02</rscale>
<asrwt>0</asrwt>
<pdfrwt beam="1">  1        2 0.15545503E-01 0.73836274E+02</pdfrwt>
<pdfrwt beam="2">  1       -2 0.20751431E-02 0.73836274E+02</pdfrwt>
<totfact> 0.21794756E+05</totfact>
</mgrwt>
</event>
<event>
 4    1  0.3704929E-001  0.2329223E+02  0.7818608E-02  0.1686816E+00
         -2   -1    0    0    0  501 -0.00000000000E+00  0.00000000000E+00  0.51456450366E+01  0.51456456934E+01  0.26000000000E-02 0.  1.
          2   -1    0    0  501    0  0.00000000000E+00 -0.00000000000E+00 -0.26358595280E+02  0.26358595408E+02  0.26000000000E-02 0. -1.
        -13    1    1    2    0    0 -0.31253475836E+01  0.10668749794E+02 -0.15297903928E+02  0.18911030030E+02  0.10570000000E+00 0. -1.
         13    1    1    2    0    0  0.31253475836E+01 -0.10668749794E+02 -0.59150463146E+01  0.12593211071E+02  0.10570000000E+00 0.  1.
<mgrwt>
<rscale>  0 0.23292229E+02</rscale>
<asrwt>0</asrwt>
<pdfrwt beam="2">  1        2 0.40551685E-02 0.23292229E+02</pdfrwt>
<pdfrwt beam="1">  1       -2 0.79163777E-03 0.23292229E+02</pdfrwt>
<totfact> 0.30233541E+06</totfact>
</mgrwt>
</event>
<event>
 4    1  0.3704929E-001  0.3831026E+02  0.7818608E-02  0.1521027E+00
          2   -1    0    0  501    0  0.00000000000E+00  0.00000000000E+00  0.10554588658E+02  0.10554588978E+02  0.26000000000E-02 0. -1.
         -2   -1    0    0    0  501 -0.00000000000E+00 -0.00000000000E+00 -0.34763931954E+02  0.34763932051E+02  0.26000000000E-02 0.  1.
        -13    1    1    2    0    0  0.14125768795E+02 -0.12745391211E+02 -0.94793308619E+01  0.21256792497E+02  0.10570000000E+00 0. -1.
         13    1    1    2    0    0 -0.14125768795E+02  0.12745391211E+02 -0.14730012434E+02  0.24061728532E+02  0.10570000000E+00 0.  1.
<mgrwt>
<rscale>  0 0.38310260E+02</rscale>
<asrwt>0</asrwt>
<pdfrwt beam="1">  1        2 0.16237829E-02 0.38310260E+02</pdfrwt>
<pdfrwt beam="2">  1       -2 0.53482972E-02 0.38310260E+02</pdfrwt>
<totfact> 0.81072734E+05</totfact>
</mgrwt>
</event>
<event>
 4    1  0.3704929E-001  0.3590469E+02  0.7818608E-02  0.1540710E+00
         -2   -1    0    0    0  501 -0.00000000000E+00  0.00000000000E+00  0.63819884209E+01  0.63819889505E+01  0.26000000000E-02 0. -1.
          2   -1    0    0  501    0  0.00000000000E+00 -0.00000000000E+00 -0.50499424524E+02  0.50499424591E+02  0.26000000000E-02 0.  1.
        -13    1    1    2    0    0 -0.10539754088E+02 -0.14481623119E+02 -0.23980650168E+02  0.29931364475E+02  0.10570000000E+00 0.  1.
         13    1    1    2    0    0  0.10539754088E+02  0.14481623119E+02 -0.20136785936E+02  0.26950049067E+02  0.10570000000E+00 0. -1.
<mgrwt>
<rscale>  0 0.35904694E+02</rscale>
<asrwt>0</asrwt>
<pdfrwt beam="2">  1        2 0.77691420E-02 0.35904694E+02</pdfrwt>
<pdfrwt beam="1">  1       -2 0.98184445E-03 0.35904694E+02</pdfrwt>
<totfact> 0.11800923E+06</totfact>
</mgrwt>
</event>
<event>
 4    1  0.3704929E-001  0.2552928E+02  0.7818608E-02  0.1653514E+00
          2   -1    0    0  501    0  0.00000000000E+00  0.00000000000E+00  0.29239827103E+01  0.29239838662E+01  0.26000000000E-02 0. -1.
         -2   -1    0    0    0  501 -0.00000000000E+00 -0.00000000000E+00 -0.55723980863E+02  0.55723980923E+02  0.26000000000E-02 0.  1.
        -13    1    1    2    0    0 -0.13807818414E+01 -0.12584092092E+02 -0.22654028036E+02  0.25951533500E+02  0.10570000000E+00 0. -1.
         13    1    1    2    0    0  0.13807818414E+01  0.12584092092E+02 -0.30145970117E+02  0.32696431289E+02  0.10570000000E+00 0.  1.
<mgrwt>
<rscale>  0 0.25529277E+02</rscale>
<asrwt>0</asrwt>
<pdfrwt beam="1">  1        2 0.44984363E-03 0.25529277E+02</pdfrwt>
<pdfrwt beam="2">  1       -2 0.85729194E-02 0.25529277E+02</pdfrwt>
<totfact> 0.19366025E+06</totfact>
</mgrwt>
</event>
<event>
 4    1  0.3704929E-001  0.2213150E+02  0.7818608E-02  0.1705988E+00
         -2   -1    0    0    0  501 -0.00000000000E+00  0.00000000000E+00  0.14208356306E+02  0.14208356544E+02  0.26000000000E-02 0. -1.
          2   -1    0    0  501    0  0.00000000000E+00 -0.00000000000E+00 -0.86182285413E+01  0.86182289335E+01  0.26000000000E-02 0.  1.
        -13    1    1    2    0    0  0.10586359293E+02  0.32124711568E+01  0.25673996003E+01  0.11357538784E+02  0.10570000000E+00 0.  1.
         13    1    1    2    0    0 -0.10586359293E+02 -0.32124711568E+01  0.30227281646E+01  0.11469046694E+02  0.10570000000E+00 0. -1.
<mgrwt>
<rscale>  0 0.22131504E+02</rscale>
<asrwt>0</asrwt>
<pdfrwt beam="2">  1        2 0.13258814E-02 0.22131504E+02</pdfrwt>
<pdfrwt beam="1">  1       -2 0.21859010E-02 0.22131504E+02</pdfrwt>
<totfact> 0.30860021E+06</totfact>
</mgrwt>
</event>
<event>
 4    1  0.3704929E-001  0.3822672E+02  0.7818608E-02  0.1521682E+00
         -2   -1    0    0    0  501 -0.00000000000E+00  0.00000000000E+00  0.20053048169E+02  0.20053048337E+02  0.26000000000E-02 0. -1.
          2   -1    0    0  501    0  0.00000000000E+00 -0.00000000000E+00 -0.18217704007E+02  0.18217704193E+02  0.26000000000E-02 0.  1.
        -13    1    1    2    0    0  0.15700517253E+02 -0.97926780718E+01 -0.38739192683E+01  0.18905586709E+02  0.10570000000E+00 0. -1.
         13    1    1    2    0    0 -0.15700517253E+02  0.97926780718E+01  0.57092634298E+01  0.19365165820E+02  0.10570000000E+00 0.  1.
<mgrwt>
<rscale>  0 0.38226719E+02</rscale>
<asrwt>0</asrwt>
<pdfrwt beam="2">  1        2 0.28027237E-02 0.38226719E+02</pdfrwt>
<pdfrwt beam="1">  1       -2 0.30850844E-02 0.38226719E+02</pdfrwt>
<totfact> 0.87438982E+05</totfact>
</mgrwt>
</event>
<event>
 4    1  0.3704929E-001  0.3999835E+02  0.7818608E-02  0.1508224E+00
         -2   -1    0    0    0  501 -0.00000000000E+00  0.00000000000E+00  0.59426518052E+01  0.59426523739E+01  0.26000000000E-02 0.  1.
          2   -1    0    0  501    0  0.00000000000E+00 -0.00000000000E+00 -0.67304445477E+02  0.67304445527E+02  0.26000000000E-02 0. -1.
        -13    1    1    2    0    0 -0.60148522601E+01  0.10447172624E+02 -0.59902664472E+02  0.61103700762E+02  0.10570000000E+00 0. -1.
         13    1    1    2    0    0  0.60148522601E+01 -0.10447172624E+02 -0.14591291997E+01  0.12143397138E+02  0.10570000000E+00 0.  1.
<mgrwt>
<rscale>  0 0.39998345E+02</rscale>
<asrwt>0</asrwt>
<pdfrwt beam="2">  1        2 0.10354530E-01 0.39998345E+02</pdfrwt>
<pdfrwt beam="1">  1       -2 0.91425422E-03 0.39998345E+02</pdfrwt>
<totfact> 0.95488647E+05</totfact>
</mgrwt>
</event>
<event>
 4    1  0.3704929E-001  0.2196579E+02  0.7818608E-02  0.1708844E+00
          2   -1    0    0  501    0  0.00000000000E+00  0.00000000000E+00  0.77749813294E+02  0.77749813338E+02  0.26000000000E-02 0.  1.
         -2   -1    0    0    0  501 -0.00000000000E+00 -0.00000000000E+00 -0.15514370101E+01  0.15514391887E+01  0.26000000000E-02 0. -1.
        -13    1    1    2    0    0 -0.49453894882E+01 -0.89816845233E+01  0.52305888662E+02  0.53301451155E+02  0.10570000000E+00 0.  1.
         13    1    1    2    0    0  0.49453894882E+01  0.89816845233E+01  0.23892487622E+02  0.25999801371E+02  0.10570000000E+00 0. -1.
<mgrwt>
<rscale>  0 0.21965794E+02</rscale>
<asrwt>0</asrwt>
<pdfrwt beam="1">  1        2 0.11961510E-01 0.21965794E+02</pdfrwt>
<pdfrwt beam="2">  1       -2 0.23868278E-03 0.21965794E+02</pdfrwt>
<totfact> 0.40565852E+06</totfact>
</mgrwt>
</event>
<event>
 4    1  0.3704929E-001  0.2934801E+02  0.7818608E-02  0.1605409E+00
         -2   -1    0    0    0  501 -0.00000000000E+00  0.00000000000E+00  0.50821645804E+01  0.50821652455E+01  0.26000000000E-02 0.  1.
          2   -1    0    0  501    0  0.00000000000E+00 -0.00000000000E+00 -0.42369028130E+02  0.42369028209E+02  0.26000000000E-02 0. -1.
        -13    1    1    2    0    0 -0.92814683531E+01  0.49036016635E+01 -0.35220967737E+02  0.36752125175E+02  0.10570000000E+00 0. -1.
         13    1    1    2    0    0  0.92814683531E+01 -0.49036016635E+01 -0.20658958126E+01  0.10699068280E+02  0.10570000000E+00 0.  1.
<mgrwt>
<rscale>  0 0.29348008E+02</rscale>
<asrwt>0</asrwt>
<pdfrwt beam="2">  1        2 0.65183119E-02 0.29348008E+02</pdfrwt>
<pdfrwt beam="1">  1       -2 0.78187156E-03 0.29348008E+02</pdfrwt>
<totfact> 0.18672170E+06</totfact>
</mgrwt>
</event>
<event>
 4    1  0.3704929E-001  0.1262063E+03  0.7818608E-02  0.1233196E+00
         -2   -1    0    0    0  501 -0.00000000000E+00  0.00000000000E+00  0.27469196528E+02  0.27469196651E+02  0.26000000000E-02 0. -1.
          2   -1    0    0  501    0  0.00000000000E+00 -0.00000000000E+00 -0.14496257930E+03  0.14496257932E+03  0.26000000000E-02 0.  1.
        -13    1    1    2    0    0  0.49762203431E+02 -0.22267309541E+02 -0.15328451226E+02  0.56631109419E+02  0.10570000000E+00 0. -1.
         13    1    1    2    0    0 -0.49762203431E+02  0.22267309541E+02 -0.10216493155E+03  0.11580066656E+03  0.10570000000E+00 0.  1.
<mgrwt>
<rscale>  0 0.12620627E+03</rscale>
<asrwt>0</asrwt>
<pdfrwt beam="2">  1        2 0.22301935E-01 0.12620627E+03</pdfrwt>
<pdfrwt beam="1">  1       -2 0.42260303E-02 0.12620627E+03</pdfrwt>
<totfact> 0.55963547E+04</totfact>
</mgrwt>
</event>
<event>
 4    1  0.3704929E-001  0.2401385E+02  0.7818608E-02  0.1675584E+00
          2   -1    0    0  501    0  0.00000000000E+00  0.00000000000E+00  0.97614410455E+01  0.97614413918E+01  0.26000000000E-02 0. -1.
         -2   -1    0    0    0  501 -0.00000000000E+00 -0.00000000000E+00 -0.14768946393E+02  0.14768946622E+02  0.26000000000E-02 0.  1.
        -13    1    1    2    0    0  0.10125169779E+02  0.60745754038E+01 -0.28082249246E+00  0.11811416644E+02  0.10570000000E+00 0.  1.
         13    1    1    2    0    0 -0.10125169779E+02 -0.60745754038E+01 -0.47266828548E+01  0.12718971369E+02  0.10570000000E+00 0. -1.
<mgrwt>
<rscale>  0 0.24013847E+02</rscale>
<asrwt>0</asrwt>
<pdfrwt beam="1">  1        2 0.15017602E-02 0.24013847E+02</pdfrwt>
<pdfrwt beam="2">  1       -2 0.22721456E-02 0.24013847E+02</pdfrwt>
<totfact> 0.25720254E+06</totfact>
</mgrwt>
</event>
<event>
 4    1  0.3704929E-001  0.2475494E+02  0.7818608E-02  0.1664547E+00
         -2   -1    0    0    0  501 -0.00000000000E+00  0.00000000000E+00  0.19071559247E+02  0.19071559424E+02  0.26000000000E-02 0.  1.
          2   -1    0    0  501    0  0.00000000000E+00 -0.00000000000E+00 -0.80329943678E+01  0.80329947886E+01  0.26000000000E-02 0. -1.
        -13    1    1    2    0    0 -0.10113829158E+02 -0.32127528393E+01  0.12494092706E+02  0.16392829105E+02  0.10570000000E+00 0.  1.
         13    1    1    2    0    0  0.10113829158E+02  0.32127528393E+01 -0.14555278266E+01  0.10711725108E+02  0.10570000000E+00 0. -1.
<mgrwt>
<rscale>  0 0.24754938E+02</rscale>
<asrwt>0</asrwt>
<pdfrwt beam="2">  1        2 0.12358454E-02 0.24754938E+02</pdfrwt>
<pdfrwt beam="1">  1       -2 0.29340860E-02 0.24754938E+02</pdfrwt>
<totfact> 0.23512566E+06</totfact>
</mgrwt>
</event>
<event>
 4    1  0.3704929E-001  0.2919088E+02  0.7818608E-02  0.1607209E+00
          2   -1    0    0  501    0  0.00000000000E+00  0.00000000000E+00  0.17870863041E+02  0.17870863230E+02  0.26000000000E-02 0.  1.
         -2   -1    0    0    0  501 -0.00000000000E+00 -0.00000000000E+00 -0.11920343393E+02  0.11920343677E+02  0.26000000000E-02 0. -1.
        -13    1    1    2    0    0  0.40822903564E+01  0.93039604473E+01  0.13668668833E+02  0.17031513577E+02  0.10570000000E+00 0.  1.
         13    1    1    2    0    0 -0.40822903564E+01 -0.93039604473E+01 -0.77181491849E+01  0.12759693330E+02  0.10570000000E+00 0. -1.
<mgrwt>
<rscale>  0 0.29190877E+02</rscale>
<asrwt>0</asrwt>
<pdfrwt beam="1">  1        2 0.27493636E-02 0.29190877E+02</pdfrwt>
<pdfrwt beam="2">  1       -2 0.18338990E-02 0.29190877E+02</pdfrwt>
<totfact> 0.17036849E+06</totfact>
</mgrwt>
</event>
<event>
 4    1  0.3704929E-001  0.3099863E+02  0.7818608E-02  0.1587305E+00
          2   -1    0    0  501    0  0.00000000000E+00  0.00000000000E+00  0.10694472218E+03  0.10694472221E+03  0.26000000000E-02 0.  1.
         -2   -1    0    0    0  501 -0.00000000000E+00 -0.00000000000E+00 -0.22462890303E+01  0.22462905350E+01  0.26000000000E-02 0. -1.
        -13    1    1    2    0    0 -0.76973632505E+01  0.13269907949E+02  0.44569625816E+02  0.47136000847E+02  0.10570000000E+00 0. -1.
         13    1    1    2    0    0  0.76973632505E+01 -0.13269907949E+02  0.60128807330E+02  0.62055011896E+02  0.10570000000E+00 0.  1.
<mgrwt>
<rscale>  0 0.30998635E+02</rscale>
<asrwt>0</asrwt>
<pdfrwt beam="1">  1        2 0.16453034E-01 0.30998635E+02</pdfrwt>
<pdfrwt beam="2">  1       -2 0.34558304E-03 0.30998635E+02</pdfrwt>
<totfact> 0.19658465E+06</totfact>
</mgrwt>
</event>
<event>
 4    1  0.3704929E-001  0.5642047E+02  0.7818608E-02  0.1413498E+00
          2   -1    0    0  501    0  0.00000000000E+00  0.00000000000E+00  0.60593016776E+02  0.60593016832E+02  0.26000000000E-02 0. -1.
         -2   -1    0    0    0  501 -0.00000000000E+00 -0.00000000000E+00 -0.13133810839E+02  0.13133811096E+02  0.26000000000E-02 0.  1.
        -13    1    1    2    0    0  0.19887149280E+02 -0.61865513995E+01  0.48593175133E+02  0.52868515836E+02  0.10570000000E+00 0. -1.
         13    1    1    2    0    0 -0.19887149280E+02  0.61865513995E+01 -0.11339691960E+01  0.20858312092E+02  0.10570000000E+00 0.  1.
<mgrwt>
<rscale>  0 0.56420466E+02</rscale>
<asrwt>0</asrwt>
<pdfrwt beam="1">  1        2 0.93220024E-02 0.56420466E+02</pdfrwt>
<pdfrwt beam="2">  1       -2 0.20205863E-02 0.56420466E+02</pdfrwt>
<totfact> 0.39001423E+05</totfact>
</mgrwt>
</event>
<event>
 4    1  0.3704929E-001  0.2341568E+02  0.7818608E-02  0.1684859E+00
          2   -1    0    0  501    0  0.00000000000E+00  0.00000000000E+00  0.47821241302E+02  0.47821241372E+02  0.26000000000E-02 0. -1.
         -2   -1    0    0    0  501 -0.00000000000E+00 -0.00000000000E+00 -0.28663718934E+01  0.28663730725E+01  0.26000000000E-02 0.  1.
        -13    1    1    2    0    0  0.98496712086E+01  0.39290324790E+01  0.33215897490E+02  0.34867754985E+02  0.10570000000E+00 0. -1.
         13    1    1    2    0    0 -0.98496712086E+01 -0.39290324790E+01  0.11738971918E+02  0.15819859459E+02  0.10570000000E+00 0.  1.
<mgrwt>
<rscale>  0 0.23415678E+02</rscale>
<asrwt>0</asrwt>
<pdfrwt beam="1">  1        2 0.73571133E-02 0.23415678E+02</pdfrwt>
<pdfrwt beam="2">  1       -2 0.44098044E-03 0.23415678E+02</pdfrwt>
<totfact> 0.32220897E+06</totfact>
</mgrwt>
</event>
<event>
 4    1  0.3704929E-001  0.3901387E+02  0.7818608E-02  0.1515596E+00
         -2   -1    0    0    0  501 -0.00000000000E+00  0.00000000000E+00  0.20823537725E+02  0.20823537888E+02  0.26000000000E-02 0.  1.
          2   -1    0    0  501    0  0.00000000000E+00 -0.00000000000E+00 -0.18273571920E+02  0.18273572105E+02  0.26000000000E-02 0. -1.
        -13    1    1    2    0    0 -0.15730340050E+02 -0.10248069000E+02  0.65818210077E+01  0.19894674076E+02  0.10570000000E+00 0.  1.
         13    1    1    2    0    0  0.15730340050E+02  0.10248069000E+02 -0.40318552026E+01  0.19202435918E+02  0.10570000000E+00 0. -1.
<mgrwt>
<rscale>  0 0.39013865E+02</rscale>
<asrwt>0</asrwt>
<pdfrwt beam="2">  1        2 0.28113188E-02 0.39013865E+02</pdfrwt>
<pdfrwt beam="1">  1       -2 0.32036212E-02 0.39013865E+02</pdfrwt>
<totfact> 0.83046245E+05</totfact>
</mgrwt>
</event>
<event>
 4    1  0.3704929E-001  0.5233326E+02  0.7818608E-02  0.1433148E+00
         -2   -1    0    0    0  501 -0.00000000000E+00  0.00000000000E+00  0.61091596841E+01  0.61091602374E+01  0.26000000000E-02 0.  1.
          2   -1    0    0  501    0  0.00000000000E+00 -0.00000000000E+00 -0.11207639581E+03  0.11207639584E+03  0.26000000000E-02 0. -1.
        -13    1    1    2    0    0 -0.16154714196E+02  0.99861176643E+01 -0.93632484988E+02  0.95539262894E+02  0.10570000000E+00 0. -1.
         13    1    1    2    0    0  0.16154714196E+02 -0.99861176643E+01 -0.12334751134E+02  0.22646293180E+02  0.10570000000E+00 0.  1.
<mgrwt>
<rscale>  0 0.52333264E+02</rscale>
<asrwt>0</asrwt>
<pdfrwt beam="2">  1        2 0.17242521E-01 0.52333264E+02</pdfrwt>
<pdfrwt beam="1">  1       -2 0.93987085E-03 0.52333264E+02</pdfrwt>
<totfact> 0.54985257E+05</totfact>
</mgrwt>
</event>
<event>
 4    1  0.3704929E-001  0.2960899E+02  0.7818608E-02  0.1602451E+00
          2   -1    0    0  501    0  0.00000000000E+00  0.00000000000E+00  0.63300928514E+01  0.63300933853E+01  0.26000000000E-02 0. -1.
         -2   -1    0    0    0  501 -0.00000000000E+00 -0.00000000000E+00 -0.34623980126E+02  0.34623980223E+02  0.26000000000E-02 0.  1.
        -13    1    1    2    0    0  0.74497876568E+01  0.10349571891E+02 -0.24548193945E+02  0.27662935002E+02  0.10570000000E+00 0.  1.
         13    1    1    2    0    0 -0.74497876568E+01 -0.10349571891E+02 -0.37456933296E+01  0.13291138607E+02  0.10570000000E+00 0. -1.
<mgrwt>
<rscale>  0 0.29608987E+02</rscale>
<asrwt>0</asrwt>
<pdfrwt beam="1">  1        2 0.97386050E-03 0.29608987E+02</pdfrwt>
<pdfrwt beam="2">  1       -2 0.53267661E-02 0.29608987E+02</pdfrwt>
<totfact> 0.14741450E+06</totfact>
</mgrwt>
</event>
<event>
 4    1  0.3704929E-001  0.3516514E+02  0.7818608E-02  0.1547139E+00
          2   -1    0    0  501    0  0.00000000000E+00  0.00000000000E+00  0.38330283430E+01  0.38330292248E+01  0.26000000000E-02 0.  1.
         -2   -1    0    0    0  501 -0.00000000000E+00 -0.00000000000E+00 -0.80653402747E+02  0.80653402789E+02  0.26000000000E-02 0. -1.
        -13    1    1    2    0    0  0.11572875797E+02 -0.25582592996E+01 -0.72083627933E+01  0.13872556055E+02  0.10570000000E+00 0.  1.
         13    1    1    2    0    0 -0.11572875797E+02  0.25582592996E+01 -0.69612011611E+02  0.70613875959E+02  0.10570000000E+00 0. -1.
<mgrwt>
<rscale>  0 0.35165143E+02</rscale>
<asrwt>0</asrwt>
<pdfrwt beam="1">  1        2 0.58969680E-03 0.35165143E+02</pdfrwt>
<pdfrwt beam="2">  1       -2 0.12408215E-01 0.35165143E+02</pdfrwt>
<totfact> 0.86339594E+05</totfact>
</mgrwt>
</event>
<event>
 4    1  0.3704929E-001  0.3132346E+02  0.7818608E-02  0.1583904E+00
          2   -1    0    0  501    0  0.00000000000E+00  0.00000000000E+00  0.45733858457E+02  0.45733858531E+02  0.26000000000E-02 0.  1.
         -2   -1    0    0    0  501 -0.00000000000E+00 -0.00000000000E+00 -0.53634177886E+01  0.53634184187E+01  0.26000000000E-02 0. -1.
        -13    1    1    2    0    0 -0.14071912215E+02  0.34789724680E+01  0.29857567853E+02  0.33190472931E+02  0.10570000000E+00 0. -1.
         13    1    1    2    0    0  0.14071912215E+02 -0.34789724680E+01  0.10512872816E+02  0.17906804019E+02  0.10570000000E+00 0.  1.
<mgrwt>
<rscale>  0 0.31323461E+02</rscale>
<asrwt>0</asrwt>
<pdfrwt beam="1">  1        2 0.70359782E-02 0.31323461E+02</pdfrwt>
<pdfrwt beam="2">  1       -2 0.82514126E-03 0.31323461E+02</pdfrwt>
<totfact> 0.16164469E+06</totfact>
</mgrwt>
</event>
<event>
 4    1  0.3704929E-001  0.2773193E+02  0.7818608E-02  0.1624603E+00
         -2   -1    0    0    0  501 -0.00000000000E+00  0.00000000000E+00  0.55850528813E+01  0.55850534865E+01  0.26000000000E-02 0.  1.
          2   -1    0    0  501    0  0.00000000000E+00 -0.00000000000E+00 -0.34424912172E+02  0.34424912270E+02  0.26000000000E-02 0. -1.
        -13    1    1    2    0    0 -0.89256727973E+01 -0.96045801945E+01 -0.20926383730E+02  0.24694944910E+02  0.10570000000E+00 0. -1.
         13    1    1    2    0    0  0.89256727973E+01  0.96045801945E+01 -0.79134755606E+01  0.15315020847E+02  0.10570000000E+00 0.  1.
<mgrwt>
<rscale>  0 0.27731929E+02</rscale>
<asrwt>0</asrwt>
<pdfrwt beam="2">  1        2 0.52961403E-02 0.27731929E+02</pdfrwt>
<pdfrwt beam="1">  1       -2 0.85923898E-03 0.27731929E+02</pdfrwt>
<totfact> 0.20749875E+06</totfact>
</mgrwt>
</event>
<event>
 4    1  0.3704929E-001  0.2347995E+02  0.7818608E-02  0.1683846E+00
          2   -1    0    0  501    0  0.00000000000E+00  0.00000000000E+00  0.76778027908E+01  0.76778032311E+01  0.26000000000E-02 0.  1.
         -2   -1    0    0    0  501 -0.00000000000E+00 -0.00000000000E+00 -0.17951365908E+02  0.17951366096E+02  0.26000000000E-02 0. -1.
        -13    1    1    2    0    0 -0.86629852653E+01 -0.77472503169E+01 -0.33271110135E+01  0.12089170417E+02  0.10570000000E+00 0.  1.
         13    1    1    2    0    0  0.86629852653E+01  0.77472503169E+01 -0.69464521036E+01  0.13539998910E+02  0.10570000000E+00 0. -1.
<mgrwt>
<rscale>  0 0.23479954E+02</rscale>
<asrwt>0</asrwt>
<pdfrwt beam="1">  1        2 0.11812005E-02 0.23479954E+02</pdfrwt>
<pdfrwt beam="2">  1       -2 0.27617486E-02 0.23479954E+02</pdfrwt>
<totfact> 0.26578152E+06</totfact>
</mgrwt>
</event>
<event>
 4    1  0.3704929E-001  0.3306332E+02  0.7818608E-02  0.1566503E+00
         -2   -1    0    0    0  501 -0.00000000000E+00  0.00000000000E+00  0.20288614260E+01  0.20288630920E+01  0.26000000000E-02 0.  1.
          2   -1    0    0  501    0  0.00000000000E+00 -0.00000000000E+00 -0.13470392061E+03  0.13470392063E+03  0.26000000000E-02 0. -1.
        -13    1    1    2    0    0 -0.60669335681E+01 -0.15350485422E+02 -0.62548546828E+02  0.64689852129E+02  0.10570000000E+00 0.  1.
         13    1    1    2    0    0  0.60669335681E+01  0.15350485422E+02 -0.70126512352E+02  0.72042931595E+02  0.10570000000E+00 0. -1.
<mgrwt>
<rscale>  0 0.33063315E+02</rscale>
<asrwt>0</asrwt>
<pdfrwt beam="2">  1        2 0.20723673E-01 0.33063315E+02</pdfrwt>
<pdfrwt beam="1">  1       -2 0.31213276E-03 0.33063315E+02</pdfrwt>
<totfact> 0.17926354E+06</totfact>
</mgrwt>
</event>
<event>
 4    1  0.3704929E-001  0.2230199E+02  0.7818608E-02  0.1703081E+00
         -2   -1    0    0    0  501 -0.00000000000E+00  0.00000000000E+00  0.10328236163E+01  0.10328268889E+01  0.26000000000E-02 0. -1.
          2   -1    0    0  501    0  0.00000000000E+00 -0.00000000000E+00 -0.12039280320E+03  0.12039280323E+03  0.26000000000E-02 0.  1.
        -13    1    1    2    0    0  0.34514496856E+01  0.10563239740E+02 -0.54692836495E+02  0.55810501477E+02  0.10570000000E+00 0.  1.
         13    1    1    2    0    0 -0.34514496856E+01 -0.10563239740E+02 -0.64667143092E+02  0.65615128643E+02  0.10570000000E+00 0. -1.
<mgrwt>
<rscale>  0 0.22301994E+02</rscale>
<asrwt>0</asrwt>
<pdfrwt beam="2">  1        2 0.18521959E-01 0.22301994E+02</pdfrwt>
<pdfrwt beam="1">  1       -2 0.15889629E-03 0.22301994E+02</pdfrwt>
<totfact> 0.43282965E+06</totfact>
</mgrwt>
</event>
<event>
 4    1  0.3704929E-001  0.3227303E+02  0.7818608E-02  0.1574242E+00
         -2   -1    0    0    0  501 -0.00000000000E+00  0.00000000000E+00  0.10032842295E+02  0.10032842632E+02  0.26000000000E-02 0.  1.
          2   -1    0    0  501    0  0.00000000000E+00 -0.00000000000E+00 -0.25953476642E+02  0.25953476772E+02  0.26000000000E-02 0. -1.
        -13    1    1    2    0    0 -0.16060574073E+02 -0.15600774497E+01 -0.79710635615E+01  0.17997913990E+02  0.10570000000E+00 0.  1.
         13    1    1    2    0    0  0.16060574073E+02  0.15600774497E+01 -0.79495707854E+01  0.17988405414E+02  0.10570000000E+00 0. -1.
<mgrwt>
<rscale>  0 0.32273032E+02</rscale>
<asrwt>0</asrwt>
<pdfrwt beam="2">  1        2 0.39928426E-02 0.32273032E+02</pdfrwt>
<pdfrwt beam="1">  1       -2 0.15435142E-02 0.32273032E+02</pdfrwt>
<totfact> 0.13912905E+06</totfact>
</mgrwt>
</event>
<event>
 4    1  0.3704929E-001  0.3005367E+02  0.7818608E-02  0.1597496E+00
          2   -1    0    0  501    0  0.00000000000E+00  0.00000000000E+00  0.66820635060E+02  0.66820635111E+02  0.26000000000E-02 0. -1.
         -2   -1    0    0    0  501 -0.00000000000E+00 -0.00000000000E+00 -0.33792814798E+01  0.33792824800E+01  0.26000000000E-02 0.  1.
        -13    1    1    2    0    0  0.12889502721E+02 -0.61772620840E+01  0.20890750331E+02  0.25312693833E+02  0.10570000000E+00 0. -1.
         13    1    1    2    0    0 -0.12889502721E+02  0.61772620840E+01  0.42550603250E+02  0.44887223757E+02  0.10570000000E+00 0.  1.
<mgrwt>
<rscale>  0 0.30053670E+02</rscale>
<asrwt>0</asrwt>
<pdfrwt beam="1">  1        2 0.10280098E-01 0.30053670E+02</pdfrwt>
<pdfrwt beam="2">  1       -2 0.51988955E-03 0.30053670E+02</pdfrwt>
<totfact> 0.19066291E+06</totfact>
</mgrwt>
</event>
<event>
 4    1  0.3704929E-001  0.2023889E+02  0.7818608E-02  0.1740619E+00
         -2   -1    0    0    0  501 -0.00000000000E+00  0.00000000000E+00  0.59214476181E+01  0.59214481889E+01  0.26000000000E-02 0. -1.
          2   -1    0    0  501    0  0.00000000000E+00 -0.00000000000E+00 -0.17293605638E+02  0.17293605834E+02  0.26000000000E-02 0.  1.
        -13    1    1    2    0    0  0.72527558331E+01 -0.70542830154E+01 -0.58732990711E+01  0.11699238886E+02  0.10570000000E+00 0.  1.
         13    1    1    2    0    0 -0.72527558331E+01  0.70542830154E+01 -0.54988589492E+01  0.11515815137E+02  0.10570000000E+00 0. -1.
<mgrwt>
<rscale>  0 0.20238892E+02</rscale>
<asrwt>0</asrwt>
<pdfrwt beam="2">  1        2 0.26605547E-02 0.20238892E+02</pdfrwt>
<pdfrwt beam="1">  1       -2 0.91099201E-03 0.20238892E+02</pdfrwt>
<totfact> 0.40071042E+06</totfact>
</mgrwt>
</event>
<event>
 4    1  0.3704929E-001  0.4580894E+02  0.7818608E-02  0.1469354E+00
         -2   -1    0    0    0  501 -0.00000000000E+00  0.00000000000E+00  0.44718865158E+02  0.44718865233E+02  0.26000000000E-02 0.  1.
          2   -1    0    0  501    0  0.00000000000E+00 -0.00000000000E+00 -0.11731396767E+02  0.11731397055E+02  0.26000000000E-02 0. -1.
        -13    1    1    2    0    0  0.12472816725E+02  0.19175790639E+02  0.17910332461E+02  0.29052939353E+02  0.10570000000E+00 0.  1.
         13    1    1    2    0    0 -0.12472816725E+02 -0.19175790639E+02  0.15077135930E+02  0.27397322935E+02  0.10570000000E+00 0. -1.
<mgrwt>
<rscale>  0 0.45808941E+02</rscale>
<asrwt>0</asrwt>
<pdfrwt beam="2">  1        2 0.18048303E-02 0.45808941E+02</pdfrwt>
<pdfrwt beam="1">  1       -2 0.68798254E-02 0.45808941E+02</pdfrwt>
<totfact> 0.51210284E+05</totfact>
</mgrwt>
</event>
<event>
 4    1  0.3704929E-001  0.3589157E+02  0.7818608E-02  0.1540823E+00
          2   -1    0    0  501    0  0.00000000000E+00  0.00000000000E+00  0.17645005298E+02  0.17645005490E+02  0.26000000000E-02 0.  1.
         -2   -1    0    0    0  501 -0.00000000000E+00 -0.00000000000E+00 -0.18251694702E+02  0.18251694887E+02  0.26000000000E-02 0. -1.
        -13    1    1    2    0    0 -0.60089934655E+01 -0.15601759675E+02 -0.68247958272E+01  0.18058569102E+02  0.10570000000E+00 0. -1.
         13    1    1    2    0    0  0.60089934655E+01  0.15601759675E+02  0.62181064230E+01  0.17838131275E+02  0.10570000000E+00 0.  1.
<mgrwt>
<rscale>  0 0.35891573E+02</rscale>
<asrwt>0</asrwt>
<pdfrwt beam="1">  1        2 0.27146162E-02 0.35891573E+02</pdfrwt>
<pdfrwt beam="2">  1       -2 0.28079531E-02 0.35891573E+02</pdfrwt>
<totfact> 0.10216438E+06</totfact>
</mgrwt>
</event>
<event>
 4    1  0.3704929E-001  0.2357271E+02  0.7818608E-02  0.1682391E+00
         -2   -1    0    0    0  501 -0.00000000000E+00  0.00000000000E+00  0.23191190825E+01  0.23191205400E+01  0.26000000000E-02 0. -1.
          2   -1    0    0  501    0  0.00000000000E+00 -0.00000000000E+00 -0.59901261224E+02  0.59901261280E+02  0.26000000000E-02 0.  1.
        -13    1    1    2    0    0 -0.10172184023E+02 -0.20417387016E+01 -0.43549915864E+02  0.44768832562E+02  0.10570000000E+00 0.  1.
         13    1    1    2    0    0  0.10172184023E+02  0.20417387016E+01 -0.14032226278E+02  0.17451549259E+02  0.10570000000E+00 0. -1.
<mgrwt>
<rscale>  0 0.23572713E+02</rscale>
<asrwt>0</asrwt>
<pdfrwt beam="2">  1        2 0.92155776E-02 0.23572713E+02</pdfrwt>
<pdfrwt beam="1">  1       -2 0.35678771E-03 0.23572713E+02</pdfrwt>
<totfact> 0.32914539E+06</totfact>
</mgrwt>
</event>
<event>
 4    1  0.3704929E-001  0.4298519E+02  0.7818608E-02  0.1487326E+00
         -2   -1    0    0    0  501 -0.00000000000E+00  0.00000000000E+00  0.98740453156E+02  0.98740453190E+02  0.26000000000E-02 0. -1.
          2   -1    0    0  501    0  0.00000000000E+00 -0.00000000000E+00 -0.46782416774E+01  0.46782423999E+01  0.26000000000E-02 0.  1.
        -13    1    1    2    0    0 -0.10180558626E+02 -0.18048172005E+02  0.60755425271E+02  0.64192002298E+02  0.10570000000E+00 0. -1.
         13    1    1    2    0    0  0.10180558626E+02  0.18048172005E+02  0.33306786207E+02  0.39226693291E+02  0.10570000000E+00 0.  1.
<mgrwt>
<rscale>  0 0.42985195E+02</rscale>
<asrwt>0</asrwt>
<pdfrwt beam="2">  1        2 0.71972952E-03 0.42985195E+02</pdfrwt>
<pdfrwt beam="1">  1       -2 0.15190839E-01 0.42985195E+02</pdfrwt>
<totfact> 0.51092609E+05</totfact>
</mgrwt>
</event>
<event>
 4    1  0.3704929E-001  0.2095719E+02  0.7818608E-02  0.1726937E+00
         -2   -1    0    0    0  501 -0.00000000000E+00  0.00000000000E+00  0.15600189890E+01  0.15600211557E+01  0.26000000000E-02 0.  1.
          2   -1    0    0  501    0  0.00000000000E+00 -0.00000000000E+00 -0.70384330534E+02  0.70384330582E+02  0.26000000000E-02 0. -1.
        -13    1    1    2    0    0  0.92994606755E+01  0.46026847178E+01 -0.29407712842E+02  0.31184762667E+02  0.10570000000E+00 0.  1.
         13    1    1    2    0    0 -0.92994606755E+01 -0.46026847178E+01 -0.39416598703E+02  0.40759589071E+02  0.10570000000E+00 0. -1.
<mgrwt>
<rscale>  0 0.20957192E+02</rscale>
<asrwt>0</asrwt>
<pdfrwt beam="2">  1        2 0.10828356E-01 0.20957192E+02</pdfrwt>
<pdfrwt beam="1">  1       -2 0.24000315E-03 0.20957192E+02</pdfrwt>
<totfact> 0.44216980E+06</totfact>
</mgrwt>
</event>
<event>
 4    1  0.3704929E-001  0.2995203E+02  0.7818608E-02  0.1598620E+00
          2   -1    0    0  501    0  0.00000000000E+00  0.00000000000E+00  0.21888728688E+02  0.21888728842E+02  0.26000000000E-02 0.  1.
         -2   -1    0    0    0  501 -0.00000000000E+00 -0.00000000000E+00 -0.10246413007E+02  0.10246413337E+02  0.26000000000E-02 0. -1.
        -13    1    1    2    0    0  0.10508895628E+02  0.10559522094E+02  0.74586364493E+01  0.16660817038E+02  0.10570000000E+00 0.  1.
         13    1    1    2    0    0 -0.10508895628E+02 -0.10559522094E+02  0.41836792316E+01  0.15474325142E+02  0.10570000000E+00 0. -1.
<mgrwt>
<rscale>  0 0.29952026E+02</rscale>
<asrwt>0</asrwt>
<pdfrwt beam="1">  1        2 0.33674967E-02 0.29952026E+02</pdfrwt>
<pdfrwt beam="2">  1       -2 0.15763713E-02 0.29952026E+02</pdfrwt>
<totfact> 0.16356484E+06</totfact>
</mgrwt>
</event>
<event>
 4    1  0.3704929E-001  0.2689246E+02  0.7818608E-02  0.1635219E+00
          2   -1    0    0  501    0  0.00000000000E+00  0.00000000000E+00  0.48811547439E+01  0.48811554364E+01  0.26000000000E-02 0. -1.
         -2   -1    0    0    0  501 -0.00000000000E+00 -0.00000000000E+00 -0.37040646096E+02  0.37040646188E+02  0.26000000000E-02 0.  1.
        -13    1    1    2    0    0  0.66160704700E+01  0.76405096088E+01 -0.22558118577E+01  0.10356139975E+02  0.10570000000E+00 0. -1.
         13    1    1    2    0    0 -0.66160704700E+01 -0.76405096088E+01 -0.29903679495E+02  0.31565661649E+02  0.10570000000E+00 0.  1.
<mgrwt>
<rscale>  0 0.26892463E+02</rscale>
<asrwt>0</asrwt>
<pdfrwt beam="1">  1        2 0.75094697E-03 0.26892463E+02</pdfrwt>
<pdfrwt beam="2">  1       -2 0.56985608E-02 0.26892463E+02</pdfrwt>
<totfact> 0.18208987E+06</totfact>
</mgrwt>
</event>
<event>
 4    1  0.3704929E-001  0.2726479E+02  0.7818608E-02  0.1630453E+00
          2   -1    0    0  501    0  0.00000000000E+00  0.00000000000E+00  0.35755090049E+02  0.35755090144E+02  0.26000000000E-02 0.  1.
         -2   -1    0    0    0  501 -0.00000000000E+00 -0.00000000000E+00 -0.51976428204E+01  0.51976434707E+01  0.26000000000E-02 0. -1.
        -13    1    1    2    0    0  0.10951393219E+02  0.30298375507E+01  0.26590780209E+02  0.28917013912E+02  0.10570000000E+00 0.  1.
         13    1    1    2    0    0 -0.10951393219E+02 -0.30298375507E+01  0.39666670203E+01  0.12035719702E+02  0.10570000000E+00 0. -1.
<mgrwt>
<rscale>  0 0.27264791E+02</rscale>
<asrwt>0</asrwt>
<pdfrwt beam="1">  1        2 0.55007830E-02 0.27264791E+02</pdfrwt>
<pdfrwt beam="2">  1       -2 0.79963744E-03 0.27264791E+02</pdfrwt>
<totfact> 0.21707243E+06</totfact>
</mgrwt>
</event>
<event>
 4    1  0.3704929E-001  0.2324312E+02  0.7818608E-02  0.1687599E+00
         -2   -1    0    0    0  501 -0.00000000000E+00  0.00000000000E+00  0.75832127736E+01  0.75832132193E+01  0.26000000000E-02 0. -1.
          2   -1    0    0  501    0  0.00000000000E+00 -0.00000000000E+00 -0.17810482215E+02  0.17810482405E+02  0.26000000000E-02 0.  1.
        -13    1    1    2    0    0  0.88414494415E+01  0.75186860460E+01 -0.44694674673E+01  0.12437410503E+02  0.10570000000E+00 0. -1.
         13    1    1    2    0    0 -0.88414494415E+01 -0.75186860460E+01 -0.57578019743E+01  0.12956285122E+02  0.10570000000E+00 0.  1.
<mgrwt>
<rscale>  0 0.23243122E+02</rscale>
<asrwt>0</asrwt>
<pdfrwt beam="2">  1        2 0.27400742E-02 0.23243122E+02</pdfrwt>
<pdfrwt beam="1">  1       -2 0.11666482E-02 0.23243122E+02</pdfrwt>
<totfact> 0.29237983E+06</totfact>
</mgrwt>
</event>
<event>
 4    1  0.3704929E-001  0.1019857E+03  0.7818608E-02  0.1276175E+00
          2   -1    0    0  501    0  0.00000000000E+00  0.00000000000E+00  0.35969554195E+02  0.35969554289E+02  0.26000000000E-02 0. -1.
         -2   -1    0    0    0  501 -0.00000000000E+00 -0.00000000000E+00 -0.72290879638E+02  0.72290879684E+02  0.26000000000E-02 0.  1.
        -13    1    1    2    0    0 -0.42531771012E+02 -0.26453274052E+02 -0.28316545039E+02  0.57537510799E+02  0.10570000000E+00 0.  1.
         13    1    1    2    0    0  0.42531771012E+02  0.26453274052E+02 -0.80047804037E+01  0.50722923174E+02  0.10570000000E+00 0. -1.
<mgrwt>
<rscale>  0 0.10198570E+03</rscale>
<asrwt>0</asrwt>
<pdfrwt beam="1">  1        2 0.55337776E-02 0.10198570E+03</pdfrwt>
<pdfrwt beam="2">  1       -2 0.11121674E-01 0.10198570E+03</pdfrwt>
<totfact> 0.66588072E+04</totfact>
</mgrwt>
</event>
<event>
 4    1  0.3704929E-001  0.2060506E+02  0.7818608E-02  0.1733557E+00
          2   -1    0    0  501    0  0.00000000000E+00  0.00000000000E+00  0.39410060953E+02  0.39410061039E+02  0.26000000000E-02 0. -1.
         -2   -1    0    0    0  501 -0.00000000000E+00 -0.00000000000E+00 -0.26932750276E+01  0.26932762826E+01  0.26000000000E-02 0.  1.
        -13    1    1    2    0    0  0.96616685982E+01  0.28909469557E+01  0.22656996409E+02  0.24800324054E+02  0.10570000000E+00 0.  1.
         13    1    1    2    0    0 -0.96616685982E+01 -0.28909469557E+01  0.14059789516E+02  0.17303013267E+02  0.10570000000E+00 0. -1.
<mgrwt>
<rscale>  0 0.20605064E+02</rscale>
<asrwt>0</asrwt>
<pdfrwt beam="1">  1        2 0.60630860E-02 0.20605064E+02</pdfrwt>
<pdfrwt beam="2">  1       -2 0.41435013E-03 0.20605064E+02</pdfrwt>
<totfact> 0.41913371E+06</totfact>
</mgrwt>
</event>
<event>
 4    1  0.3704929E-001  0.3414487E+02  0.7818608E-02  0.1556328E+00
         -2   -1    0    0    0  501 -0.00000000000E+00  0.00000000000E+00  0.54441051278E+01  0.54441057486E+01  0.26000000000E-02 0.  1.
          2   -1    0    0  501    0  0.00000000000E+00 -0.00000000000E+00 -0.53538276229E+02  0.53538276292E+02  0.26000000000E-02 0. -1.
        -13    1    1    2    0    0 -0.74190747913E+01 -0.98007367169E+01 -0.44512386358E+02  0.46178575365E+02  0.10570000000E+00 0. -1.
         13    1    1    2    0    0  0.74190747913E+01  0.98007367169E+01 -0.35817847430E+01  0.12803806676E+02  0.10570000000E+00 0.  1.
<mgrwt>
<rscale>  0 0.34144869E+02</rscale>
<asrwt>0</asrwt>
<pdfrwt beam="2">  1        2 0.82366576E-02 0.34144869E+02</pdfrwt>
<pdfrwt beam="1">  1       -2 0.83755472E-03 0.34144869E+02</pdfrwt>
<totfact> 0.13473947E+06</totfact>
</mgrwt>
</event>
<event>
 4    1  0.3704929E-001  0.5717212E+02  0.7818608E-02  0.1410097E+00
          2   -1    0    0  501    0  0.00000000000E+00  0.00000000000E+00  0.69951922224E+02  0.69951922273E+02  0.26000000000E-02 0. -1.
         -2   -1    0    0    0  501 -0.00000000000E+00 -0.00000000000E+00 -0.11681778554E+02  0.11681778843E+02  0.26000000000E-02 0.  1.
        -13    1    1    2    0    0  0.20846021498E+02 -0.16196707949E+02  0.44793527535E+02  0.51993857736E+02  0.10570000000E+00 0. -1.
         13    1    1    2    0    0 -0.20846021498E+02  0.16196707949E+02  0.13476616135E+02  0.29639843380E+02  0.10570000000E+00 0.  1.
<mgrwt>
<rscale>  0 0.57172122E+02</rscale>
<asrwt>0</asrwt>
<pdfrwt beam="1">  1        2 0.10761834E-01 0.57172122E+02</pdfrwt>
<pdfrwt beam="2">  1       -2 0.17971967E-02 0.57172122E+02</pdfrwt>
<totfact> 0.38902264E+05</totfact>
</mgrwt>
</event>
<event>
 4    1  0.3704929E-001  0.3909276E+02  0.7818608E-02  0.1514996E+00
         -2   -1    0    0    0  501 -0.00000000000E+00  0.00000000000E+00  0.91898395611E+01  0.91898399289E+01  0.26000000000E-02 0. -1.
          2   -1    0    0  501    0  0.00000000000E+00 -0.00000000000E+00 -0.41574277589E+02  0.41574277670E+02  0.26000000000E-02 0.  1.
        -13    1    1    2    0    0  0.54485345428E+01  0.13999288281E+02 -0.32431079000E+02  0.35741469733E+02  0.10570000000E+00 0.  1.
         13    1    1    2    0    0 -0.54485345428E+01 -0.13999288281E+02  0.46640972456E-01  0.15022647866E+02  0.10570000000E+00 0. -1.
<mgrwt>
<rscale>  0 0.39092759E+02</rscale>
<asrwt>0</asrwt>
<pdfrwt beam="2">  1        2 0.63960426E-02 0.39092759E+02</pdfrwt>
<pdfrwt beam="1">  1       -2 0.14138215E-02 0.39092759E+02</pdfrwt>
<totfact> 0.92612230E+05</totfact>
</mgrwt>
</event>
<event>
 4    1  0.3704929E-001  0.2600206E+02  0.7818608E-02  0.1647013E+00
          2   -1    0    0  501    0  0.00000000000E+00  0.00000000000E+00  0.57920038154E+01  0.57920043989E+01  0.26000000000E-02 0.  1.
         -2   -1    0    0    0  501 -0.00000000000E+00 -0.00000000000E+00 -0.29182768477E+02  0.29182768592E+02  0.26000000000E-02 0. -1.
        -13    1    1    2    0    0  0.90261043218E+01  0.91702634327E+01 -0.14194206978E+02  0.19158574448E+02  0.10570000000E+00 0.  1.
         13    1    1    2    0    0 -0.90261043218E+01 -0.91702634327E+01 -0.91965576831E+01  0.15816198543E+02  0.10570000000E+00 0. -1.
<mgrwt>
<rscale>  0 0.26002055E+02</rscale>
<asrwt>0</asrwt>
<pdfrwt beam="1">  1        2 0.89107758E-03 0.26002055E+02</pdfrwt>
<pdfrwt beam="2">  1       -2 0.44896566E-02 0.26002055E+02</pdfrwt>
<totfact> 0.20196400E+06</totfact>
</mgrwt>
</event>
<event>
 4    1  0.3704929E-001  0.3774304E+02  0.7818608E-02  0.1525509E+00
          2   -1    0    0  501    0  0.00000000000E+00  0.00000000000E+00  0.17036454863E+02  0.17036455061E+02  0.26000000000E-02 0.  1.
         -2   -1    0    0    0  501 -0.00000000000E+00 -0.00000000000E+00 -0.20904246112E+02  0.20904246274E+02  0.26000000000E-02 0. -1.
        -13    1    1    2    0    0  0.13899570199E+02  0.11459494153E+02 -0.75851718186E+01  0.19546459064E+02  0.10570000000E+00 0. -1.
         13    1    1    2    0    0 -0.13899570199E+02 -0.11459494153E+02  0.37173805688E+01  0.18394242271E+02  0.10570000000E+00 0.  1.
<mgrwt>
<rscale>  0 0.37743039E+02</rscale>
<asrwt>0</asrwt>
<pdfrwt beam="1">  1        2 0.26209931E-02 0.37743039E+02</pdfrwt>
<pdfrwt beam="2">  1       -2 0.32160379E-02 0.37743039E+02</pdfrwt>
<totfact> 0.89567038E+05</totfact>
</mgrwt>
</event>
<event>
 4    1  0.3704929E-001  0.5125658E+02  0.7818608E-02  0.1438679E+00
         -2   -1    0    0    0  501 -0.00000000000E+00  0.00000000000E+00  0.29476951323E+02  0.29476951437E+02  0.26000000000E-02 0.  1.
          2   -1    0    0  501    0  0.00000000000E+00 -0.00000000000E+00 -0.22282128790E+02  0.22282128942E+02  0.26000000000E-02 0. -1.
        -13    1    1    2    0    0 -0.43431730858E+01  0.13921792012E+02 -0.17683313737E+02  0.22921391810E+02  0.10570000000E+00 0. -1.
         13    1    1    2    0    0  0.43431730858E+01 -0.13921792012E+02  0.24878136270E+02  0.28837688569E+02  0.10570000000E+00 0.  1.
<mgrwt>
<rscale>  0 0.51256579E+02</rscale>
<asrwt>0</asrwt>
<pdfrwt beam="2">  1        2 0.34280199E-02 0.51256579E+02</pdfrwt>
<pdfrwt beam="1">  1       -2 0.45349156E-02 0.51256579E+02</pdfrwt>
<totfact> 0.41928340E+05</totfact>
</mgrwt>
</event>
<event>
 4    1  0.3704929E-001  0.2323639E+02  0.7818608E-02  0.1687707E+00
          2   -1    0    0  501    0  0.00000000000E+00  0.00000000000E+00  0.66813469678E+02  0.66813469729E+02  0.26000000000E-02 0.  1.
         -2   -1    0    0    0  501 -0.00000000000E+00 -0.00000000000E+00 -0.20202869627E+01  0.20202886357E+01  0.26000000000E-02 0. -1.
        -13    1    1    2    0    0  0.71094361974E+01 -0.76841476627E+01  0.17472505871E+02  0.20368844892E+02  0.10570000000E+00 0. -1.
         13    1    1    2    0    0 -0.71094361974E+01  0.76841476627E+01  0.47320676845E+02  0.48464913472E+02  0.10570000000E+00 0.  1.
<mgrwt>
<rscale>  0 0.23236389E+02</rscale>
<asrwt>0</asrwt>
<pdfrwt beam="1">  1        2 0.10278995E-01 0.23236389E+02</pdfrwt>
<pdfrwt beam="2">  1       -2 0.31081353E-03 0.23236389E+02</pdfrwt>
<totfact> 0.34685789E+06</totfact>
</mgrwt>
</event>
<event>
 4    1  0.3704929E-001  0.3264516E+02  0.7818608E-02  0.1570565E+00
          2   -1    0    0  501    0  0.00000000000E+00  0.00000000000E+00  0.10003206800E+03  0.10003206803E+03  0.26000000000E-02 0. -1.
         -2   -1    0    0    0  501 -0.00000000000E+00 -0.00000000000E+00 -0.26634119750E+01  0.26634132441E+01  0.26000000000E-02 0.  1.
        -13    1    1    2    0    0 -0.50959024741E+01 -0.15503129561E+02  0.49680382976E+02  0.52292130129E+02  0.10570000000E+00 0.  1.
         13    1    1    2    0    0  0.50959024741E+01  0.15503129561E+02  0.47688273044E+02  0.50403351145E+02  0.10570000000E+00 0. -1.
<mgrwt>
<rscale>  0 0.32645163E+02</rscale>
<asrwt>0</asrwt>
<pdfrwt beam="1">  1        2 0.15389548E-01 0.32645163E+02</pdfrwt>
<pdfrwt beam="2">  1       -2 0.40975583E-03 0.32645163E+02</pdfrwt>
<totfact> 0.17097411E+06</totfact>
</mgrwt>
</event>
<event>
 4    1  0.3704929E-001  0.3067898E+02  0.7818608E-02  0.1590703E+00
         -2   -1    0    0    0  501 -0.00000000000E+00  0.00000000000E+00  0.19980112242E+01  0.19980129159E+01  0.26000000000E-02 0.  1.
          2   -1    0    0  501    0  0.00000000000E+00 -0.00000000000E+00 -0.11776699589E+03  0.11776699592E+03  0.26000000000E-02 0. -1.
        -13    1    1    2    0    0 -0.14897610565E+02  0.19250422574E+01 -0.70007780981E+02  0.71601292996E+02  0.10570000000E+00 0. -1.
         13    1    1    2    0    0  0.14897610565E+02 -0.19250422574E+01 -0.45761203683E+02  0.48163715838E+02  0.10570000000E+00 0.  1.
<mgrwt>
<rscale>  0 0.30678975E+02</rscale>
<asrwt>0</asrwt>
<pdfrwt beam="2">  1        2 0.18117994E-01 0.30678975E+02</pdfrwt>
<pdfrwt beam="1">  1       -2 0.30738657E-03 0.30678975E+02</pdfrwt>
<totfact> 0.20647485E+06</totfact>
</mgrwt>
</event>
<event>
 4    1  0.3704929E-001  0.2903714E+02  0.7818608E-02  0.1608982E+00
         -2   -1    0    0    0  501 -0.00000000000E+00  0.00000000000E+00  0.42740010183E+02  0.42740010262E+02  0.26000000000E-02 0.  1.
          2   -1    0    0  501    0  0.00000000000E+00 -0.00000000000E+00 -0.49318874388E+01  0.49318881241E+01  0.26000000000E-02 0. -1.
        -13    1    1    2    0    0  0.21200978671E+01  0.11075130402E+02  0.33917326228E+02  0.35742824725E+02  0.10570000000E+00 0.  1.
         13    1    1    2    0    0 -0.21200978671E+01 -0.11075130402E+02  0.38907965167E+01  0.11929073661E+02  0.10570000000E+00 0. -1.
<mgrwt>
<rscale>  0 0.29037144E+02</rscale>
<asrwt>0</asrwt>
<pdfrwt beam="2">  1        2 0.75875197E-03 0.29037144E+02</pdfrwt>
<pdfrwt beam="1">  1       -2 0.65753863E-02 0.29037144E+02</pdfrwt>
<totfact> 0.15005166E+06</totfact>
</mgrwt>
</event>
<event>
 4    1  0.3704929E-001  0.2237812E+02  0.7818608E-02  0.1701793E+00
          2   -1    0    0  501    0  0.00000000000E+00  0.00000000000E+00  0.45484545508E+02  0.45484545583E+02  0.26000000000E-02 0. -1.
         -2   -1    0    0    0  501 -0.00000000000E+00 -0.00000000000E+00 -0.27524747694E+01  0.27524759974E+01  0.26000000000E-02 0.  1.
        -13    1    1    2    0    0 -0.31552069813E+01 -0.96703698733E+01  0.31410160839E+02  0.33016371106E+02  0.10570000000E+00 0. -1.
         13    1    1    2    0    0  0.31552069813E+01  0.96703698733E+01  0.11321909900E+02  0.15220650474E+02  0.10570000000E+00 0.  1.
<mgrwt>
<rscale>  0 0.22378123E+02</rscale>
<asrwt>0</asrwt>
<pdfrwt beam="1">  1        2 0.69976226E-02 0.22378123E+02</pdfrwt>
<pdfrwt beam="2">  1       -2 0.42345775E-03 0.22378123E+02</pdfrwt>
<totfact> 0.35468517E+06</totfact>
</mgrwt>
</event>
<event>
 4    1  0.3704929E-001  0.4589483E+02  0.7818608E-02  0.1468831E+00
         -2   -1    0    0    0  501 -0.00000000000E+00  0.00000000000E+00  0.13042901798E+02  0.13042902057E+02  0.26000000000E-02 0. -1.
          2   -1    0    0  501    0  0.00000000000E+00 -0.00000000000E+00 -0.40373212521E+02  0.40373212605E+02  0.26000000000E-02 0.  1.
        -13    1    1    2    0    0  0.17307535144E+02 -0.13372967422E+02 -0.21744337549E+02  0.30841764190E+02  0.10570000000E+00 0.  1.
         13    1    1    2    0    0 -0.17307535144E+02  0.13372967422E+02 -0.55859731742E+01  0.22574350472E+02  0.10570000000E+00 0. -1.
<mgrwt>
<rscale>  0 0.45894830E+02</rscale>
<asrwt>0</asrwt>
<pdfrwt beam="2">  1        2 0.62112634E-02 0.45894830E+02</pdfrwt>
<pdfrwt beam="1">  1       -2 0.20066003E-02 0.45894830E+02</pdfrwt>
<totfact> 0.61500264E+05</totfact>
</mgrwt>
</event>
<event>
 4    1  0.3704929E-001  0.2726923E+02  0.7818608E-02  0.1630396E+00
         -2   -1    0    0    0  501 -0.00000000000E+00  0.00000000000E+00  0.38664403726E+02  0.38664403814E+02  0.26000000000E-02 0. -1.
          2   -1    0    0  501    0  0.00000000000E+00 -0.00000000000E+00 -0.48081095614E+01  0.48081102644E+01  0.26000000000E-02 0.  1.
        -13    1    1    2    0    0 -0.87251119583E+01 -0.59551741324E+01  0.30669702443E+02  0.32438148808E+02  0.10570000000E+00 0. -1.
         13    1    1    2    0    0  0.87251119583E+01  0.59551741324E+01  0.31865917220E+01  0.11034365271E+02  0.10570000000E+00 0.  1.
<mgrwt>
<rscale>  0 0.27269229E+02</rscale>
<asrwt>0</asrwt>
<pdfrwt beam="2">  1        2 0.73970922E-03 0.27269229E+02</pdfrwt>
<pdfrwt beam="1">  1       -2 0.59483699E-02 0.27269229E+02</pdfrwt>
<totfact> 0.17548320E+06</totfact>
</mgrwt>
</event>
<event>
 4    1  0.3704929E-001  0.3474221E+02  0.7818608E-02  0.1550902E+00
          2   -1    0    0  501    0  0.00000000000E+00  0.00000000000E+00  0.20594670465E+01  0.20594686877E+01  0.26000000000E-02 0. -1.
         -2   -1    0    0    0  501 -0.00000000000E+00 -0.00000000000E+00 -0.14652102572E+03  0.14652102575E+03  0.26000000000E-02 0.  1.
        -13    1    1    2    0    0  0.82368328435E+01 -0.14038157294E+02 -0.46277114732E+02  0.49056067881E+02  0.10570000000E+00 0.  1.
         13    1    1    2    0    0 -0.82368328435E+01  0.14038157294E+02 -0.98184443944E+02  0.99524426553E+02  0.10570000000E+00 0. -1.
<mgrwt>
<rscale>  0 0.34742213E+02</rscale>
<asrwt>0</asrwt>
<pdfrwt beam="1">  1        2 0.31684133E-03 0.34742213E+02</pdfrwt>
<pdfrwt beam="2">  1       -2 0.22541688E-01 0.34742213E+02</pdfrwt>
<totfact> 0.75996085E+05</totfact>
</mgrwt>
</event>
<event>
 4    1  0.3704929E-001  0.2389722E+02  0.7818608E-02  0.1677366E+00
          2   -1    0    0  501    0  0.00000000000E+00  0.00000000000E+00  0.69419888781E+02  0.69419888830E+02  0.26000000000E-02 0. -1.
         -2   -1    0    0    0  501 -0.00000000000E+00 -0.00000000000E+00 -0.20566048455E+01  0.20566064890E+01  0.26000000000E-02 0.  1.
        -13    1    1    2    0    0  0.17500993362E+01 -0.11638089571E+02  0.39847876034E+02  0.41549637465E+02  0.10570000000E+00 0.  1.
         13    1    1    2    0    0 -0.17500993362E+01  0.11638089571E+02  0.27515407902E+02  0.29926857854E+02  0.10570000000E+00 0. -1.
<mgrwt>
<rscale>  0 0.23897225E+02</rscale>
<asrwt>0</asrwt>
<pdfrwt beam="1">  1        2 0.10679985E-01 0.23897225E+02</pdfrwt>
<pdfrwt beam="2">  1       -2 0.31640083E-03 0.23897225E+02</pdfrwt>
<totfact> 0.32770391E+06</totfact>
</mgrwt>
</event>
<event>
 4    1  0.3704929E-001  0.3070186E+02  0.7818608E-02  0.1590458E+00
         -2   -1    0    0    0  501 -0.00000000000E+00  0.00000000000E+00  0.76603015672E+01  0.76603020084E+01  0.26000000000E-02 0.  1.
          2   -1    0    0  501    0  0.00000000000E+00 -0.00000000000E+00 -0.30762629808E+02  0.30762629918E+02  0.26000000000E-02 0. -1.
        -13    1    1    2    0    0 -0.51304297957E+01  0.14467812059E+02 -0.11512312402E+02  0.19188105821E+02  0.10570000000E+00 0.  1.
         13    1    1    2    0    0  0.51304297957E+01 -0.14467812059E+02 -0.11590015839E+02  0.19234826105E+02  0.10570000000E+00 0. -1.
<mgrwt>
<rscale>  0 0.30701859E+02</rscale>
<asrwt>0</asrwt>
<pdfrwt beam="2">  1        2 0.47327123E-02 0.30701859E+02</pdfrwt>
<pdfrwt beam="1">  1       -2 0.11785080E-02 0.30701859E+02</pdfrwt>
<totfact> 0.16039032E+06</totfact>
</mgrwt>
</event>
<event>
 4    1  0.3704929E-001  0.2156205E+02  0.7818608E-02  0.1715938E+00
         -2   -1    0    0    0  501 -0.00000000000E+00  0.00000000000E+00  0.82309825227E+01  0.82309829333E+01  0.26000000000E-02 0. -1.
          2   -1    0    0  501    0  0.00000000000E+00 -0.00000000000E+00 -0.14121089311E+02  0.14121089551E+02  0.26000000000E-02 0.  1.
        -13    1    1    2    0    0 -0.56462890672E+01 -0.91740333900E+01 -0.33797074516E+01  0.11290574114E+02  0.10570000000E+00 0. -1.
         13    1    1    2    0    0  0.56462890672E+01  0.91740333900E+01 -0.25103993369E+01  0.11061498370E+02  0.10570000000E+00 0.  1.
<mgrwt>
<rscale>  0 0.21562045E+02</rscale>
<asrwt>0</asrwt>
<pdfrwt beam="2">  1        2 0.21724753E-02 0.21562045E+02</pdfrwt>
<pdfrwt beam="1">  1       -2 0.12663051E-02 0.21562045E+02</pdfrwt>
<totfact> 0.34098239E+06</totfact>
</mgrwt>
</event>
<event>
 4    1  0.3704929E-001  0.2099689E+02  0.7818608E-02  0.1726201E+00
          2   -1    0    0  501    0  0.00000000000E+00  0.00000000000E+00  0.50541728769E+02  0.50541728836E+02  0.26000000000E-02 0.  1.
         -2   -1    0    0    0  501 -0.00000000000E+00 -0.00000000000E+00 -0.21807185247E+01  0.21807200747E+01  0.26000000000E-02 0. -1.
        -13    1    1    2    0    0 -0.70415163898E+00  0.10469367185E+02  0.24985094228E+02  0.27099254323E+02  0.10570000000E+00 0. -1.
         13    1    1    2    0    0  0.70415163898E+00 -0.10469367185E+02  0.23375916017E+02  0.25623194588E+02  0.10570000000E+00 0.  1.
<mgrwt>
<rscale>  0 0.20996888E+02</rscale>
<asrwt>0</asrwt>
<pdfrwt beam="1">  1        2 0.77756494E-02 0.20996888E+02</pdfrwt>
<pdfrwt beam="2">  1       -2 0.33549534E-03 0.20996888E+02</pdfrwt>
<totfact> 0.41616765E+06</totfact>
</mgrwt>
</event>
<event>
 4    1  0.3704929E-001  0.3782603E+02  0.7818608E-02  0.1524847E+00
          2   -1    0    0  501    0  0.00000000000E+00  0.00000000000E+00  0.58615782182E+01  0.58615787948E+01  0.26000000000E-02 0.  1.
         -2   -1    0    0    0  501 -0.00000000000E+00 -0.00000000000E+00 -0.61024877441E+02  0.61024877497E+02  0.26000000000E-02 0. -1.
        -13    1    1    2    0    0 -0.12333095858E+01 -0.10549541921E+02  0.89135656052E-01  0.10622288122E+02  0.10570000000E+00 0.  1.
         13    1    1    2    0    0  0.12333095858E+01  0.10549541921E+02 -0.55252434879E+02  0.56264168170E+02  0.10570000000E+00 0. -1.
<mgrwt>
<rscale>  0 0.37826029E+02</rscale>
<asrwt>0</asrwt>
<pdfrwt beam="1">  1        2 0.90178135E-03 0.37826029E+02</pdfrwt>
<pdfrwt beam="2">  1       -2 0.93884423E-02 0.37826029E+02</pdfrwt>
<totfact> 0.76648373E+05</totfact>
</mgrwt>
</event>
<event>
 4    1  0.3704929E-001  0.2423571E+02  0.7818608E-02  0.1672229E+00
          2   -1    0    0  501    0  0.00000000000E+00  0.00000000000E+00  0.12445995750E+02  0.12445996022E+02  0.26000000000E-02 0.  1.
         -2   -1    0    0    0  501 -0.00000000000E+00 -0.00000000000E+00 -0.11798366945E+02  0.11798367232E+02  0.26000000000E-02 0. -1.
        -13    1    1    2    0    0  0.10455832545E+02 -0.20617469870E+01  0.60926766315E+01  0.12276282657E+02  0.10570000000E+00 0.  1.
         13    1    1    2    0    0 -0.10455832545E+02  0.20617469870E+01 -0.54450478264E+01  0.11968080597E+02  0.10570000000E+00 0. -1.
<mgrwt>
<rscale>  0 0.24235712E+02</rscale>
<asrwt>0</asrwt>
<pdfrwt beam="1">  1        2 0.19147686E-02 0.24235712E+02</pdfrwt>
<pdfrwt beam="2">  1       -2 0.18151334E-02 0.24235712E+02</pdfrwt>
<totfact> 0.25694800E+06</totfact>
</mgrwt>
</event>
<event>
 4    1  0.3704929E-001  0.7001373E+02  0.7818608E-02  0.1360046E+00
         -2   -1    0    0    0  501 -0.00000000000E+00  0.00000000000E+00  0.69501764100E+02  0.69501764148E+02  0.26000000000E-02 0. -1.
          2   -1    0    0  501    0  0.00000000000E+00 -0.00000000000E+00 -0.17632365381E+02  0.17632365572E+02  0.26000000000E-02 0.  1.
        -13    1    1    2    0    0  0.21843454928E+02  0.22844997777E+02  0.72071648007E+01  0.32418896397E+02  0.10570000000E+00 0.  1.
         13    1    1    2    0    0 -0.21843454928E+02 -0.22844997777E+02  0.44662233919E+02  0.54715233324E+02  0.10570000000E+00 0. -1.
<mgrwt>
<rscale>  0 0.70013728E+02</rscale>
<asrwt>0</asrwt>
<pdfrwt beam="2">  1        2 0.27126716E-02 0.70013728E+02</pdfrwt>
<pdfrwt beam="1">  1       -2 0.10692579E-01 0.70013728E+02</pdfrwt>
<totfact> 0.16857004E+05</totfact>
</mgrwt>
</event>
<event>
 4    1  0.3704929E-001  0.2921302E+02  0.7818608E-02  0.1606954E+00
         -2   -1    0    0    0  501 -0.00000000000E+00  0.00000000000E+00  0.24699633245E+02  0.24699633382E+02  0.26000000000E-02 0.  1.
          2   -1    0    0  501    0  0.00000000000E+00 -0.00000000000E+00 -0.86377877846E+01  0.86377881759E+01  0.26000000000E-02 0. -1.
        -13    1    1    2    0    0  0.75007848170E+01  0.76164756887E+01  0.19389371103E+02  0.22141168873E+02  0.10570000000E+00 0.  1.
         13    1    1    2    0    0 -0.75007848170E+01 -0.76164756887E+01 -0.33275256429E+01  0.11196252685E+02  0.10570000000E+00 0. -1.
<mgrwt>
<rscale>  0 0.29213024E+02</rscale>
<asrwt>0</asrwt>
<pdfrwt beam="2">  1        2 0.13288905E-02 0.29213024E+02</pdfrwt>
<pdfrwt beam="1">  1       -2 0.37999436E-02 0.29213024E+02</pdfrwt>
<totfact> 0.15794667E+06</totfact>
</mgrwt>
</event>
<event>
 4    1  0.3704929E-001  0.2583260E+02  0.7818608E-02  0.1649323E+00
          2   -1    0    0  501    0  0.00000000000E+00  0.00000000000E+00  0.13746752256E+02  0.13746752502E+02  0.26000000000E-02 0.  1.
         -2   -1    0    0    0  501 -0.00000000000E+00 -0.00000000000E+00 -0.12136013830E+02  0.12136014109E+02  0.26000000000E-02 0. -1.
        -13    1    1    2    0    0  0.34100196665E+01 -0.11930821493E+02 -0.27858452615E+01  0.12717894555E+02  0.10570000000E+00 0. -1.
         13    1    1    2    0    0 -0.34100196665E+01  0.11930821493E+02  0.43965836874E+01  0.13164872055E+02  0.10570000000E+00 0.  1.
<mgrwt>
<rscale>  0 0.25832598E+02</rscale>
<asrwt>0</asrwt>
<pdfrwt beam="1">  1        2 0.21148850E-02 0.25832598E+02</pdfrwt>
<pdfrwt beam="2">  1       -2 0.18670791E-02 0.25832598E+02</pdfrwt>
<totfact> 0.22277170E+06</totfact>
</mgrwt>
</event>
<event>
 4    1  0.3704929E-001  0.2523040E+02  0.7818608E-02  0.1657714E+00
          2   -1    0    0  501    0  0.00000000000E+00  0.00000000000E+00  0.86404579467E+01  0.86404583379E+01  0.26000000000E-02 0. -1.
         -2   -1    0    0    0  501 -0.00000000000E+00 -0.00000000000E+00 -0.18418384860E+02  0.18418385043E+02  0.26000000000E-02 0.  1.
        -13    1    1    2    0    0  0.11176743114E+02  0.54644960566E+01 -0.26516846977E+01  0.12720963329E+02  0.10570000000E+00 0.  1.
         13    1    1    2    0    0 -0.11176743114E+02 -0.54644960566E+01 -0.71262422153E+01  0.14337880052E+02  0.10570000000E+00 0. -1.
<mgrwt>
<rscale>  0 0.25230401E+02</rscale>
<asrwt>0</asrwt>
<pdfrwt beam="1">  1        2 0.13293013E-02 0.25230401E+02</pdfrwt>
<pdfrwt beam="2">  1       -2 0.28335977E-02 0.25230401E+02</pdfrwt>
<totfact> 0.22608190E+06</totfact>
</mgrwt>
</event>
<event>
 4    1  0.3704929E-001  0.3638613E+02  0.7818608E-02  0.1536625E+00
          2   -1    0    0  501    0  0.00000000000E+00  0.00000000000E+00  0.16730110276E+02  0.16730110478E+02  0.26000000000E-02 0. -1.
         -2   -1    0    0    0  501 -0.00000000000E+00 -0.00000000000E+00 -0.19783946942E+02  0.19783947113E+02  0.26000000000E-02 0.  1.
        -13    1    1    2    0    0  0.16737460971E+02  0.35204024429E-01  0.56278475327E+01  0.17658643193E+02  0.10570000000E+00 0. -1.
         13    1    1    2    0    0 -0.16737460971E+02 -0.35204024429E-01 -0.86816841991E+01  0.18855414398E+02  0.10570000000E+00 0.  1.
<mgrwt>
<rscale>  0 0.36386130E+02</rscale>
<asrwt>0</asrwt>
<pdfrwt beam="1">  1        2 0.25738631E-02 0.36386130E+02</pdfrwt>
<pdfrwt beam="2">  1       -2 0.30436842E-02 0.36386130E+02</pdfrwt>
<totfact> 0.98069317E+05</totfact>
</mgrwt>
</event>
<event>
 4    1  0.3704929E-001  0.1106645E+03  0.7818608E-02  0.1259344E+00
          2   -1    0    0  501    0  0.00000000000E+00  0.00000000000E+00  0.42554815767E+03  0.42554815768E+03  0.26000000000E-02 0. -1.
         -2   -1    0    0    0  501 -0.00000000000E+00 -0.00000000000E+00 -0.71946245184E+01  0.71946249882E+01  0.26000000000E-02 0.  1.
        -13    1    1    2    0    0 -0.12853569210E+02  0.50430543858E+02  0.13568678240E+03  0.14532504287E+03  0.10570000000E+00 0.  1.
         13    1    1    2    0    0  0.12853569210E+02 -0.50430543858E+02  0.28266675076E+03  0.28741773980E+03  0.10570000000E+00 0. -1.
<mgrwt>
<rscale>  0 0.11066453E+03</rscale>
<asrwt>0</asrwt>
<pdfrwt beam="1">  1        2 0.65468950E-01 0.11066453E+03</pdfrwt>
<pdfrwt beam="2">  1       -2 0.11068653E-02 0.11066453E+03</pdfrwt>
<totfact> 0.12141348E+05</totfact>
</mgrwt>
</event>
<event>
 4    1  0.3704929E-001  0.5234367E+02  0.7818608E-02  0.1433095E+00
         -2   -1    0    0    0  501 -0.00000000000E+00  0.00000000000E+00  0.68216912562E+01  0.68216917517E+01  0.26000000000E-02 0.  1.
          2   -1    0    0  501    0  0.00000000000E+00 -0.00000000000E+00 -0.10040984241E+03  0.10040984245E+03  0.26000000000E-02 0. -1.
        -13    1    1    2    0    0  0.16272215723E+02 -0.12994209784E+02 -0.79270728910E+02  0.81960320442E+02  0.10570000000E+00 0. -1.
         13    1    1    2    0    0 -0.16272215723E+02  0.12994209784E+02 -0.14317422247E+02  0.25271213757E+02  0.10570000000E+00 0.  1.
<mgrwt>
<rscale>  0 0.52343671E+02</rscale>
<asrwt>0</asrwt>
<pdfrwt beam="2">  1        2 0.15447667E-01 0.52343671E+02</pdfrwt>
<pdfrwt beam="1">  1       -2 0.10494911E-02 0.52343671E+02</pdfrwt>
<totfact> 0.53356368E+05</totfact>
</mgrwt>
</event>
<event>
 4    1  0.3704929E-001  0.3441860E+02  0.7818608E-02  0.1553825E+00
          2   -1    0    0  501    0  0.00000000000E+00  0.00000000000E+00  0.73994254729E+01  0.73994259297E+01  0.26000000000E-02 0. -1.
         -2   -1    0    0    0  501 -0.00000000000E+00 -0.00000000000E+00 -0.40024724250E+02  0.40024724334E+02  0.26000000000E-02 0.  1.
        -13    1    1    2    0    0  0.12818791854E+02  0.19218042770E+01 -0.71573629733E+00  0.12982226589E+02  0.10570000000E+00 0. -1.
         13    1    1    2    0    0 -0.12818791854E+02 -0.19218042770E+01 -0.31909562480E+02  0.34441923675E+02  0.10570000000E+00 0.  1.
<mgrwt>
<rscale>  0 0.34418598E+02</rscale>
<asrwt>0</asrwt>
<pdfrwt beam="1">  1        2 0.11383732E-02 0.34418598E+02</pdfrwt>
<pdfrwt beam="2">  1       -2 0.61576498E-02 0.34418598E+02</pdfrwt>
<totfact> 0.10215723E+06</totfact>
</mgrwt>
</event>
<event>
 4    1  0.3704929E-001  0.3354016E+02  0.7818608E-02  0.1561960E+00
         -2   -1    0    0    0  501 -0.00000000000E+00  0.00000000000E+00  0.93152183554E+01  0.93152187182E+01  0.26000000000E-02 0. -1.
          2   -1    0    0  501    0  0.00000000000E+00 -0.00000000000E+00 -0.30190984540E+02  0.30190984652E+02  0.26000000000E-02 0.  1.
        -13    1    1    2    0    0  0.76986929879E+01  0.13484711585E+02 -0.17898333750E+02  0.23695333797E+02  0.10570000000E+00 0.  1.
         13    1    1    2    0    0 -0.76986929879E+01 -0.13484711585E+02 -0.29774324344E+01  0.15810869573E+02  0.10570000000E+00 0. -1.
<mgrwt>
<rscale>  0 0.33540162E+02</rscale>
<asrwt>0</asrwt>
<pdfrwt beam="2">  1        2 0.46447669E-02 0.33540162E+02</pdfrwt>
<pdfrwt beam="1">  1       -2 0.14331106E-02 0.33540162E+02</pdfrwt>
<totfact> 0.12906731E+06</totfact>
</mgrwt>
</event>
<event>
 4    1  0.3704929E-001  0.3280147E+02  0.7818608E-02  0.1569038E+00
          2   -1    0    0  501    0  0.00000000000E+00  0.00000000000E+00  0.50306130901E+02  0.50306130968E+02  0.26000000000E-02 0. -1.
         -2   -1    0    0    0  501 -0.00000000000E+00 -0.00000000000E+00 -0.53469444094E+01  0.53469450416E+01  0.26000000000E-02 0.  1.
        -13    1    1    2    0    0  0.62708553742E+01  0.85388057995E+01  0.12381921750E+01  0.10666729769E+02  0.10570000000E+00 0.  1.
         13    1    1    2    0    0 -0.62708553742E+01 -0.85388057995E+01  0.43720994316E+02  0.44986346241E+02  0.10570000000E+00 0. -1.
<mgrwt>
<rscale>  0 0.32801470E+02</rscale>
<asrwt>0</asrwt>
<pdfrwt beam="1">  1        2 0.77394049E-02 0.32801470E+02</pdfrwt>
<pdfrwt beam="2">  1       -2 0.82260688E-03 0.32801470E+02</pdfrwt>
<totfact> 0.14690910E+06</totfact>
</mgrwt>
</event>
<event>
 4    1  0.3704929E-001  0.2562864E+02  0.7818608E-02  0.1652133E+00
          2   -1    0    0  501    0  0.00000000000E+00  0.00000000000E+00  0.10820903039E+03  0.10820903042E+03  0.26000000000E-02 0.  1.
         -2   -1    0    0    0  501 -0.00000000000E+00 -0.00000000000E+00 -0.15174946513E+01  0.15174968786E+01  0.26000000000E-02 0. -1.
        -13    1    1    2    0    0 -0.97878703831E+01  0.71876671913E+01  0.35833514775E+02  0.37835392424E+02  0.10570000000E+00 0.  1.
         13    1    1    2    0    0  0.97878703831E+01 -0.71876671913E+01  0.70858020961E+02  0.71891134873E+02  0.10570000000E+00 0. -1.
<mgrwt>
<rscale>  0 0.25628636E+02</rscale>
<asrwt>0</asrwt>
<pdfrwt beam="1">  1        2 0.16647553E-01 0.25628636E+02</pdfrwt>
<pdfrwt beam="2">  1       -2 0.23346075E-03 0.25628636E+02</pdfrwt>
<totfact> 0.30737139E+06</totfact>
</mgrwt>
</event>
<event>
 4    1  0.3704929E-001  0.4437334E+02  0.7818608E-02  0.1478292E+00
         -2   -1    0    0    0  501 -0.00000000000E+00  0.00000000000E+00  0.25570965378E+02  0.25570965510E+02  0.26000000000E-02 0.  1.
          2   -1    0    0  501    0  0.00000000000E+00 -0.00000000000E+00 -0.19250285840E+02  0.19250286015E+02  0.26000000000E-02 0. -1.
        -13    1    1    2    0    0 -0.78984784968E+00  0.22102501087E+02  0.13839483319E+01  0.22160119571E+02  0.10570000000E+00 0. -1.
         13    1    1    2    0    0  0.78984784968E+00 -0.22102501087E+02  0.49367312062E+01  0.22661131954E+02  0.10570000000E+00 0.  1.
<mgrwt>
<rscale>  0 0.44373343E+02</rscale>
<asrwt>0</asrwt>
<pdfrwt beam="2">  1        2 0.29615825E-02 0.44373343E+02</pdfrwt>
<pdfrwt beam="1">  1       -2 0.39339947E-02 0.44373343E+02</pdfrwt>
<totfact> 0.59994964E+05</totfact>
</mgrwt>
</event>
<event>
 4    1  0.3704929E-001  0.4631473E+02  0.7818608E-02  0.1466297E+00
         -2   -1    0    0    0  501 -0.00000000000E+00  0.00000000000E+00  0.20568810107E+01  0.20568826539E+01  0.26000000000E-02 0.  1.
          2   -1    0    0  501    0  0.00000000000E+00 -0.00000000000E+00 -0.26071678047E+03  0.26071678048E+03  0.26000000000E-02 0. -1.
        -13    1    1    2    0    0 -0.47648323225E+01  0.22636239682E+02 -0.13541285061E+03  0.13737450366E+03  0.10570000000E+00 0. -1.
         13    1    1    2    0    0  0.47648323225E+01 -0.22636239682E+02 -0.12324704884E+03  0.12539915947E+03  0.10570000000E+00 0.  1.
<mgrwt>
<rscale>  0 0.46314733E+02</rscale>
<asrwt>0</asrwt>
<pdfrwt beam="2">  1        2 0.40110248E-01 0.46314733E+02</pdfrwt>
<pdfrwt beam="1">  1       -2 0.31644357E-03 0.46314733E+02</pdfrwt>
<totfact> 0.97416273E+05</totfact>
</mgrwt>
</event>
<event>
 4    1  0.3704929E-001  0.6396329E+02  0.7818608E-02  0.1381914E+00
          2   -1    0    0  501    0  0.00000000000E+00  0.00000000000E+00  0.15007452758E+03  0.15007452760E+03  0.26000000000E-02 0.  1.
         -2   -1    0    0    0  501 -0.00000000000E+00 -0.00000000000E+00 -0.68154512026E+01  0.68154516985E+01  0.26000000000E-02 0. -1.
        -13    1    1    2    0    0 -0.23124877428E+00  0.27855302469E+02  0.11016627440E+03  0.11363358015E+03  0.10570000000E+00 0.  1.
         13    1    1    2    0    0  0.23124877428E+00 -0.27855302469E+02  0.33092801975E+02  0.43256399142E+02  0.10570000000E+00 0. -1.
<mgrwt>
<rscale>  0 0.63963291E+02</rscale>
<asrwt>0</asrwt>
<pdfrwt beam="1">  1        2 0.23088391E-01 0.63963291E+02</pdfrwt>
<pdfrwt beam="2">  1       -2 0.10485309E-02 0.63963291E+02</pdfrwt>
<totfact> 0.35808128E+05</totfact>
</mgrwt>
</event>
<event>
 4    1  0.3704929E-001  0.3067958E+02  0.7818608E-02  0.1590696E+00
         -2   -1    0    0    0  501 -0.00000000000E+00  0.00000000000E+00  0.91709973100E+01  0.91709976785E+01  0.26000000000E-02 0.  1.
          2   -1    0    0  501    0  0.00000000000E+00 -0.00000000000E+00 -0.25657972720E+02  0.25657972852E+02  0.26000000000E-02 0. -1.
        -13    1    1    2    0    0 -0.97047479860E+01  0.10400797653E+02 -0.17279775113E+01  0.14330240893E+02  0.10570000000E+00 0. -1.
         13    1    1    2    0    0  0.97047479860E+01 -0.10400797653E+02 -0.14758997899E+02  0.20498729637E+02  0.10570000000E+00 0.  1.
<mgrwt>
<rscale>  0 0.30679583E+02</rscale>
<asrwt>0</asrwt>
<pdfrwt beam="2">  1        2 0.39473804E-02 0.30679583E+02</pdfrwt>
<pdfrwt beam="1">  1       -2 0.14109227E-02 0.30679583E+02</pdfrwt>
<totfact> 0.15714450E+06</totfact>
</mgrwt>
</event>
<event>
 4    1  0.3704929E-001  0.3944636E+02  0.7818608E-02  0.1512326E+00
         -2   -1    0    0    0  501 -0.00000000000E+00  0.00000000000E+00  0.51756254528E+01  0.51756261059E+01  0.26000000000E-02 0. -1.
          2   -1    0    0  501    0  0.00000000000E+00 -0.00000000000E+00 -0.75160726737E+02  0.75160726782E+02  0.26000000000E-02 0.  1.
        -13    1    1    2    0    0  0.11546100909E+01  0.14286708404E+02 -0.74006412058E+01  0.16131454498E+02  0.10570000000E+00 0. -1.
         13    1    1    2    0    0 -0.11546100909E+01 -0.14286708404E+02 -0.62584460078E+02  0.64204898390E+02  0.10570000000E+00 0.  1.
<mgrwt>
<rscale>  0 0.39446358E+02</rscale>
<asrwt>0</asrwt>
<pdfrwt beam="2">  1        2 0.11563188E-01 0.39446358E+02</pdfrwt>
<pdfrwt beam="1">  1       -2 0.79625018E-03 0.39446358E+02</pdfrwt>
<totfact> 0.10115093E+06</totfact>
</mgrwt>
</event>
<event>
 4    1  0.3704929E-001  0.5423853E+02  0.7818608E-02  0.1423735E+00
          2   -1    0    0  501    0  0.00000000000E+00  0.00000000000E+00  0.44171828892E+02  0.44171828968E+02  0.26000000000E-02 0. -1.
         -2   -1    0    0    0  501 -0.00000000000E+00 -0.00000000000E+00 -0.16649857342E+02  0.16649857545E+02  0.26000000000E-02 0.  1.
        -13    1    1    2    0    0 -0.93028172757E+01 -0.24285084863E+02  0.51376461519E+01  0.26508759619E+02  0.10570000000E+00 0.  1.
         13    1    1    2    0    0  0.93028172757E+01  0.24285084863E+02  0.22384325397E+02  0.34312926894E+02  0.10570000000E+00 0. -1.
<mgrwt>
<rscale>  0 0.54238535E+02</rscale>
<asrwt>0</asrwt>
<pdfrwt beam="1">  1        2 0.67956659E-02 0.54238535E+02</pdfrwt>
<pdfrwt beam="2">  1       -2 0.25615166E-02 0.54238535E+02</pdfrwt>
<totfact> 0.40575005E+05</totfact>
</mgrwt>
</event>
<event>
 4    1  0.3704929E-001  0.4421265E+02  0.7818608E-02  0.1479318E+00
         -2   -1    0    0    0  501 -0.00000000000E+00  0.00000000000E+00  0.18023083952E+02  0.18023084139E+02  0.26000000000E-02 0.  1.
          2   -1    0    0  501    0  0.00000000000E+00 -0.00000000000E+00 -0.27114648618E+02  0.27114648742E+02  0.26000000000E-02 0. -1.
        -13    1    1    2    0    0 -0.11979845376E+02  0.13208355478E+01  0.14373478806E+02  0.18758181342E+02  0.10570000000E+00 0.  1.
         13    1    1    2    0    0  0.11979845376E+02 -0.13208355478E+01 -0.23465043472E+02  0.26379551539E+02  0.10570000000E+00 0. -1.
<mgrwt>
<rscale>  0 0.44212650E+02</rscale>
<asrwt>0</asrwt>
<pdfrwt beam="2">  1        2 0.41714844E-02 0.44212650E+02</pdfrwt>
<pdfrwt beam="1">  1       -2 0.27727822E-02 0.44212650E+02</pdfrwt>
<totfact> 0.63601678E+05</totfact>
</mgrwt>
</event>
<event>
 4    1  0.3704929E-001  0.3512340E+02  0.7818608E-02  0.1547507E+00
         -2   -1    0    0    0  501 -0.00000000000E+00  0.00000000000E+00  0.10426099858E+03  0.10426099861E+03  0.26000000000E-02 0.  1.
          2   -1    0    0  501    0  0.00000000000E+00 -0.00000000000E+00 -0.29580888414E+01  0.29580899841E+01  0.26000000000E-02 0. -1.
        -13    1    1    2    0    0 -0.11009621791E+02 -0.13434568526E+02  0.58554657581E+02  0.61076660848E+02  0.10570000000E+00 0. -1.
         13    1    1    2    0    0  0.11009621791E+02  0.13434568526E+02  0.42748252154E+02  0.46142427745E+02  0.10570000000E+00 0.  1.
<mgrwt>
<rscale>  0 0.35123403E+02</rscale>
<asrwt>0</asrwt>
<pdfrwt beam="2">  1        2 0.45509066E-03 0.35123403E+02</pdfrwt>
<pdfrwt beam="1">  1       -2 0.16040154E-01 0.35123403E+02</pdfrwt>
<totfact> 0.81631881E+05</totfact>
</mgrwt>
</event>
<event>
 4    1  0.3704929E-001  0.9325654E+02  0.7818608E-02  0.1295152E+00
          2   -1    0    0  501    0  0.00000000000E+00  0.00000000000E+00  0.54607700609E+02  0.54607700671E+02  0.26000000000E-02 0. -1.
         -2   -1    0    0    0  501 -0.00000000000E+00 -0.00000000000E+00 -0.39814813992E+02  0.39814814077E+02  0.26000000000E-02 0.  1.
        -13    1    1    2    0    0  0.48046648831E+00  0.32423153731E+02 -0.26529090711E+02  0.41896247712E+02  0.10570000000E+00 0.  1.
         13    1    1    2    0    0 -0.48046648831E+00 -0.32423153731E+02  0.41321977328E+02  0.52526267035E+02  0.10570000000E+00 0. -1.
<mgrwt>
<rscale>  0 0.93256538E+02</rscale>
<asrwt>0</asrwt>
<pdfrwt beam="1">  1        2 0.84011848E-02 0.93256538E+02</pdfrwt>
<pdfrwt beam="2">  1       -2 0.61253560E-02 0.93256538E+02</pdfrwt>
<totfact> 0.97016355E+04</totfact>
</mgrwt>
</event>
<event>
 4    1  0.3704929E-001  0.5229649E+02  0.7818608E-02  0.1433334E+00
         -2   -1    0    0    0  501 -0.00000000000E+00  0.00000000000E+00  0.30190353531E+02  0.30190353643E+02  0.26000000000E-02 0. -1.
          2   -1    0    0  501    0  0.00000000000E+00 -0.00000000000E+00 -0.22647325921E+02  0.22647326070E+02  0.26000000000E-02 0.  1.
        -13    1    1    2    0    0  0.11000728315E+02 -0.23089547173E+02  0.92662116990E+01  0.27203254656E+02  0.10570000000E+00 0.  1.
         13    1    1    2    0    0 -0.11000728315E+02  0.23089547173E+02 -0.17231840887E+01  0.25634425057E+02  0.10570000000E+00 0. -1.
<mgrwt>
<rscale>  0 0.52296493E+02</rscale>
<asrwt>0</asrwt>
<pdfrwt beam="2">  1        2 0.34842040E-02 0.52296493E+02</pdfrwt>
<pdfrwt beam="1">  1       -2 0.46446698E-02 0.52296493E+02</pdfrwt>
<totfact> 0.39843542E+05</totfact>
</mgrwt>
</event>
<event>
 4    1  0.3704929E-001  0.2489757E+02  0.7818608E-02  0.1662478E+00
          2   -1    0    0  501    0  0.00000000000E+00  0.00000000000E+00  0.65270677954E+01  0.65270683133E+01  0.26000000000E-02 0. -1.
         -2   -1    0    0    0  501 -0.00000000000E+00 -0.00000000000E+00 -0.23743011249E+02  0.23743011392E+02  0.26000000000E-02 0.  1.
        -13    1    1    2    0    0  0.55059261415E+01 -0.11127323789E+02 -0.97146189373E+01  0.15764439444E+02  0.10570000000E+00 0. -1.
         13    1    1    2    0    0 -0.55059261415E+01  0.11127323789E+02 -0.75013245164E+01  0.14505640261E+02  0.10570000000E+00 0.  1.
<mgrwt>
<rscale>  0 0.24897570E+02</rscale>
<asrwt>0</asrwt>
<pdfrwt beam="1">  1        2 0.10041643E-02 0.24897570E+02</pdfrwt>
<pdfrwt beam="2">  1       -2 0.36527710E-02 0.24897570E+02</pdfrwt>
<totfact> 0.22740630E+06</totfact>
</mgrwt>
</event>
<event>
 4    1  0.3704929E-001  0.2322402E+02  0.7818608E-02  0.1687904E+00
          2   -1    0    0  501    0  0.00000000000E+00  0.00000000000E+00  0.30382078085E+01  0.30382089210E+01  0.26000000000E-02 0. -1.
         -2   -1    0    0    0  501 -0.00000000000E+00 -0.00000000000E+00 -0.44381028408E+02  0.44381028484E+02  0.26000000000E-02 0.  1.
        -13    1    1    2    0    0  0.32385189549E+01 -0.10736895530E+02 -0.26816812828E+02  0.29067534353E+02  0.10570000000E+00 0.  1.
         13    1    1    2    0    0 -0.32385189549E+01  0.10736895530E+02 -0.14526007772E+02  0.18351703052E+02  0.10570000000E+00 0. -1.
<mgrwt>
<rscale>  0 0.23224023E+02</rscale>
<asrwt>0</asrwt>
<pdfrwt beam="1">  1        2 0.46741671E-03 0.23224023E+02</pdfrwt>
<pdfrwt beam="2">  1       -2 0.68278501E-02 0.23224023E+02</pdfrwt>
<totfact> 0.24764457E+06</totfact>
</mgrwt>
</event>
<event>
 4    1  0.3704929E-001  0.2385532E+02  0.7818608E-02  0.1678009E+00
          2   -1    0    0  501    0  0.00000000000E+00  0.00000000000E+00  0.17393574095E+01  0.17393593527E+01  0.26000000000E-02 0. -1.
         -2   -1    0    0    0  501 -0.00000000000E+00 -0.00000000000E+00 -0.81794002777E+02  0.81794002819E+02  0.26000000000E-02 0.  1.
        -13    1    1    2    0    0 -0.40448237466E+01 -0.94507776326E+01 -0.61205922544E+02  0.62063305777E+02  0.10570000000E+00 0.  1.
         13    1    1    2    0    0  0.40448237466E+01  0.94507776326E+01 -0.18848722824E+02  0.21470056395E+02  0.10570000000E+00 0. -1.
<mgrwt>
<rscale>  0 0.23855321E+02</rscale>
<asrwt>0</asrwt>
<pdfrwt beam="1">  1        2 0.26759366E-03 0.23855321E+02</pdfrwt>
<pdfrwt beam="2">  1       -2 0.12583690E-01 0.23855321E+02</pdfrwt>
<totfact> 0.21056236E+06</totfact>
</mgrwt>
</event>
<event>
 4    1  0.3704929E-001  0.2238521E+02  0.7818608E-02  0.1701674E+00
          2   -1    0    0  501    0  0.00000000000E+00  0.00000000000E+00  0.71238890142E+02  0.71238890190E+02  0.26000000000E-02 0.  1.
         -2   -1    0    0    0  501 -0.00000000000E+00 -0.00000000000E+00 -0.17585108782E+01  0.17585128003E+01  0.26000000000E-02 0. -1.
        -13    1    1    2    0    0 -0.53481509025E+01  0.96828397347E+01  0.29183941688E+02  0.31210154251E+02  0.10570000000E+00 0. -1.
         13    1    1    2    0    0  0.53481509025E+01 -0.96828397347E+01  0.40296437576E+02  0.41787248739E+02  0.10570000000E+00 0.  1.
<mgrwt>
<rscale>  0 0.22385213E+02</rscale>
<asrwt>0</asrwt>
<pdfrwt beam="1">  1        2 0.10959831E-01 0.22385213E+02</pdfrwt>
<pdfrwt beam="2">  1       -2 0.27054026E-03 0.22385213E+02</pdfrwt>
<totfact> 0.38210498E+06</totfact>
</mgrwt>
</event>
<event>
 4    1  0.3704929E-001  0.2540222E+02  0.7818608E-02  0.1655291E+00
         -2   -1    0    0    0  501 -0.00000000000E+00  0.00000000000E+00  0.18230338308E+02  0.18230338493E+02  0.26000000000E-02 0. -1.
          2   -1    0    0  501    0  0.00000000000E+00 -0.00000000000E+00 -0.88488854896E+01  0.88488858716E+01  0.26000000000E-02 0.  1.
        -13    1    1    2    0    0  0.12147112551E+02  0.22205983445E+01  0.15241662781E+01  0.12442574318E+02  0.10570000000E+00 0. -1.
         13    1    1    2    0    0 -0.12147112551E+02 -0.22205983445E+01  0.78572865400E+01  0.14636650047E+02  0.10570000000E+00 0.  1.
<mgrwt>
<rscale>  0 0.25402219E+02</rscale>
<asrwt>0</asrwt>
<pdfrwt beam="2">  1        2 0.13613671E-02 0.25402219E+02</pdfrwt>
<pdfrwt beam="1">  1       -2 0.28046674E-02 0.25402219E+02</pdfrwt>
<totfact> 0.22289552E+06</totfact>
</mgrwt>
</event>
<event>
 4    1  0.3704929E-001  0.2258073E+02  0.7818608E-02  0.1698398E+00
          2   -1    0    0  501    0  0.00000000000E+00  0.00000000000E+00  0.10772522678E+02  0.10772522991E+02  0.26000000000E-02 0. -1.
         -2   -1    0    0    0  501 -0.00000000000E+00 -0.00000000000E+00 -0.11833097913E+02  0.11833098199E+02  0.26000000000E-02 0.  1.
        -13    1    1    2    0    0  0.99220322102E+00 -0.10352390806E+02 -0.49288411945E+01  0.11509175063E+02  0.10570000000E+00 0.  1.
         13    1    1    2    0    0 -0.99220322102E+00  0.10352390806E+02  0.38682659589E+01  0.11096446127E+02  0.10570000000E+00 0. -1.
<mgrwt>
<rscale>  0 0.22580728E+02</rscale>
<asrwt>0</asrwt>
<pdfrwt beam="1">  1        2 0.16573112E-02 0.22580728E+02</pdfrwt>
<pdfrwt beam="2">  1       -2 0.18204767E-02 0.22580728E+02</pdfrwt>
<totfact> 0.29974396E+06</totfact>
</mgrwt>
</event>
<event>
 4    1  0.3704929E-001  0.3171118E+02  0.7818608E-02  0.1579909E+00
          2   -1    0    0  501    0  0.00000000000E+00  0.00000000000E+00  0.41184392215E+01  0.41184400422E+01  0.26000000000E-02 0. -1.
         -2   -1    0    0    0  501 -0.00000000000E+00 -0.00000000000E+00 -0.61042454242E+02  0.61042454298E+02  0.26000000000E-02 0.  1.
        -13    1    1    2    0    0  0.10894118465E+02  0.58617780762E+01 -0.80843827702E+01  0.14778723781E+02  0.10570000000E+00 0. -1.
         13    1    1    2    0    0 -0.10894118465E+02 -0.58617780762E+01 -0.48839632251E+02  0.50382170559E+02  0.10570000000E+00 0.  1.
<mgrwt>
<rscale>  0 0.31711176E+02</rscale>
<asrwt>0</asrwt>
<pdfrwt beam="1">  1        2 0.63360615E-03 0.31711176E+02</pdfrwt>
<pdfrwt beam="2">  1       -2 0.93911462E-02 0.31711176E+02</pdfrwt>
<totfact> 0.11594328E+06</totfact>
</mgrwt>
</event>
<event>
 4    1  0.3704929E-001  0.2171950E+02  0.7818608E-02  0.1713149E+00
          2   -1    0    0  501    0  0.00000000000E+00  0.00000000000E+00  0.49067037366E+01  0.49067044254E+01  0.26000000000E-02 0. -1.
         -2   -1    0    0    0  501 -0.00000000000E+00 -0.00000000000E+00 -0.24035322420E+02  0.24035322561E+02  0.26000000000E-02 0.  1.
        -13    1    1    2    0    0 -0.22599916486E+01 -0.10582348001E+02 -0.83507540267E+01  0.13668939855E+02  0.10570000000E+00 0.  1.
         13    1    1    2    0    0  0.22599916486E+01  0.10582348001E+02 -0.10777864657E+02  0.15273087131E+02  0.10570000000E+00 0. -1.
<mgrwt>
<rscale>  0 0.21719504E+02</rscale>
<asrwt>0</asrwt>
<pdfrwt beam="1">  1        2 0.75487757E-03 0.21719504E+02</pdfrwt>
<pdfrwt beam="2">  1       -2 0.36977419E-02 0.21719504E+02</pdfrwt>
<totfact> 0.30752209E+06</totfact>
</mgrwt>
</event>
<event>
 4    1  0.3704929E-001  0.3006694E+02  0.7818608E-02  0.1597350E+00
          2   -1    0    0  501    0  0.00000000000E+00  0.00000000000E+00  0.31305677850E+02  0.31305677958E+02  0.26000000000E-02 0. -1.
         -2   -1    0    0    0  501 -0.00000000000E+00 -0.00000000000E+00 -0.72193027868E+01  0.72193032550E+01  0.26000000000E-02 0.  1.
        -13    1    1    2    0    0 -0.43210192491E+01  0.97225630224E+01 -0.15649075564E+01  0.10754512877E+02  0.10570000000E+00 0. -1.
         13    1    1    2    0    0  0.43210192491E+01 -0.97225630224E+01  0.25651282620E+02  0.27770468336E+02  0.10570000000E+00 0.  1.
<mgrwt>
<rscale>  0 0.30066937E+02</rscale>
<asrwt>0</asrwt>
<pdfrwt beam="1">  1        2 0.48162581E-02 0.30066937E+02</pdfrwt>
<pdfrwt beam="2">  1       -2 0.11106620E-02 0.30066937E+02</pdfrwt>
<totfact> 0.16904850E+06</totfact>
</mgrwt>
</event>
<event>
 4    1  0.3704929E-001  0.2908513E+02  0.7818608E-02  0.1608427E+00
         -2   -1    0    0    0  501 -0.00000000000E+00  0.00000000000E+00  0.89375600068E+01  0.89375603850E+01  0.26000000000E-02 0.  1.
          2   -1    0    0  501    0  0.00000000000E+00 -0.00000000000E+00 -0.23662634149E+02  0.23662634292E+02  0.26000000000E-02 0. -1.
        -13    1    1    2    0    0  0.28271069692E+01  0.12168499084E+02 -0.15705951229E+02  0.20068706492E+02  0.10570000000E+00 0. -1.
         13    1    1    2    0    0 -0.28271069692E+01 -0.12168499084E+02  0.98087708693E+00  0.12531488185E+02  0.10570000000E+00 0.  1.
<mgrwt>
<rscale>  0 0.29085132E+02</rscale>
<asrwt>0</asrwt>
<pdfrwt beam="2">  1        2 0.36404053E-02 0.29085132E+02</pdfrwt>
<pdfrwt beam="1">  1       -2 0.13750093E-02 0.29085132E+02</pdfrwt>
<totfact> 0.17709298E+06</totfact>
</mgrwt>
</event>
<event>
 4    1  0.3704929E-001  0.4210704E+02  0.7818608E-02  0.1493255E+00
         -2   -1    0    0    0  501 -0.00000000000E+00  0.00000000000E+00  0.27371003703E+02  0.27371003826E+02  0.26000000000E-02 0.  1.
          2   -1    0    0  501    0  0.00000000000E+00 -0.00000000000E+00 -0.16194168570E+02  0.16194168778E+02  0.26000000000E-02 0. -1.
        -13    1    1    2    0    0  0.13253656683E+02  0.15975503188E+02  0.19504979644E+01  0.20849262154E+02  0.10570000000E+00 0. -1.
         13    1    1    2    0    0 -0.13253656683E+02 -0.15975503188E+02  0.92263371688E+01  0.22715910451E+02  0.10570000000E+00 0.  1.
<mgrwt>
<rscale>  0 0.42107038E+02</rscale>
<asrwt>0</asrwt>
<pdfrwt beam="2">  1        2 0.24914106E-02 0.42107038E+02</pdfrwt>
<pdfrwt beam="1">  1       -2 0.42109237E-02 0.42107038E+02</pdfrwt>
<totfact> 0.67150775E+05</totfact>
</mgrwt>
</event>
<event>
 4    1  0.3704929E-001  0.3582959E+02  0.7818608E-02  0.1541355E+00
         -2   -1    0    0    0  501 -0.00000000000E+00  0.00000000000E+00  0.17102820435E+02  0.17102820632E+02  0.26000000000E-02 0. -1.
          2   -1    0    0  501    0  0.00000000000E+00 -0.00000000000E+00 -0.18765316414E+02  0.18765316594E+02  0.26000000000E-02 0.  1.
        -13    1    1    2    0    0  0.38913279863E+01  0.11672445888E+02  0.12203523184E+02  0.17329904128E+02  0.10570000000E+00 0. -1.
         13    1    1    2    0    0 -0.38913279863E+01 -0.11672445888E+02 -0.13866019163E+02  0.18538233099E+02  0.10570000000E+00 0.  1.
<mgrwt>
<rscale>  0 0.35829588E+02</rscale>
<asrwt>0</asrwt>
<pdfrwt beam="2">  1        2 0.28869718E-02 0.35829588E+02</pdfrwt>
<pdfrwt beam="1">  1       -2 0.26312031E-02 0.35829588E+02</pdfrwt>
<totfact> 0.10336512E+06</totfact>
</mgrwt>
</event>
<event>
 4    1  0.3704929E-001  0.2636719E+02  0.7818608E-02  0.1642107E+00
         -2   -1    0    0    0  501 -0.00000000000E+00  0.00000000000E+00  0.87830654732E+01  0.87830658581E+01  0.26000000000E-02 0.  1.
          2   -1    0    0  501    0  0.00000000000E+00 -0.00000000000E+00 -0.19788896333E+02  0.19788896504E+02  0.26000000000E-02 0. -1.
        -13    1    1    2    0    0 -0.87472792883E+01  0.98010333849E+01 -0.43055997887E+01  0.13824778927E+02  0.10570000000E+00 0.  1.
         13    1    1    2    0    0  0.87472792883E+01 -0.98010333849E+01 -0.67002310714E+01  0.14747183435E+02  0.10570000000E+00 0. -1.
<mgrwt>
<rscale>  0 0.26367190E+02</rscale>
<asrwt>0</asrwt>
<pdfrwt beam="2">  1        2 0.30444456E-02 0.26367190E+02</pdfrwt>
<pdfrwt beam="1">  1       -2 0.13512409E-02 0.26367190E+02</pdfrwt>
<totfact> 0.21963011E+06</totfact>
</mgrwt>
</event>
<event>
 4    1  0.3704929E-001  0.2515411E+02  0.7818608E-02  0.1658798E+00
          2   -1    0    0  501    0  0.00000000000E+00  0.00000000000E+00  0.60252614484E+01  0.60252620094E+01  0.26000000000E-02 0. -1.
         -2   -1    0    0    0  501 -0.00000000000E+00 -0.00000000000E+00 -0.26253178423E+02  0.26253178551E+02  0.26000000000E-02 0.  1.
        -13    1    1    2    0    0 -0.11533607254E+02  0.44540052986E+01 -0.71572835401E+01  0.14286362016E+02  0.10570000000E+00 0. -1.
         13    1    1    2    0    0  0.11533607254E+02 -0.44540052986E+01 -0.13070633434E+02  0.17992078545E+02  0.10570000000E+00 0.  1.
<mgrwt>
<rscale>  0 0.25154107E+02</rscale>
<asrwt>0</asrwt>
<pdfrwt beam="1">  1        2 0.92696337E-03 0.25154107E+02</pdfrwt>
<pdfrwt beam="2">  1       -2 0.40389505E-02 0.25154107E+02</pdfrwt>
<totfact> 0.22003158E+06</totfact>
</mgrwt>
</event>
<event>
 4    1  0.3704929E-001  0.2179778E+02  0.7818608E-02  0.1711773E+00
          2   -1    0    0  501    0  0.00000000000E+00  0.00000000000E+00  0.15028179203E+02  0.15028179428E+02  0.26000000000E-02 0. -1.
         -2   -1    0    0    0  501 -0.00000000000E+00 -0.00000000000E+00 -0.79042057604E+01  0.79042061880E+01  0.26000000000E-02 0.  1.
        -13    1    1    2    0    0  0.50021844995E+01  0.95169108014E+01  0.54384212348E+01  0.12049109469E+02  0.10570000000E+00 0. -1.
         13    1    1    2    0    0 -0.50021844995E+01 -0.95169108014E+01  0.16855522081E+01  0.10883276148E+02  0.10570000000E+00 0.  1.
<mgrwt>
<rscale>  0 0.21797782E+02</rscale>
<asrwt>0</asrwt>
<pdfrwt beam="1">  1        2 0.23120276E-02 0.21797782E+02</pdfrwt>
<pdfrwt beam="2">  1       -2 0.12160317E-02 0.21797782E+02</pdfrwt>
<totfact> 0.33424763E+06</totfact>
</mgrwt>
</event>
<event>
 4    1  0.3704929E-001  0.2486148E+02  0.7818608E-02  0.1663000E+00
         -2   -1    0    0    0  501 -0.00000000000E+00  0.00000000000E+00  0.44684721637E+01  0.44684729201E+01  0.26000000000E-02 0.  1.
          2   -1    0    0  501    0  0.00000000000E+00 -0.00000000000E+00 -0.34580788461E+02  0.34580788558E+02  0.26000000000E-02 0. -1.
        -13    1    1    2    0    0  0.20660119686E+01 -0.12256001938E+02 -0.14765919770E+02  0.19300817291E+02  0.10570000000E+00 0. -1.
         13    1    1    2    0    0 -0.20660119686E+01  0.12256001938E+02 -0.15346396527E+02  0.19748444187E+02  0.10570000000E+00 0.  1.
<mgrwt>
<rscale>  0 0.24861481E+02</rscale>
<asrwt>0</asrwt>
<pdfrwt beam="2">  1        2 0.53201212E-02 0.24861481E+02</pdfrwt>
<pdfrwt beam="1">  1       -2 0.68745735E-03 0.24861481E+02</pdfrwt>
<totfact> 0.26830202E+06</totfact>
</mgrwt>
</event>
<event>
 4    1  0.3704929E-001  0.2529227E+02  0.7818608E-02  0.1656839E+00
          2   -1    0    0  501    0  0.00000000000E+00  0.00000000000E+00  0.22713756040E+02  0.22713756188E+02  0.26000000000E-02 0. -1.
         -2   -1    0    0    0  501 -0.00000000000E+00 -0.00000000000E+00 -0.70408733707E+01  0.70408738508E+01  0.26000000000E-02 0.  1.
        -13    1    1    2    0    0 -0.52667458177E+01 -0.94086892185E+01  0.15609040127E+02  0.18971435119E+02  0.10570000000E+00 0. -1.
         13    1    1    2    0    0  0.52667458177E+01  0.94086892185E+01  0.63842542130E-01  0.10783194920E+02  0.10570000000E+00 0.  1.
<mgrwt>
<rscale>  0 0.25292267E+02</rscale>
<asrwt>0</asrwt>
<pdfrwt beam="1">  1        2 0.34944240E-02 0.25292267E+02</pdfrwt>
<pdfrwt beam="2">  1       -2 0.10832113E-02 0.25292267E+02</pdfrwt>
<totfact> 0.24571299E+06</totfact>
</mgrwt>
</event>
<event>
 4    1  0.3704929E-001  0.2124942E+02  0.7818608E-02  0.1721566E+00
         -2   -1    0    0    0  501 -0.00000000000E+00  0.00000000000E+00  0.16013507579E+01  0.16013528686E+01  0.26000000000E-02 0. -1.
          2   -1    0    0  501    0  0.00000000000E+00 -0.00000000000E+00 -0.70493250761E+02  0.70493250809E+02  0.26000000000E-02 0.  1.
        -13    1    1    2    0    0  0.62848409355E+01  0.84085172089E+01 -0.28901128584E+02  0.30748801491E+02  0.10570000000E+00 0.  1.
         13    1    1    2    0    0 -0.62848409355E+01 -0.84085172089E+01 -0.39990771420E+02  0.41345802187E+02  0.10570000000E+00 0. -1.
<mgrwt>
<rscale>  0 0.21249423E+02</rscale>
<asrwt>0</asrwt>
<pdfrwt beam="2">  1        2 0.10845113E-01 0.21249423E+02</pdfrwt>
<pdfrwt beam="1">  1       -2 0.24636188E-03 0.21249423E+02</pdfrwt>
<totfact> 0.42879092E+06</totfact>
</mgrwt>
</event>
<event>
 4    1  0.3704929E-001  0.2211479E+02  0.7818608E-02  0.1706274E+00
         -2   -1    0    0    0  501 -0.00000000000E+00  0.00000000000E+00  0.30028949172E+01  0.30028960428E+01  0.26000000000E-02 0. -1.
          2   -1    0    0  501    0  0.00000000000E+00 -0.00000000000E+00 -0.40716040463E+02  0.40716040546E+02  0.26000000000E-02 0.  1.
        -13    1    1    2    0    0  0.76362549311E+01 -0.76146179948E+01 -0.23682842623E+02  0.26022740128E+02  0.10570000000E+00 0.  1.
         13    1    1    2    0    0 -0.76362549311E+01  0.76146179948E+01 -0.14030302923E+02  0.17696196460E+02  0.10570000000E+00 0. -1.
<mgrwt>
<rscale>  0 0.22114793E+02</rscale>
<asrwt>0</asrwt>
<pdfrwt beam="2">  1        2 0.62640059E-02 0.22114793E+02</pdfrwt>
<pdfrwt beam="1">  1       -2 0.46198396E-03 0.22114793E+02</pdfrwt>
<totfact> 0.35874265E+06</totfact>
</mgrwt>
</event>
<event>
 4    1  0.3704929E-001  0.2426179E+02  0.7818608E-02  0.1671837E+00
         -2   -1    0    0    0  501 -0.00000000000E+00  0.00000000000E+00  0.21341144842E+02  0.21341145001E+02  0.26000000000E-02 0.  1.
          2   -1    0    0  501    0  0.00000000000E+00 -0.00000000000E+00 -0.68955369106E+01  0.68955374008E+01  0.26000000000E-02 0. -1.
        -13    1    1    2    0    0 -0.54712289766E+01  0.89589188244E+01  0.14297427943E+02  0.17737648979E+02  0.10570000000E+00 0.  1.
         13    1    1    2    0    0  0.54712289766E+01 -0.89589188244E+01  0.14817998887E+00  0.10499033423E+02  0.10570000000E+00 0. -1.
<mgrwt>
<rscale>  0 0.24261794E+02</rscale>
<asrwt>0</asrwt>
<pdfrwt beam="2">  1        2 0.10608519E-02 0.24261794E+02</pdfrwt>
<pdfrwt beam="1">  1       -2 0.32832531E-02 0.24261794E+02</pdfrwt>
<totfact> 0.24337563E+06</totfact>
</mgrwt>
</event>
<event>
 4    1  0.3704929E-001  0.4540030E+02  0.7818608E-02  0.1471858E+00
         -2   -1    0    0    0  501 -0.00000000000E+00  0.00000000000E+00  0.44824208679E+01  0.44824216219E+01  0.26000000000E-02 0. -1.
          2   -1    0    0  501    0  0.00000000000E+00 -0.00000000000E+00 -0.11495948209E+03  0.11495948212E+03  0.26000000000E-02 0.  1.
        -13    1    1    2    0    0 -0.65476367645E+00 -0.20284028110E+02 -0.28484448422E+02  0.34974926536E+02  0.10570000000E+00 0. -1.
         13    1    1    2    0    0  0.65476367645E+00  0.20284028110E+02 -0.81992612800E+02  0.84466977205E+02  0.10570000000E+00 0.  1.
<mgrwt>
<rscale>  0 0.45400301E+02</rscale>
<asrwt>0</asrwt>
<pdfrwt beam="2">  1        2 0.17686072E-01 0.45400301E+02</pdfrwt>
<pdfrwt beam="1">  1       -2 0.68960336E-03 0.45400301E+02</pdfrwt>
<totfact> 0.79188756E+05</totfact>
</mgrwt>
</event>
<event>
 4    1  0.3704929E-001  0.1382024E+03  0.7818608E-02  0.1215768E+00
         -2   -1    0    0    0  501 -0.00000000000E+00  0.00000000000E+00  0.33798498489E+03  0.33798498490E+03  0.26000000000E-02 0.  1.
          2   -1    0    0  501    0  0.00000000000E+00 -0.00000000000E+00 -0.14127772324E+02  0.14127772564E+02  0.26000000000E-02 0. -1.
        -13    1    1    2    0    0 -0.29053831759E+02 -0.48352504141E+02  0.26361361400E+03  0.26958159888E+03  0.10570000000E+00 0.  1.
         13    1    1    2    0    0  0.29053831759E+02  0.48352504141E+02  0.60243598570E+02  0.82531158587E+02  0.10570000000E+00 0. -1.
<mgrwt>
<rscale>  0 0.13820239E+03</rscale>
<asrwt>0</asrwt>
<pdfrwt beam="2">  1        2 0.21735036E-02 0.13820239E+03</pdfrwt>
<pdfrwt beam="1">  1       -2 0.51997687E-01 0.13820239E+03</pdfrwt>
<totfact> 0.16126197E+04</totfact>
</mgrwt>
</event>
<event>
 4    1  0.3704929E-001  0.2841561E+02  0.7818608E-02  0.1616293E+00
         -2   -1    0    0    0  501 -0.00000000000E+00  0.00000000000E+00  0.22215726753E+01  0.22215741967E+01  0.26000000000E-02 0. -1.
          2   -1    0    0  501    0  0.00000000000E+00 -0.00000000000E+00 -0.90864275959E+02  0.90864275996E+02  0.26000000000E-02 0.  1.
        -13    1    1    2    0    0  0.11601792977E+02 -0.81596295678E+01 -0.47001441773E+02  0.49095089940E+02  0.10570000000E+00 0.  1.
         13    1    1    2    0    0 -0.11601792977E+02  0.81596295678E+01 -0.41641261511E+02  0.43990760253E+02  0.10570000000E+00 0. -1.
<mgrwt>
<rscale>  0 0.28415606E+02</rscale>
<asrwt>0</asrwt>
<pdfrwt beam="2">  1        2 0.13979117E-01 0.28415606E+02</pdfrwt>
<pdfrwt beam="1">  1       -2 0.34178060E-03 0.28415606E+02</pdfrwt>
<totfact> 0.23211518E+06</totfact>
</mgrwt>
</event>
<event>
 4    1  0.3704929E-001  0.3586123E+02  0.7818608E-02  0.1541083E+00
          2   -1    0    0  501    0  0.00000000000E+00  0.00000000000E+00  0.11149987844E+02  0.11149988147E+02  0.26000000000E-02 0. -1.
         -2   -1    0    0    0  501 -0.00000000000E+00 -0.00000000000E+00 -0.28834742931E+02  0.28834743048E+02  0.26000000000E-02 0.  1.
        -13    1    1    2    0    0  0.16950745308E+02  0.42327409119E+01 -0.43474526424E+01  0.18004315569E+02  0.10570000000E+00 0. -1.
         13    1    1    2    0    0 -0.16950745308E+02 -0.42327409119E+01 -0.13337302444E+02  0.21980415626E+02  0.10570000000E+00 0.  1.
<mgrwt>
<rscale>  0 0.35861235E+02</rscale>
<asrwt>0</asrwt>
<pdfrwt beam="1">  1        2 0.17153828E-02 0.35861235E+02</pdfrwt>
<pdfrwt beam="2">  1       -2 0.44361143E-02 0.35861235E+02</pdfrwt>
<totfact> 0.96893871E+05</totfact>
</mgrwt>
</event>
<event>
 4    1  0.3704929E-001  0.2031236E+02  0.7818608E-02  0.1739187E+00
         -2   -1    0    0    0  501 -0.00000000000E+00  0.00000000000E+00  0.19911768304E+02  0.19911768474E+02  0.26000000000E-02 0.  1.
          2   -1    0    0  501    0  0.00000000000E+00 -0.00000000000E+00 -0.51802503467E+01  0.51802509992E+01  0.26000000000E-02 0. -1.
        -13    1    1    2    0    0 -0.10272859620E+01 -0.10080138657E+02  0.65168310745E+01  0.12047604390E+02  0.10570000000E+00 0. -1.
         13    1    1    2    0    0  0.10272859620E+01  0.10080138657E+02  0.82146868831E+01  0.13044415083E+02  0.10570000000E+00 0.  1.
<mgrwt>
<rscale>  0 0.20312356E+02</rscale>
<asrwt>0</asrwt>
<pdfrwt beam="2">  1        2 0.79696168E-03 0.20312356E+02</pdfrwt>
<pdfrwt beam="1">  1       -2 0.30633489E-02 0.20312356E+02</pdfrwt>
<totfact> 0.36207686E+06</totfact>
</mgrwt>
</event>
<event>
 4    1  0.3704929E-001  0.2819635E+02  0.7818608E-02  0.1618926E+00
         -2   -1    0    0    0  501 -0.00000000000E+00  0.00000000000E+00  0.27306293119E+02  0.27306293243E+02  0.26000000000E-02 0. -1.
          2   -1    0    0  501    0  0.00000000000E+00 -0.00000000000E+00 -0.72788524251E+01  0.72788528894E+01  0.26000000000E-02 0.  1.
        -13    1    1    2    0    0 -0.41622920795E+01 -0.13427479279E+02  0.87124784674E+01  0.16539054649E+02  0.10570000000E+00 0.  1.
         13    1    1    2    0    0  0.41622920795E+01  0.13427479279E+02  0.11314962226E+02  0.18046091483E+02  0.10570000000E+00 0. -1.
<mgrwt>
<rscale>  0 0.28196346E+02</rscale>
<asrwt>0</asrwt>
<pdfrwt beam="2">  1        2 0.11198235E-02 0.28196346E+02</pdfrwt>
<pdfrwt beam="1">  1       -2 0.42009683E-02 0.28196346E+02</pdfrwt>
<totfact> 0.16934113E+06</totfact>
</mgrwt>
</event>
<event>
 4    1  0.3704929E-001  0.4205324E+02  0.7818608E-02  0.1493623E+00
         -2   -1    0    0    0  501 -0.00000000000E+00  0.00000000000E+00  0.37050451486E+01  0.37050460608E+01  0.26000000000E-02 0.  1.
          2   -1    0    0  501    0  0.00000000000E+00 -0.00000000000E+00 -0.11932880901E+03  0.11932880904E+03  0.26000000000E-02 0. -1.
        -13    1    1    2    0    0 -0.12755637504E+02 -0.16251131300E+02 -0.69256429901E+02  0.72272192521E+02  0.10570000000E+00 0. -1.
         13    1    1    2    0    0  0.12755637504E+02  0.16251131300E+02 -0.46367333965E+02  0.50761662583E+02  0.10570000000E+00 0.  1.
<mgrwt>
<rscale>  0 0.42053237E+02</rscale>
<asrwt>0</asrwt>
<pdfrwt beam="2">  1        2 0.18358275E-01 0.42053237E+02</pdfrwt>
<pdfrwt beam="1">  1       -2 0.57000711E-03 0.42053237E+02</pdfrwt>
<totfact> 0.96742056E+05</totfact>
</mgrwt>
</event>
<event>
 4    1  0.3704929E-001  0.2276492E+02  0.7818608E-02  0.1695349E+00
         -2   -1    0    0    0  501 -0.00000000000E+00  0.00000000000E+00  0.23822053444E+01  0.23822067633E+01  0.26000000000E-02 0. -1.
          2   -1    0    0  501    0  0.00000000000E+00 -0.00000000000E+00 -0.54386722341E+02  0.54386722403E+02  0.26000000000E-02 0.  1.
        -13    1    1    2    0    0  0.60290108807E+01  0.82935129436E+01 -0.13679765439E+02  0.17096154074E+02  0.10570000000E+00 0. -1.
         13    1    1    2    0    0 -0.60290108807E+01 -0.82935129436E+01 -0.38324751557E+02  0.39672775092E+02  0.10570000000E+00 0.  1.
<mgrwt>
<rscale>  0 0.22764919E+02</rscale>
<asrwt>0</asrwt>
<pdfrwt beam="2">  1        2 0.83671872E-02 0.22764919E+02</pdfrwt>
<pdfrwt beam="1">  1       -2 0.36649329E-03 0.22764919E+02</pdfrwt>
<totfact> 0.35064392E+06</totfact>
</mgrwt>
</event>
<event>
 4    1  0.3704929E-001  0.3422944E+02  0.7818608E-02  0.1555552E+00
          2   -1    0    0  501    0  0.00000000000E+00  0.00000000000E+00  0.76548229842E+01  0.76548234257E+01  0.26000000000E-02 0. -1.
         -2   -1    0    0    0  501 -0.00000000000E+00 -0.00000000000E+00 -0.38265230116E+02  0.38265230205E+02  0.26000000000E-02 0.  1.
        -13    1    1    2    0    0 -0.64112089170E+01  0.15828210876E+02 -0.16814980093E+02  0.23966447116E+02  0.10570000000E+00 0. -1.
         13    1    1    2    0    0  0.64112089170E+01 -0.15828210876E+02 -0.13795427039E+02  0.21953606515E+02  0.10570000000E+00 0.  1.
<mgrwt>
<rscale>  0 0.34229436E+02</rscale>
<asrwt>0</asrwt>
<pdfrwt beam="1">  1        2 0.11776651E-02 0.34229436E+02</pdfrwt>
<pdfrwt beam="2">  1       -2 0.58869584E-02 0.34229436E+02</pdfrwt>
<totfact> 0.10410765E+06</totfact>
</mgrwt>
</event>
<event>
 4    1  0.3704929E-001  0.1009506E+03  0.7818608E-02  0.1278309E+00
         -2   -1    0    0    0  501 -0.00000000000E+00  0.00000000000E+00  0.18066885282E+02  0.18066885469E+02  0.26000000000E-02 0.  1.
          2   -1    0    0  501    0  0.00000000000E+00 -0.00000000000E+00 -0.14101811880E+03  0.14101811882E+03  0.26000000000E-02 0. -1.
        -13    1    1    2    0    0 -0.45906610066E+02  0.10203586191E+02 -0.90371101184E+02  0.10187481102E+03  0.10570000000E+00 0.  1.
         13    1    1    2    0    0  0.45906610066E+02 -0.10203586191E+02 -0.32580132335E+02  0.57210193273E+02  0.10570000000E+00 0. -1.
<mgrwt>
<rscale>  0 0.10095065E+03</rscale>
<asrwt>0</asrwt>
<pdfrwt beam="2">  1        2 0.21695094E-01 0.10095065E+03</pdfrwt>
<pdfrwt beam="1">  1       -2 0.27795209E-02 0.10095065E+03</pdfrwt>
<totfact> 0.10359282E+05</totfact>
</mgrwt>
</event>
<event>
 4    1  0.3704929E-001  0.2606359E+02  0.7818608E-02  0.1646179E+00
          2   -1    0    0  501    0  0.00000000000E+00  0.00000000000E+00  0.12346992967E+02  0.12346993241E+02  0.26000000000E-02 0.  1.
         -2   -1    0    0    0  501 -0.00000000000E+00 -0.00000000000E+00 -0.13754576452E+02  0.13754576698E+02  0.26000000000E-02 0. -1.
        -13    1    1    2    0    0 -0.10382110014E+02  0.40140424682E+00  0.71732383017E+01  0.12625999126E+02  0.10570000000E+00 0.  1.
         13    1    1    2    0    0  0.10382110014E+02 -0.40140424682E+00 -0.85808217869E+01  0.13475570813E+02  0.10570000000E+00 0. -1.
<mgrwt>
<rscale>  0 0.26063589E+02</rscale>
<asrwt>0</asrwt>
<pdfrwt beam="1">  1        2 0.18995374E-02 0.26063589E+02</pdfrwt>
<pdfrwt beam="2">  1       -2 0.21160887E-02 0.26063589E+02</pdfrwt>
<totfact> 0.21596159E+06</totfact>
</mgrwt>
</event>
<event>
 4    1  0.3704929E-001  0.2489750E+02  0.7818608E-02  0.1662479E+00
         -2   -1    0    0    0  501 -0.00000000000E+00  0.00000000000E+00  0.13581804303E+02  0.13581804552E+02  0.26000000000E-02 0. -1.
          2   -1    0    0  501    0  0.00000000000E+00 -0.00000000000E+00 -0.11410217306E+02  0.11410217602E+02  0.26000000000E-02 0.  1.
        -13    1    1    2    0    0 -0.11756691057E+02  0.13428056577E+00 -0.30190295912E+01  0.12139338040E+02  0.10570000000E+00 0. -1.
         13    1    1    2    0    0  0.11756691057E+02 -0.13428056577E+00  0.51906165882E+01  0.12852684114E+02  0.10570000000E+00 0.  1.
<mgrwt>
<rscale>  0 0.24897497E+02</rscale>
<asrwt>0</asrwt>
<pdfrwt beam="2">  1        2 0.17554181E-02 0.24897497E+02</pdfrwt>
<pdfrwt beam="1">  1       -2 0.20895084E-02 0.24897497E+02</pdfrwt>
<totfact> 0.23923299E+06</totfact>
</mgrwt>
</event>
<event>
 4    1  0.3704929E-001  0.2226570E+02  0.7818608E-02  0.1703697E+00
          2   -1    0    0  501    0  0.00000000000E+00  0.00000000000E+00  0.21559452323E+01  0.21559468001E+01  0.26000000000E-02 0.  1.
         -2   -1    0    0    0  501 -0.00000000000E+00 -0.00000000000E+00 -0.57487692571E+02  0.57487692629E+02  0.26000000000E-02 0. -1.
        -13    1    1    2    0    0 -0.15294871242E+01  0.10868269323E+02 -0.22675546473E+02  0.25192264473E+02  0.10570000000E+00 0.  1.
         13    1    1    2    0    0  0.15294871242E+01 -0.10868269323E+02 -0.32656200865E+02  0.34451374957E+02  0.10570000000E+00 0. -1.
<mgrwt>
<rscale>  0 0.22265701E+02</rscale>
<asrwt>0</asrwt>
<pdfrwt beam="1">  1        2 0.33168405E-03 0.22265701E+02</pdfrwt>
<pdfrwt beam="2">  1       -2 0.88442594E-02 0.22265701E+02</pdfrwt>
<totfact> 0.26195502E+06</totfact>
</mgrwt>
</event>
<event>
 4    1  0.3704929E-001  0.7037356E+02  0.7818608E-02  0.1358827E+00
          2   -1    0    0  501    0  0.00000000000E+00  0.00000000000E+00  0.74501320079E+01  0.74501324616E+01  0.26000000000E-02 0.  1.
         -2   -1    0    0    0  501 -0.00000000000E+00 -0.00000000000E+00 -0.16618624146E+03  0.16618624148E+03  0.26000000000E-02 0. -1.
        -13    1    1    2    0    0  0.47851133202E+01 -0.27848323800E+02 -0.27631736149E+02  0.39521518987E+02  0.10570000000E+00 0.  1.
         13    1    1    2    0    0 -0.47851133202E+01  0.27848323800E+02 -0.13110437330E+03  0.13411485495E+03  0.10570000000E+00 0. -1.
<mgrwt>
<rscale>  0 0.70373560E+02</rscale>
<asrwt>0</asrwt>
<pdfrwt beam="1">  1        2 0.11461743E-02 0.70373560E+02</pdfrwt>
<pdfrwt beam="2">  1       -2 0.25567111E-01 0.70373560E+02</pdfrwt>
<totfact> 0.12941048E+05</totfact>
</mgrwt>
</event>
<event>
 4    1  0.3704929E-001  0.3084101E+02  0.7818608E-02  0.1588974E+00
         -2   -1    0    0    0  501 -0.00000000000E+00  0.00000000000E+00  0.19960240551E+01  0.19960257485E+01  0.26000000000E-02 0. -1.
          2   -1    0    0  501    0  0.00000000000E+00 -0.00000000000E+00 -0.11913276402E+03  0.11913276405E+03  0.26000000000E-02 0.  1.
        -13    1    1    2    0    0 -0.12777011331E+02 -0.84733352323E+01 -0.65059327160E+02  0.66841429155E+02  0.10570000000E+00 0. -1.
         13    1    1    2    0    0  0.12777011331E+02  0.84733352323E+01 -0.52077412809E+02  0.54287360646E+02  0.10570000000E+00 0.  1.
<mgrwt>
<rscale>  0 0.30841010E+02</rscale>
<asrwt>0</asrwt>
<pdfrwt beam="2">  1        2 0.18328112E-01 0.30841010E+02</pdfrwt>
<pdfrwt beam="1">  1       -2 0.30708085E-03 0.30841010E+02</pdfrwt>
<totfact> 0.20453514E+06</totfact>
</mgrwt>
</event>
<event>
 4    1  0.3704929E-001  0.6015924E+02  0.7818608E-02  0.1397165E+00
         -2   -1    0    0    0  501 -0.00000000000E+00  0.00000000000E+00  0.71725597516E+02  0.71725597563E+02  0.26000000000E-02 0.  1.
          2   -1    0    0  501    0  0.00000000000E+00 -0.00000000000E+00 -0.12614514639E+02  0.12614514907E+02  0.26000000000E-02 0. -1.
        -13    1    1    2    0    0  0.20436170816E+02  0.48918492523E+01 -0.61746030650E+00  0.21022837498E+02  0.10570000000E+00 0. -1.
         13    1    1    2    0    0 -0.20436170816E+02 -0.48918492523E+01  0.59728543183E+02  0.63317274973E+02  0.10570000000E+00 0.  1.
<mgrwt>
<rscale>  0 0.60159242E+02</rscale>
<asrwt>0</asrwt>
<pdfrwt beam="2">  1        2 0.19406946E-02 0.60159242E+02</pdfrwt>
<pdfrwt beam="1">  1       -2 0.11034707E-01 0.60159242E+02</pdfrwt>
<totfact> 0.24267285E+05</totfact>
</mgrwt>
</event>
<event>
 4    1  0.3704929E-001  0.6495275E+02  0.7818608E-02  0.1378149E+00
         -2   -1    0    0    0  501 -0.00000000000E+00  0.00000000000E+00  0.48564718207E+01  0.48564725166E+01  0.26000000000E-02 0. -1.
          2   -1    0    0  501    0  0.00000000000E+00 -0.00000000000E+00 -0.21717715927E+03  0.21717715929E+03  0.26000000000E-02 0.  1.
        -13    1    1    2    0    0 -0.97722748524E+01  0.29378850425E+02 -0.13966916104E+03  0.14305977745E+03  0.10570000000E+00 0.  1.
         13    1    1    2    0    0  0.97722748524E+01 -0.29378850425E+02 -0.72651526418E+02  0.78973854353E+02  0.10570000000E+00 0. -1.
<mgrwt>
<rscale>  0 0.64952747E+02</rscale>
<asrwt>0</asrwt>
<pdfrwt beam="2">  1        2 0.33411863E-01 0.64952747E+02</pdfrwt>
<pdfrwt beam="1">  1       -2 0.74714974E-03 0.64952747E+02</pdfrwt>
<totfact> 0.38927531E+05</totfact>
</mgrwt>
</event>
<event>
 4    1  0.3704929E-001  0.5547808E+02  0.7818608E-02  0.1417851E+00
          2   -1    0    0  501    0  0.00000000000E+00  0.00000000000E+00  0.45233109680E+02  0.45233109755E+02  0.26000000000E-02 0.  1.
         -2   -1    0    0    0  501 -0.00000000000E+00 -0.00000000000E+00 -0.17010863428E+02  0.17010863627E+02  0.26000000000E-02 0. -1.
        -13    1    1    2    0    0  0.18814359411E+02  0.19524931031E+01  0.36874692306E+02  0.41443292033E+02  0.10570000000E+00 0.  1.
         13    1    1    2    0    0 -0.18814359411E+02 -0.19524931031E+01 -0.86524460536E+01  0.20800681349E+02  0.10570000000E+00 0. -1.
<mgrwt>
<rscale>  0 0.55478077E+02</rscale>
<asrwt>0</asrwt>
<pdfrwt beam="1">  1        2 0.69589400E-02 0.55478077E+02</pdfrwt>
<pdfrwt beam="2">  1       -2 0.26170559E-02 0.55478077E+02</pdfrwt>
<totfact> 0.38413718E+05</totfact>
</mgrwt>
</event>
<event>
 4    1  0.3704929E-001  0.5268341E+02  0.7818608E-02  0.1431383E+00
          2   -1    0    0  501    0  0.00000000000E+00  0.00000000000E+00  0.10111881511E+03  0.10111881515E+03  0.26000000000E-02 0. -1.
         -2   -1    0    0    0  501 -0.00000000000E+00 -0.00000000000E+00 -0.68620799939E+01  0.68620804864E+01  0.26000000000E-02 0.  1.
        -13    1    1    2    0    0 -0.64321854629E+00 -0.26223795725E+02  0.52053026394E+02  0.58289192150E+02  0.10570000000E+00 0. -1.
         13    1    1    2    0    0  0.64321854629E+00  0.26223795725E+02  0.42203708727E+02  0.49691703484E+02  0.10570000000E+00 0.  1.
<mgrwt>
<rscale>  0 0.52683410E+02</rscale>
<asrwt>0</asrwt>
<pdfrwt beam="1">  1        2 0.15556740E-01 0.52683410E+02</pdfrwt>
<pdfrwt beam="2">  1       -2 0.10557047E-02 0.52683410E+02</pdfrwt>
<totfact> 0.52580276E+05</totfact>
</mgrwt>
</event>
<event>
 4    1  0.3704929E-001  0.2321055E+02  0.7818608E-02  0.1688120E+00
          2   -1    0    0  501    0  0.00000000000E+00  0.00000000000E+00  0.43439631007E+01  0.43439638788E+01  0.26000000000E-02 0. -1.
         -2   -1    0    0    0  501 -0.00000000000E+00 -0.00000000000E+00 -0.31004496802E+02  0.31004496911E+02  0.26000000000E-02 0.  1.
        -13    1    1    2    0    0 -0.10265376360E+02 -0.29567586431E+01 -0.64262780639E+01  0.12467100534E+02  0.10570000000E+00 0. -1.
         13    1    1    2    0    0  0.10265376360E+02  0.29567586431E+01 -0.20234255637E+02  0.22881360256E+02  0.10570000000E+00 0.  1.
<mgrwt>
<rscale>  0 0.23210550E+02</rscale>
<asrwt>0</asrwt>
<pdfrwt beam="1">  1        2 0.66830210E-03 0.23210550E+02</pdfrwt>
<pdfrwt beam="2">  1       -2 0.47699225E-02 0.23210550E+02</pdfrwt>
<totfact> 0.25882397E+06</totfact>
</mgrwt>
</event>
<event>
 4    1  0.3704929E-001  0.4744750E+02  0.7818608E-02  0.1459616E+00
         -2   -1    0    0    0  501 -0.00000000000E+00  0.00000000000E+00  0.94733819569E+01  0.94733823136E+01  0.26000000000E-02 0.  1.
          2   -1    0    0  501    0  0.00000000000E+00 -0.00000000000E+00 -0.59410270883E+02  0.59410270940E+02  0.26000000000E-02 0. -1.
        -13    1    1    2    0    0 -0.84769472620E+01 -0.56519810758E+01 -0.56071992692E+02  0.56990201456E+02  0.10570000000E+00 0. -1.
         13    1    1    2    0    0  0.84769472620E+01  0.56519810758E+01  0.61351037660E+01  0.11893451798E+02  0.10570000000E+00 0.  1.
<mgrwt>
<rscale>  0 0.47447495E+02</rscale>
<asrwt>0</asrwt>
<pdfrwt beam="2">  1        2 0.91400415E-02 0.47447495E+02</pdfrwt>
<pdfrwt beam="1">  1       -2 0.14574434E-02 0.47447495E+02</pdfrwt>
<totfact> 0.60663800E+05</totfact>
</mgrwt>
</event>
<event>
 4    1  0.3704929E-001  0.2138898E+02  0.7818608E-02  0.1719039E+00
          2   -1    0    0  501    0  0.00000000000E+00  0.00000000000E+00  0.14933586747E+01  0.14933609381E+01  0.26000000000E-02 0.  1.
         -2   -1    0    0    0  501 -0.00000000000E+00 -0.00000000000E+00 -0.76587090350E+02  0.76587090394E+02  0.26000000000E-02 0. -1.
        -13    1    1    2    0    0  0.44389266986E+01 -0.94133070123E+01 -0.28570426115E+02  0.30407151133E+02  0.10570000000E+00 0. -1.
         13    1    1    2    0    0 -0.44389266986E+01  0.94133070123E+01 -0.46523305561E+02  0.47673300200E+02  0.10570000000E+00 0.  1.
<mgrwt>
<rscale>  0 0.21388977E+02</rscale>
<asrwt>0</asrwt>
<pdfrwt beam="1">  1        2 0.22974773E-03 0.21388977E+02</pdfrwt>
<pdfrwt beam="2">  1       -2 0.11782626E-01 0.21388977E+02</pdfrwt>
<totfact> 0.27209751E+06</totfact>
</mgrwt>
</event>
<event>
 4    1  0.3704929E-001  0.2361135E+02  0.7818608E-02  0.1681788E+00
         -2   -1    0    0    0  501 -0.00000000000E+00  0.00000000000E+00  0.36624968698E+02  0.36624968790E+02  0.26000000000E-02 0. -1.
          2   -1    0    0  501    0  0.00000000000E+00 -0.00000000000E+00 -0.38054367159E+01  0.38054376041E+01  0.26000000000E-02 0.  1.
        -13    1    1    2    0    0  0.10704070180E+02  0.38124640590E+01  0.21892120051E+02  0.24665524390E+02  0.10570000000E+00 0. -1.
         13    1    1    2    0    0 -0.10704070180E+02 -0.38124640590E+01  0.10927411931E+02  0.15764882004E+02  0.10570000000E+00 0.  1.
<mgrwt>
<rscale>  0 0.23611355E+02</rscale>
<asrwt>0</asrwt>
<pdfrwt beam="2">  1        2 0.58545188E-03 0.23611355E+02</pdfrwt>
<pdfrwt beam="1">  1       -2 0.56346107E-02 0.23611355E+02</pdfrwt>
<totfact> 0.24449354E+06</totfact>
</mgrwt>
</event>
<event>
 4    1  0.3704929E-001  0.2629440E+02  0.7818608E-02  0.1643077E+00
         -2   -1    0    0    0  501 -0.00000000000E+00  0.00000000000E+00  0.28933108688E+02  0.28933108805E+02  0.26000000000E-02 0.  1.
          2   -1    0    0  501    0  0.00000000000E+00 -0.00000000000E+00 -0.59740844835E+01  0.59740850493E+01  0.26000000000E-02 0. -1.
        -13    1    1    2    0    0 -0.21697775792E+01  0.12939449756E+02  0.10368500280E+02  0.16722866539E+02  0.10570000000E+00 0.  1.
         13    1    1    2    0    0  0.21697775792E+01 -0.12939449756E+02  0.12590523925E+02  0.18184327316E+02  0.10570000000E+00 0. -1.
<mgrwt>
<rscale>  0 0.26294398E+02</rscale>
<asrwt>0</asrwt>
<pdfrwt beam="2">  1        2 0.91908996E-03 0.26294398E+02</pdfrwt>
<pdfrwt beam="1">  1       -2 0.44512476E-02 0.26294398E+02</pdfrwt>
<totfact> 0.19711371E+06</totfact>
</mgrwt>
</event>
<event>
 4    1  0.3704929E-001  0.2423438E+02  0.7818608E-02  0.1672249E+00
          2   -1    0    0  501    0  0.00000000000E+00  0.00000000000E+00  0.24495996321E+02  0.24495996459E+02  0.26000000000E-02 0.  1.
         -2   -1    0    0    0  501 -0.00000000000E+00 -0.00000000000E+00 -0.59938908791E+01  0.59938914430E+01  0.26000000000E-02 0. -1.
        -13    1    1    2    0    0 -0.31546038641E+01 -0.11321526140E+02  0.12959148506E+02  0.17495118810E+02  0.10570000000E+00 0.  1.
         13    1    1    2    0    0  0.31546038641E+01  0.11321526140E+02  0.55429569360E+01  0.12994769092E+02  0.10570000000E+00 0. -1.
<mgrwt>
<rscale>  0 0.24234384E+02</rscale>
<asrwt>0</asrwt>
<pdfrwt beam="1">  1        2 0.37686149E-02 0.24234384E+02</pdfrwt>
<pdfrwt beam="2">  1       -2 0.92213711E-03 0.24234384E+02</pdfrwt>
<totfact> 0.27367665E+06</totfact>
</mgrwt>
</event>
<event>
 4    1  0.3704929E-001  0.3183864E+02  0.7818608E-02  0.1578611E+00
         -2   -1    0    0    0  501 -0.00000000000E+00  0.00000000000E+00  0.81977770588E+01  0.81977774711E+01  0.26000000000E-02 0. -1.
          2   -1    0    0  501    0  0.00000000000E+00 -0.00000000000E+00 -0.30913831697E+02  0.30913831806E+02  0.26000000000E-02 0.  1.
        -13    1    1    2    0    0  0.16837563043E+01 -0.13497834906E+02 -0.11993340928E+01  0.13655627309E+02  0.10570000000E+00 0. -1.
         13    1    1    2    0    0 -0.16837563043E+01  0.13497834906E+02 -0.21516720545E+02  0.25455981968E+02  0.10570000000E+00 0.  1.
<mgrwt>
<rscale>  0 0.31838638E+02</rscale>
<asrwt>0</asrwt>
<pdfrwt beam="2">  1        2 0.47559741E-02 0.31838638E+02</pdfrwt>
<pdfrwt beam="1">  1       -2 0.12611965E-02 0.31838638E+02</pdfrwt>
<totfact> 0.14697424E+06</totfact>
</mgrwt>
</event>
<event>
 4    1  0.3704929E-001  0.2693148E+02  0.7818608E-02  0.1634715E+00
          2   -1    0    0  501    0  0.00000000000E+00  0.00000000000E+00  0.22885836453E+02  0.22885836601E+02  0.26000000000E-02 0. -1.
         -2   -1    0    0    0  501 -0.00000000000E+00 -0.00000000000E+00 -0.79230734862E+01  0.79230739128E+01  0.26000000000E-02 0.  1.
        -13    1    1    2    0    0 -0.47176152261E+01  0.12552611517E+02  0.88782719501E+01  0.16082873954E+02  0.10570000000E+00 0. -1.
         13    1    1    2    0    0  0.47176152261E+01 -0.12552611517E+02  0.60844910167E+01  0.14726036559E+02  0.10570000000E+00 0.  1.
<mgrwt>
<rscale>  0 0.26931481E+02</rscale>
<asrwt>0</asrwt>
<pdfrwt beam="1">  1        2 0.35208979E-02 0.26931481E+02</pdfrwt>
<pdfrwt beam="2">  1       -2 0.12189344E-02 0.26931481E+02</pdfrwt>
<totfact> 0.21201482E+06</totfact>
</mgrwt>
</event>
<event>
 4    1  0.3704929E-001  0.2774815E+02  0.7818608E-02  0.1624403E+00
         -2   -1    0    0    0  501 -0.00000000000E+00  0.00000000000E+00  0.59641917064E+02  0.59641917121E+02  0.26000000000E-02 0. -1.
          2   -1    0    0  501    0  0.00000000000E+00 -0.00000000000E+00 -0.32274278461E+01  0.32274288934E+01  0.26000000000E-02 0.  1.
        -13    1    1    2    0    0 -0.10441084514E+02 -0.34374036304E+01  0.47385248848E+02  0.48643652931E+02  0.10570000000E+00 0. -1.
         13    1    1    2    0    0  0.10441084514E+02  0.34374036304E+01  0.90292403695E+01  0.14225693083E+02  0.10570000000E+00 0.  1.
<mgrwt>
<rscale>  0 0.27748154E+02</rscale>
<asrwt>0</asrwt>
<pdfrwt beam="2">  1        2 0.49652751E-03 0.27748154E+02</pdfrwt>
<pdfrwt beam="1">  1       -2 0.91756785E-02 0.27748154E+02</pdfrwt>
<totfact> 0.15842129E+06</totfact>
</mgrwt>
</event>
<event>
 4    1  0.3704929E-001  0.7916371E+02  0.7818608E-02  0.1331442E+00
          2   -1    0    0  501    0  0.00000000000E+00  0.00000000000E+00  0.25676013283E+02  0.25676013415E+02  0.26000000000E-02 0. -1.
         -2   -1    0    0    0  501 -0.00000000000E+00 -0.00000000000E+00 -0.61018951047E+02  0.61018951102E+02  0.26000000000E-02 0.  1.
        -13    1    1    2    0    0  0.22727486769E+02  0.30732065212E+02 -0.64115971469E+01  0.38757170143E+02  0.10570000000E+00 0. -1.
         13    1    1    2    0    0 -0.22727486769E+02 -0.30732065212E+02 -0.28931340617E+02  0.47937794374E+02  0.10570000000E+00 0.  1.
<mgrwt>
<rscale>  0 0.79163714E+02</rscale>
<asrwt>0</asrwt>
<pdfrwt beam="1">  1        2 0.39501559E-02 0.79163714E+02</pdfrwt>
<pdfrwt beam="2">  1       -2 0.93875309E-02 0.79163714E+02</pdfrwt>
<totfact> 0.12877339E+05</totfact>
</mgrwt>
</event>
<event>
 4    1  0.3704929E-001  0.2683375E+02  0.7818608E-02  0.1635979E+00
         -2   -1    0    0    0  501 -0.00000000000E+00  0.00000000000E+00  0.20811522853E+01  0.20811539094E+01  0.26000000000E-02 0. -1.
          2   -1    0    0  501    0  0.00000000000E+00 -0.00000000000E+00 -0.86496542065E+02  0.86496542104E+02  0.26000000000E-02 0.  1.
        -13    1    1    2    0    0 -0.61798920096E+01  0.11711465747E+02 -0.49327323592E+02  0.51073922117E+02  0.10570000000E+00 0.  1.
         13    1    1    2    0    0  0.61798920096E+01 -0.11711465747E+02 -0.35088066188E+02  0.37503773897E+02  0.10570000000E+00 0. -1.
<mgrwt>
<rscale>  0 0.26833751E+02</rscale>
<asrwt>0</asrwt>
<pdfrwt beam="2">  1        2 0.13307158E-01 0.26833751E+02</pdfrwt>
<pdfrwt beam="1">  1       -2 0.32017747E-03 0.26833751E+02</pdfrwt>
<totfact> 0.26239427E+06</totfact>
</mgrwt>
</event>
<event>
 4    1  0.3704929E-001  0.5009154E+02  0.7818608E-02  0.1444848E+00
          2   -1    0    0  501    0  0.00000000000E+00  0.00000000000E+00  0.34296092449E+02  0.34296092547E+02  0.26000000000E-02 0. -1.
         -2   -1    0    0    0  501 -0.00000000000E+00 -0.00000000000E+00 -0.18290442339E+02  0.18290442524E+02  0.26000000000E-02 0.  1.
        -13    1    1    2    0    0  0.53526575982E+01  0.86507009379E+01 -0.16023667639E+02  0.18980375844E+02  0.10570000000E+00 0.  1.
         13    1    1    2    0    0 -0.53526575982E+01 -0.86507009379E+01  0.32029317749E+02  0.33606159227E+02  0.10570000000E+00 0. -1.
<mgrwt>
<rscale>  0 0.50091545E+02</rscale>
<asrwt>0</asrwt>
<pdfrwt beam="1">  1        2 0.52763219E-02 0.50091545E+02</pdfrwt>
<pdfrwt beam="2">  1       -2 0.28139143E-02 0.50091545E+02</pdfrwt>
<totfact> 0.47756581E+05</totfact>
</mgrwt>
</event>
<event>
 4    1  0.3704929E-001  0.2726441E+02  0.7818608E-02  0.1630457E+00
         -2   -1    0    0    0  501 -0.00000000000E+00  0.00000000000E+00  0.12699792538E+02  0.12699792804E+02  0.26000000000E-02 0.  1.
          2   -1    0    0  501    0  0.00000000000E+00 -0.00000000000E+00 -0.14633069052E+02  0.14633069283E+02  0.26000000000E-02 0. -1.
        -13    1    1    2    0    0  0.12080211137E+02 -0.29914857101E+01  0.46101781022E+01  0.13271978093E+02  0.10570000000E+00 0. -1.
         13    1    1    2    0    0 -0.12080211137E+02  0.29914857101E+01 -0.65434546165E+01  0.14060883994E+02  0.10570000000E+00 0.  1.
<mgrwt>
<rscale>  0 0.27264405E+02</rscale>
<asrwt>0</asrwt>
<pdfrwt beam="2">  1        2 0.22512414E-02 0.27264405E+02</pdfrwt>
<pdfrwt beam="1">  1       -2 0.19538143E-02 0.27264405E+02</pdfrwt>
<totfact> 0.19691776E+06</totfact>
</mgrwt>
</event>
<event>
 4    1  0.3704929E-001  0.2602060E+02  0.7818608E-02  0.1646761E+00
          2   -1    0    0  501    0  0.00000000000E+00  0.00000000000E+00  0.32092384210E+01  0.32092394742E+01  0.26000000000E-02 0. -1.
         -2   -1    0    0    0  501 -0.00000000000E+00 -0.00000000000E+00 -0.52743942844E+02  0.52743942908E+02  0.26000000000E-02 0.  1.
        -13    1    1    2    0    0  0.25761212606E+01 -0.12541847719E+02 -0.19806442846E+02  0.23584755578E+02  0.10570000000E+00 0. -1.
         13    1    1    2    0    0 -0.25761212606E+01  0.12541847719E+02 -0.29728261577E+02  0.32368426805E+02  0.10570000000E+00 0.  1.
<mgrwt>
<rscale>  0 0.26020601E+02</rscale>
<asrwt>0</asrwt>
<pdfrwt beam="1">  1        2 0.49372911E-03 0.26020601E+02</pdfrwt>
<pdfrwt beam="2">  1       -2 0.81144522E-02 0.26020601E+02</pdfrwt>
<totfact> 0.18704030E+06</totfact>
</mgrwt>
</event>
<event>
 4    1  0.3704929E-001  0.3883335E+02  0.7818608E-02  0.1516976E+00
          2   -1    0    0  501    0  0.00000000000E+00  0.00000000000E+00  0.35982824746E+02  0.35982824840E+02  0.26000000000E-02 0. -1.
         -2   -1    0    0    0  501 -0.00000000000E+00 -0.00000000000E+00 -0.10477425115E+02  0.10477425438E+02  0.26000000000E-02 0.  1.
        -13    1    1    2    0    0 -0.79718584097E+01  0.14999294002E+02  0.24005662950E+02  0.29407692416E+02  0.10570000000E+00 0. -1.
         13    1    1    2    0    0  0.79718584097E+01 -0.14999294002E+02  0.14997366810E+01  0.17052557862E+02  0.10570000000E+00 0.  1.
<mgrwt>
<rscale>  0 0.38833355E+02</rscale>
<asrwt>0</asrwt>
<pdfrwt beam="1">  1        2 0.55358193E-02 0.38833355E+02</pdfrwt>
<pdfrwt beam="2">  1       -2 0.16119116E-02 0.38833355E+02</pdfrwt>
<totfact> 0.92080383E+05</totfact>
</mgrwt>
</event>
<event>
 4    1  0.3704929E-001  0.3540707E+02  0.7818608E-02  0.1545015E+00
         -2   -1    0    0    0  501 -0.00000000000E+00  0.00000000000E+00  0.21588469333E+02  0.21588469489E+02  0.26000000000E-02 0. -1.
          2   -1    0    0  501    0  0.00000000000E+00 -0.00000000000E+00 -0.14517709331E+02  0.14517709564E+02  0.26000000000E-02 0.  1.
        -13    1    1    2    0    0  0.67290315938E+01 -0.10355589384E+02  0.16469905298E+02  0.20586088767E+02  0.10570000000E+00 0. -1.
         13    1    1    2    0    0 -0.67290315938E+01  0.10355589384E+02 -0.93991452965E+01  0.15520090286E+02  0.10570000000E+00 0.  1.
<mgrwt>
<rscale>  0 0.35407069E+02</rscale>
<asrwt>0</asrwt>
<pdfrwt beam="2">  1        2 0.22334938E-02 0.35407069E+02</pdfrwt>
<pdfrwt beam="1">  1       -2 0.33213030E-02 0.35407069E+02</pdfrwt>
<totfact> 0.10332075E+06</totfact>
</mgrwt>
</event>
<event>
 4    1  0.3704929E-001  0.4600416E+02  0.7818608E-02  0.1468169E+00
         -2   -1    0    0    0  501 -0.00000000000E+00  0.00000000000E+00  0.68869188465E+02  0.68869188514E+02  0.26000000000E-02 0.  1.
          2   -1    0    0  501    0  0.00000000000E+00 -0.00000000000E+00 -0.76826166191E+01  0.76826170590E+01  0.26000000000E-02 0. -1.
        -13    1    1    2    0    0  0.14033530128E+02 -0.12782186387E+02  0.89763896903E+01  0.20997880870E+02  0.10570000000E+00 0. -1.
         13    1    1    2    0    0 -0.14033530128E+02  0.12782186387E+02  0.52210182156E+02  0.55553924703E+02  0.10570000000E+00 0.  1.
<mgrwt>
<rscale>  0 0.46004156E+02</rscale>
<asrwt>0</asrwt>
<pdfrwt beam="2">  1        2 0.11819411E-02 0.46004156E+02</pdfrwt>
<pdfrwt beam="1">  1       -2 0.10595259E-01 0.46004156E+02</pdfrwt>
<totfact> 0.46950523E+05</totfact>
</mgrwt>
</event>
<event>
 4    1  0.3704929E-001  0.2219916E+02  0.7818608E-02  0.1704830E+00
         -2   -1    0    0    0  501 -0.00000000000E+00  0.00000000000E+00  0.83003503602E+01  0.83003507674E+01  0.26000000000E-02 0. -1.
          2   -1    0    0  501    0  0.00000000000E+00 -0.00000000000E+00 -0.14842825014E+02  0.14842825241E+02  0.26000000000E-02 0.  1.
        -13    1    1    2    0    0 -0.74204808667E+01  0.81568284738E+01 -0.19557973174E+01  0.11199718866E+02  0.10570000000E+00 0. -1.
         13    1    1    2    0    0  0.74204808667E+01 -0.81568284738E+01 -0.45866773361E+01  0.11943457143E+02  0.10570000000E+00 0.  1.
<mgrwt>
<rscale>  0 0.22199158E+02</rscale>
<asrwt>0</asrwt>
<pdfrwt beam="2">  1        2 0.22835116E-02 0.22199158E+02</pdfrwt>
<pdfrwt beam="1">  1       -2 0.12769770E-02 0.22199158E+02</pdfrwt>
<totfact> 0.32012915E+06</totfact>
</mgrwt>
</event>
<event>
 4    1  0.3704929E-001  0.2798090E+02  0.7818608E-02  0.1621543E+00
         -2   -1    0    0    0  501 -0.00000000000E+00  0.00000000000E+00  0.43440938945E+02  0.43440939023E+02  0.26000000000E-02 0.  1.
          2   -1    0    0  501    0  0.00000000000E+00 -0.00000000000E+00 -0.45057198360E+01  0.45057205862E+01  0.26000000000E-02 0. -1.
        -13    1    1    2    0    0  0.75319939295E+01 -0.11018117153E+02  0.26654659564E+02  0.29809593877E+02  0.10570000000E+00 0. -1.
         13    1    1    2    0    0 -0.75319939295E+01  0.11018117153E+02  0.12280559545E+02  0.18137065732E+02  0.10570000000E+00 0.  1.
<mgrwt>
<rscale>  0 0.27980902E+02</rscale>
<asrwt>0</asrwt>
<pdfrwt beam="2">  1        2 0.69318770E-03 0.27980902E+02</pdfrwt>
<pdfrwt beam="1">  1       -2 0.66832217E-02 0.27980902E+02</pdfrwt>
<totfact> 0.16297288E+06</totfact>
</mgrwt>
</event>
<event>
 4    1  0.3704929E-001  0.3434196E+03  0.7818608E-02  0.1065349E+00
          2   -1    0    0  501    0  0.00000000000E+00  0.00000000000E+00  0.56733834341E+03  0.56733834341E+03  0.26000000000E-02 0. -1.
         -2   -1    0    0    0  501 -0.00000000000E+00 -0.00000000000E+00 -0.51969447537E+02  0.51969447602E+02  0.26000000000E-02 0.  1.
        -13    1    1    2    0    0  0.57890629755E+02  0.11754485934E+03  0.57551512952E+02  0.14310942243E+03  0.10570000000E+00 0.  1.
         13    1    1    2    0    0 -0.57890629755E+02 -0.11754485934E+03  0.45781738292E+03  0.47619836859E+03  0.10570000000E+00 0. -1.
<mgrwt>
<rscale>  0 0.34341963E+03</rscale>
<asrwt>0</asrwt>
<pdfrwt beam="1">  1        2 0.87282821E-01 0.34341963E+03</pdfrwt>
<pdfrwt beam="2">  1       -2 0.79952997E-02 0.34341963E+03</pdfrwt>
<totfact> 0.51153369E+03</totfact>
</mgrwt>
</event>
<event>
 4    1  0.3704929E-001  0.3723346E+02  0.7818608E-02  0.1529617E+00
          2   -1    0    0  501    0  0.00000000000E+00  0.00000000000E+00  0.36954389520E+01  0.36954398667E+01  0.26000000000E-02 0.  1.
         -2   -1    0    0    0  501 -0.00000000000E+00 -0.00000000000E+00 -0.93786580147E+02  0.93786580183E+02  0.26000000000E-02 0. -1.
        -13    1    1    2    0    0  0.18244607226E+02 -0.11288163146E+01 -0.35814469037E+02  0.40209790897E+02  0.10570000000E+00 0.  1.
         13    1    1    2    0    0 -0.18244607226E+02  0.11288163146E+01 -0.54276672157E+02  0.57272229152E+02  0.10570000000E+00 0. -1.
<mgrwt>
<rscale>  0 0.37233460E+02</rscale>
<asrwt>0</asrwt>
<pdfrwt beam="1">  1        2 0.56852921E-03 0.37233460E+02</pdfrwt>
<pdfrwt beam="2">  1       -2 0.14428703E-01 0.37233460E+02</pdfrwt>
<totfact> 0.72936844E+05</totfact>
</mgrwt>
</event>
<event>
 4    1  0.3704929E-001  0.3332058E+02  0.7818608E-02  0.1564041E+00
          2   -1    0    0  501    0  0.00000000000E+00  0.00000000000E+00  0.63663419490E+02  0.63663419543E+02  0.26000000000E-02 0. -1.
         -2   -1    0    0    0  501 -0.00000000000E+00 -0.00000000000E+00 -0.43598856682E+01  0.43598864435E+01  0.26000000000E-02 0.  1.
        -13    1    1    2    0    0  0.12709605595E+02  0.11273436190E+01  0.77832241006E+01  0.14946395147E+02  0.10570000000E+00 0.  1.
         13    1    1    2    0    0 -0.12709605595E+02 -0.11273436190E+01  0.51520309721E+02  0.53076910839E+02  0.10570000000E+00 0. -1.
<mgrwt>
<rscale>  0 0.33320580E+02</rscale>
<asrwt>0</asrwt>
<pdfrwt beam="1">  1        2 0.97943728E-02 0.33320580E+02</pdfrwt>
<pdfrwt beam="2">  1       -2 0.67075167E-03 0.33320580E+02</pdfrwt>
<totfact> 0.14755884E+06</totfact>
</mgrwt>
</event>
<event>
 4    1  0.3704929E-001  0.2653487E+02  0.7818608E-02  0.1639887E+00
         -2   -1    0    0    0  501 -0.00000000000E+00  0.00000000000E+00  0.86633852665E+01  0.86633856566E+01  0.26000000000E-02 0. -1.
          2   -1    0    0  501    0  0.00000000000E+00 -0.00000000000E+00 -0.20318255222E+02  0.20318255388E+02  0.26000000000E-02 0.  1.
        -13    1    1    2    0    0 -0.98099165731E+01 -0.88792222770E+01 -0.47692552688E+01  0.14065277094E+02  0.10570000000E+00 0. -1.
         13    1    1    2    0    0  0.98099165731E+01  0.88792222770E+01 -0.68856146865E+01  0.14916363951E+02  0.10570000000E+00 0.  1.
<mgrwt>
<rscale>  0 0.26534874E+02</rscale>
<asrwt>0</asrwt>
<pdfrwt beam="2">  1        2 0.31258855E-02 0.26534874E+02</pdfrwt>
<pdfrwt beam="1">  1       -2 0.13328285E-02 0.26534874E+02</pdfrwt>
<totfact> 0.21692474E+06</totfact>
</mgrwt>
</event>
<event>
 4    1  0.3704929E-001  0.2578839E+02  0.7818608E-02  0.1649930E+00
          2   -1    0    0  501    0  0.00000000000E+00  0.00000000000E+00  0.21506923885E+01  0.21506939601E+01  0.26000000000E-02 0. -1.
         -2   -1    0    0    0  501 -0.00000000000E+00 -0.00000000000E+00 -0.77305414672E+02  0.77305414716E+02  0.26000000000E-02 0.  1.
        -13    1    1    2    0    0 -0.78248141971E+01 -0.82621403895E+01 -0.18897171817E+02  0.22059124104E+02  0.10570000000E+00 0. -1.
         13    1    1    2    0    0  0.78248141971E+01  0.82621403895E+01 -0.56257550466E+02  0.57396984572E+02  0.10570000000E+00 0.  1.
<mgrwt>
<rscale>  0 0.25788387E+02</rscale>
<asrwt>0</asrwt>
<pdfrwt beam="1">  1        2 0.33087594E-03 0.25788387E+02</pdfrwt>
<pdfrwt beam="2">  1       -2 0.11893139E-01 0.25788387E+02</pdfrwt>
<totfact> 0.17861550E+06</totfact>
</mgrwt>
</event>
<event>
 4    1  0.3704929E-001  0.2336179E+02  0.7818608E-02  0.1685712E+00
         -2   -1    0    0    0  501 -0.00000000000E+00  0.00000000000E+00  0.21711055140E+02  0.21711055295E+02  0.26000000000E-02 0.  1.
          2   -1    0    0  501    0  0.00000000000E+00 -0.00000000000E+00 -0.62845068265E+01  0.62845073643E+01  0.26000000000E-02 0. -1.
        -13    1    1    2    0    0  0.83109912735E+01 -0.75769059944E+01  0.11493304980E+02  0.16080712430E+02  0.10570000000E+00 0.  1.
         13    1    1    2    0    0 -0.83109912735E+01  0.75769059944E+01  0.39332433334E+01  0.11914850230E+02  0.10570000000E+00 0. -1.
<mgrwt>
<rscale>  0 0.23361788E+02</rscale>
<asrwt>0</asrwt>
<pdfrwt beam="2">  1        2 0.96684725E-03 0.23361788E+02</pdfrwt>
<pdfrwt beam="1">  1       -2 0.33401624E-02 0.23361788E+02</pdfrwt>
<totfact> 0.26425261E+06</totfact>
</mgrwt>
</event>
<event>
 4    1  0.3704929E-001  0.2475168E+02  0.7818608E-02  0.1664594E+00
          2   -1    0    0  501    0  0.00000000000E+00  0.00000000000E+00  0.24040042886E+01  0.24040056946E+01  0.26000000000E-02 0.  1.
         -2   -1    0    0    0  501 -0.00000000000E+00 -0.00000000000E+00 -0.63710924109E+02  0.63710924162E+02  0.26000000000E-02 0. -1.
        -13    1    1    2    0    0 -0.70444891690E+01 -0.90687771102E+01 -0.18330702278E+02  0.21630842897E+02  0.10570000000E+00 0.  1.
         13    1    1    2    0    0  0.70444891690E+01  0.90687771102E+01 -0.42976217542E+02  0.44484086960E+02  0.10570000000E+00 0. -1.
<mgrwt>
<rscale>  0 0.24751677E+02</rscale>
<asrwt>0</asrwt>
<pdfrwt beam="1">  1        2 0.36984697E-03 0.24751677E+02</pdfrwt>
<pdfrwt beam="2">  1       -2 0.98016795E-02 0.24751677E+02</pdfrwt>
<totfact> 0.20317238E+06</totfact>
</mgrwt>
</event>
<event>
 4    1  0.3704929E-001  0.2263165E+02  0.7818608E-02  0.1697551E+00
         -2   -1    0    0    0  501 -0.00000000000E+00  0.00000000000E+00  0.26557728408E+01  0.26557741135E+01  0.26000000000E-02 0. -1.
          2   -1    0    0  501    0  0.00000000000E+00 -0.00000000000E+00 -0.48214914041E+02  0.48214914111E+02  0.26000000000E-02 0.  1.
        -13    1    1    2    0    0 -0.10965880312E+02 -0.19318725123E+01 -0.27305381487E+02  0.29488602766E+02  0.10570000000E+00 0.  1.
         13    1    1    2    0    0  0.10965880312E+02  0.19318725123E+01 -0.18253759713E+02  0.21382085459E+02  0.10570000000E+00 0. -1.
<mgrwt>
<rscale>  0 0.22631650E+02</rscale>
<asrwt>0</asrwt>
<pdfrwt beam="2">  1        2 0.74176785E-02 0.22631650E+02</pdfrwt>
<pdfrwt beam="1">  1       -2 0.40858058E-03 0.22631650E+02</pdfrwt>
<totfact> 0.34870595E+06</totfact>
</mgrwt>
</event>
<event>
 4    1  0.3704929E-001  0.4238150E+02  0.7818608E-02  0.1491383E+00
          2   -1    0    0  501    0  0.00000000000E+00  0.00000000000E+00  0.46461021664E+02  0.46461021736E+02  0.26000000000E-02 0. -1.
         -2   -1    0    0    0  501 -0.00000000000E+00 -0.00000000000E+00 -0.96650457178E+01  0.96650460675E+01  0.26000000000E-02 0.  1.
        -13    1    1    2    0    0  0.14745708464E+02 -0.14612750190E+02  0.24027199236E+02  0.31753517314E+02  0.10570000000E+00 0. -1.
         13    1    1    2    0    0 -0.14745708464E+02  0.14612750190E+02  0.12768776710E+02  0.24372550490E+02  0.10570000000E+00 0.  1.
<mgrwt>
<rscale>  0 0.42381501E+02</rscale>
<asrwt>0</asrwt>
<pdfrwt beam="1">  1        2 0.71478496E-02 0.42381501E+02</pdfrwt>
<pdfrwt beam="2">  1       -2 0.14869301E-02 0.42381501E+02</pdfrwt>
<totfact> 0.77087020E+05</totfact>
</mgrwt>
</event>
<event>
 4    1  0.3704929E-001  0.3128425E+02  0.7818608E-02  0.1584312E+00
          2   -1    0    0  501    0  0.00000000000E+00  0.00000000000E+00  0.10972242520E+02  0.10972242828E+02  0.26000000000E-02 0.  1.
         -2   -1    0    0    0  501 -0.00000000000E+00 -0.00000000000E+00 -0.22299545241E+02  0.22299545392E+02  0.26000000000E-02 0. -1.
        -13    1    1    2    0    0 -0.14355683707E+01  0.12288104157E+02  0.45155467670E+01  0.13170409843E+02  0.10570000000E+00 0.  1.
         13    1    1    2    0    0  0.14355683707E+01 -0.12288104157E+02 -0.15842849488E+02  0.20101378378E+02  0.10570000000E+00 0. -1.
<mgrwt>
<rscale>  0 0.31284247E+02</rscale>
<asrwt>0</asrwt>
<pdfrwt beam="1">  1        2 0.16880373E-02 0.31284247E+02</pdfrwt>
<pdfrwt beam="2">  1       -2 0.34306993E-02 0.31284247E+02</pdfrwt>
<totfact> 0.13661228E+06</totfact>
</mgrwt>
</event>
<event>
 4    1  0.3704929E-001  0.2619307E+02  0.7818608E-02  0.1644434E+00
          2   -1    0    0  501    0  0.00000000000E+00  0.00000000000E+00  0.36051266381E+01  0.36051275756E+01  0.26000000000E-02 0. -1.
         -2   -1    0    0    0  501 -0.00000000000E+00 -0.00000000000E+00 -0.47576471633E+02  0.47576471704E+02  0.26000000000E-02 0.  1.
        -13    1    1    2    0    0 -0.57754422777E+01 -0.10235992615E+02 -0.10696823454E+02  0.15892277459E+02  0.10570000000E+00 0. -1.
         13    1    1    2    0    0  0.57754422777E+01  0.10235992615E+02 -0.33274521541E+02  0.35289321821E+02  0.10570000000E+00 0.  1.
<mgrwt>
<rscale>  0 0.26193070E+02</rscale>
<asrwt>0</asrwt>
<pdfrwt beam="1">  1        2 0.55463498E-03 0.26193070E+02</pdfrwt>
<pdfrwt beam="2">  1       -2 0.73194568E-02 0.26193070E+02</pdfrwt>
<totfact> 0.18705825E+06</totfact>
</mgrwt>
</event>
<event>
 4    1  0.3704929E-001  0.4088843E+02  0.7818608E-02  0.1501774E+00
         -2   -1    0    0    0  501 -0.00000000000E+00  0.00000000000E+00  0.29271513405E+02  0.29271513521E+02  0.26000000000E-02 0. -1.
          2   -1    0    0  501    0  0.00000000000E+00 -0.00000000000E+00 -0.14278927644E+02  0.14278927880E+02  0.26000000000E-02 0.  1.
        -13    1    1    2    0    0  0.15895013164E+02 -0.12733507478E+02  0.56026220562E+01  0.21123309461E+02  0.10570000000E+00 0.  1.
         13    1    1    2    0    0 -0.15895013164E+02  0.12733507478E+02  0.93899637056E+01  0.22427131940E+02  0.10570000000E+00 0. -1.
<mgrwt>
<rscale>  0 0.40888425E+02</rscale>
<asrwt>0</asrwt>
<pdfrwt beam="2">  1        2 0.21967581E-02 0.40888425E+02</pdfrwt>
<pdfrwt beam="1">  1       -2 0.45033098E-02 0.40888425E+02</pdfrwt>
<totfact> 0.71256225E+05</totfact>
</mgrwt>
</event>
<event>
 4    1  0.3704929E-001  0.2419014E+02  0.7818608E-02  0.1672914E+00
          2   -1    0    0  501    0  0.00000000000E+00  0.00000000000E+00  0.10424263922E+03  0.10424263925E+03  0.26000000000E-02 0.  1.
         -2   -1    0    0    0  501 -0.00000000000E+00 -0.00000000000E+00 -0.14033663947E+01  0.14033688032E+01  0.26000000000E-02 0. -1.
        -13    1    1    2    0    0 -0.11937099009E+02  0.18390516055E+01  0.54192554483E+02  0.55522252993E+02  0.10570000000E+00 0. -1.
         13    1    1    2    0    0  0.11937099009E+02 -0.18390516055E+01  0.48646718338E+02  0.50123755058E+02  0.10570000000E+00 0.  1.
<mgrwt>
<rscale>  0 0.24190142E+02</rscale>
<asrwt>0</asrwt>
<pdfrwt beam="1">  1        2 0.16037331E-01 0.24190142E+02</pdfrwt>
<pdfrwt beam="2">  1       -2 0.21590269E-03 0.24190142E+02</pdfrwt>
<totfact> 0.34769235E+06</totfact>
</mgrwt>
</event>
<event>
 4    1  0.3704929E-001  0.2949037E+02  0.7818608E-02  0.1603791E+00
         -2   -1    0    0    0  501 -0.00000000000E+00  0.00000000000E+00  0.86805828110E+02  0.86805828149E+02  0.26000000000E-02 0. -1.
          2   -1    0    0  501    0  0.00000000000E+00 -0.00000000000E+00 -0.25046760027E+01  0.25046773521E+01  0.26000000000E-02 0.  1.
        -13    1    1    2    0    0  0.12796557320E+02 -0.73251122937E+01  0.42194951610E+02  0.44697139318E+02  0.10570000000E+00 0.  1.
         13    1    1    2    0    0 -0.12796557320E+02  0.73251122937E+01  0.42106200498E+02  0.44613366184E+02  0.10570000000E+00 0. -1.
<mgrwt>
<rscale>  0 0.29490374E+02</rscale>
<asrwt>0</asrwt>
<pdfrwt beam="2">  1        2 0.38533485E-03 0.29490374E+02</pdfrwt>
<pdfrwt beam="1">  1       -2 0.13354744E-01 0.29490374E+02</pdfrwt>
<totfact> 0.12822123E+06</totfact>
</mgrwt>
</event>
<event>
 4    1  0.3704929E-001  0.2669027E+02  0.7818608E-02  0.1637847E+00
         -2   -1    0    0    0  501 -0.00000000000E+00  0.00000000000E+00  0.24235558344E+01  0.24235572291E+01  0.26000000000E-02 0.  1.
          2   -1    0    0  501    0  0.00000000000E+00 -0.00000000000E+00 -0.73483978894E+02  0.73483978940E+02  0.26000000000E-02 0. -1.
        -13    1    1    2    0    0 -0.12443608849E+02 -0.11140043403E+01 -0.48868918278E+02  0.50440725144E+02  0.10570000000E+00 0. -1.
         13    1    1    2    0    0  0.12443608849E+02  0.11140043403E+01 -0.22191504782E+02  0.25466811026E+02  0.10570000000E+00 0.  1.
<mgrwt>
<rscale>  0 0.26690266E+02</rscale>
<asrwt>0</asrwt>
<pdfrwt beam="2">  1        2 0.11305226E-01 0.26690266E+02</pdfrwt>
<pdfrwt beam="1">  1       -2 0.37285491E-03 0.26690266E+02</pdfrwt>
<totfact> 0.25675113E+06</totfact>
</mgrwt>
</event>
<event>
 4    1  0.3704929E-001  0.3777765E+02  0.7818608E-02  0.1525233E+00
         -2   -1    0    0    0  501 -0.00000000000E+00  0.00000000000E+00  0.32694978641E+01  0.32694988979E+01  0.26000000000E-02 0.  1.
          2   -1    0    0  501    0  0.00000000000E+00 -0.00000000000E+00 -0.10912610285E+03  0.10912610289E+03  0.26000000000E-02 0. -1.
        -13    1    1    2    0    0  0.98208444360E+01 -0.15459563666E+02 -0.66668825942E+02  0.69138922606E+02  0.10570000000E+00 0.  1.
         13    1    1    2    0    0 -0.98208444360E+01  0.15459563666E+02 -0.39187779049E+02  0.43256679177E+02  0.10570000000E+00 0. -1.
<mgrwt>
<rscale>  0 0.37777645E+02</rscale>
<asrwt>0</asrwt>
<pdfrwt beam="2">  1        2 0.16788629E-01 0.37777645E+02</pdfrwt>
<pdfrwt beam="1">  1       -2 0.50299984E-03 0.37777645E+02</pdfrwt>
<totfact> 0.12286860E+06</totfact>
</mgrwt>
</event>
<event>
 4    1  0.3704929E-001  0.9231019E+02  0.7818608E-02  0.1297352E+00
         -2   -1    0    0    0  501 -0.00000000000E+00  0.00000000000E+00  0.47637540531E+02  0.47637540602E+02  0.26000000000E-02 0.  1.
          2   -1    0    0  501    0  0.00000000000E+00 -0.00000000000E+00 -0.44718778986E+02  0.44718779061E+02  0.26000000000E-02 0. -1.
        -13    1    1    2    0    0 -0.38981219681E+02 -0.24557078557E+02  0.42349130995E+01  0.46265875724E+02  0.10570000000E+00 0. -1.
         13    1    1    2    0    0  0.38981219681E+02  0.24557078557E+02 -0.13161515539E+01  0.46090443939E+02  0.10570000000E+00 0.  1.
<mgrwt>
<rscale>  0 0.92310187E+02</rscale>
<asrwt>0</asrwt>
<pdfrwt beam="2">  1        2 0.68798122E-02 0.92310187E+02</pdfrwt>
<pdfrwt beam="1">  1       -2 0.73288524E-02 0.92310187E+02</pdfrwt>
<totfact> 0.94751078E+04</totfact>
</mgrwt>
</event>
<event>
 4    1  0.3704929E-001  0.3905314E+02  0.7818608E-02  0.1515297E+00
         -2   -1    0    0    0  501 -0.00000000000E+00  0.00000000000E+00  0.52941181874E+01  0.52941188258E+01  0.26000000000E-02 0.  1.
          2   -1    0    0  501    0  0.00000000000E+00 -0.00000000000E+00 -0.72020838447E+02  0.72020838494E+02  0.26000000000E-02 0. -1.
        -13    1    1    2    0    0  0.13338420217E+00  0.17090133324E+02 -0.14667128035E+02  0.22521684344E+02  0.10570000000E+00 0.  1.
         13    1    1    2    0    0 -0.13338420217E+00 -0.17090133324E+02 -0.52059592225E+02  0.54793272976E+02  0.10570000000E+00 0. -1.
<mgrwt>
<rscale>  0 0.39053136E+02</rscale>
<asrwt>0</asrwt>
<pdfrwt beam="2">  1        2 0.11080128E-01 0.39053136E+02</pdfrwt>
<pdfrwt beam="1">  1       -2 0.81447982E-03 0.39053136E+02</pdfrwt>
<totfact> 0.10273514E+06</totfact>
</mgrwt>
</event>
<event>
 4    1  0.3704929E-001  0.2832850E+02  0.7818608E-02  0.1617335E+00
         -2   -1    0    0    0  501 -0.00000000000E+00  0.00000000000E+00  0.13188069984E+02  0.13188070241E+02  0.26000000000E-02 0.  1.
          2   -1    0    0  501    0  0.00000000000E+00 -0.00000000000E+00 -0.15212681753E+02  0.15212681975E+02  0.26000000000E-02 0. -1.
        -13    1    1    2    0    0  0.94903127436E+01  0.91695286922E+01 -0.61701784967E+01  0.14568066707E+02  0.10570000000E+00 0.  1.
         13    1    1    2    0    0 -0.94903127436E+01 -0.91695286922E+01  0.41455667279E+01  0.13832685509E+02  0.10570000000E+00 0. -1.
<mgrwt>
<rscale>  0 0.28328496E+02</rscale>
<asrwt>0</asrwt>
<pdfrwt beam="2">  1        2 0.23404126E-02 0.28328496E+02</pdfrwt>
<pdfrwt beam="1">  1       -2 0.20289339E-02 0.28328496E+02</pdfrwt>
<totfact> 0.18023543E+06</totfact>
</mgrwt>
</event>
<event>
 4    1  0.3704929E-001  0.2293146E+02  0.7818608E-02  0.1692623E+00
         -2   -1    0    0    0  501 -0.00000000000E+00  0.00000000000E+00  0.42181515212E+01  0.42181523225E+01  0.26000000000E-02 0. -1.
          2   -1    0    0  501    0  0.00000000000E+00 -0.00000000000E+00 -0.31166018037E+02  0.31166018146E+02  0.26000000000E-02 0.  1.
        -13    1    1    2    0    0 -0.87728241773E+01 -0.68964636688E+01 -0.94124312869E+01  0.14598927714E+02  0.10570000000E+00 0. -1.
         13    1    1    2    0    0  0.87728241773E+01  0.68964636688E+01 -0.17535435229E+02  0.20785242754E+02  0.10570000000E+00 0.  1.
<mgrwt>
<rscale>  0 0.22931463E+02</rscale>
<asrwt>0</asrwt>
<pdfrwt beam="2">  1        2 0.47947719E-02 0.22931463E+02</pdfrwt>
<pdfrwt beam="1">  1       -2 0.64894648E-03 0.22931463E+02</pdfrwt>
<totfact> 0.31931000E+06</totfact>
</mgrwt>
</event>
<event>
 4    1  0.3704929E-001  0.2256178E+02  0.7818608E-02  0.1698714E+00
         -2   -1    0    0    0  501 -0.00000000000E+00  0.00000000000E+00  0.55052428666E+01  0.55052434805E+01  0.26000000000E-02 0. -1.
          2   -1    0    0  501    0  0.00000000000E+00 -0.00000000000E+00 -0.23115861117E+02  0.23115861264E+02  0.26000000000E-02 0.  1.
        -13    1    1    2    0    0  0.57733459126E+01  0.85424171391E+01 -0.29999240131E+01  0.10738488263E+02  0.10570000000E+00 0. -1.
         13    1    1    2    0    0 -0.57733459126E+01 -0.85424171391E+01 -0.14610694238E+02  0.17882616481E+02  0.10570000000E+00 0.  1.
<mgrwt>
<rscale>  0 0.22561777E+02</rscale>
<asrwt>0</asrwt>
<pdfrwt beam="2">  1        2 0.35562863E-02 0.22561777E+02</pdfrwt>
<pdfrwt beam="1">  1       -2 0.84696052E-03 0.22561777E+02</pdfrwt>
<totfact> 0.32099196E+06</totfact>
</mgrwt>
</event>
<event>
 4    1  0.3704929E-001  0.5616026E+02  0.7818608E-02  0.1414690E+00
         -2   -1    0    0    0  501 -0.00000000000E+00  0.00000000000E+00  0.53177073866E+01  0.53177080222E+01  0.26000000000E-02 0.  1.
          2   -1    0    0  501    0  0.00000000000E+00 -0.00000000000E+00 -0.14827697841E+03  0.14827697843E+03  0.26000000000E-02 0. -1.
        -13    1    1    2    0    0  0.22038078167E+02  0.13420657531E+02 -0.41185791828E+02  0.48601147711E+02  0.10570000000E+00 0. -1.
         13    1    1    2    0    0 -0.22038078167E+02 -0.13420657531E+02 -0.10177347920E+03  0.10499353875E+03  0.10570000000E+00 0.  1.
<mgrwt>
<rscale>  0 0.56160258E+02</rscale>
<asrwt>0</asrwt>
<pdfrwt beam="2">  1        2 0.22811840E-01 0.56160258E+02</pdfrwt>
<pdfrwt beam="1">  1       -2 0.81810899E-03 0.56160258E+02</pdfrwt>
<totfact> 0.49853354E+05</totfact>
</mgrwt>
</event>
<event>
 4    1  0.3704929E-001  0.3120088E+02  0.7818608E-02  0.1585182E+00
          2   -1    0    0  501    0  0.00000000000E+00  0.00000000000E+00  0.50940988383E+01  0.50940995018E+01  0.26000000000E-02 0.  1.
         -2   -1    0    0    0  501 -0.00000000000E+00 -0.00000000000E+00 -0.47775600781E+02  0.47775600852E+02  0.26000000000E-02 0. -1.
        -13    1    1    2    0    0  0.11739169873E+02 -0.49870085226E+01 -0.36561432414E+02  0.38722446668E+02  0.10570000000E+00 0. -1.
         13    1    1    2    0    0 -0.11739169873E+02  0.49870085226E+01 -0.61200695287E+01  0.14147253685E+02  0.10570000000E+00 0.  1.
<mgrwt>
<rscale>  0 0.31200875E+02</rscale>
<asrwt>0</asrwt>
<pdfrwt beam="1">  1        2 0.78370760E-03 0.31200875E+02</pdfrwt>
<pdfrwt beam="2">  1       -2 0.73500922E-02 0.31200875E+02</pdfrwt>
<totfact> 0.12515139E+06</totfact>
</mgrwt>
</event>
<event>
 4    1  0.3704929E-001  0.3973721E+02  0.7818608E-02  0.1510154E+00
          2   -1    0    0  501    0  0.00000000000E+00  0.00000000000E+00  0.49489624225E+01  0.49489631055E+01  0.26000000000E-02 0.  1.
         -2   -1    0    0    0  501 -0.00000000000E+00 -0.00000000000E+00 -0.79766486286E+02  0.79766486329E+02  0.26000000000E-02 0. -1.
        -13    1    1    2    0    0 -0.91401729449E+01  0.15383994734E+02 -0.55814804290E+02  0.58613254524E+02  0.10570000000E+00 0. -1.
         13    1    1    2    0    0  0.91401729449E+01 -0.15383994734E+02 -0.19002719574E+02  0.26102194910E+02  0.10570000000E+00 0.  1.
<mgrwt>
<rscale>  0 0.39737205E+02</rscale>
<asrwt>0</asrwt>
<pdfrwt beam="1">  1        2 0.76137895E-03 0.39737205E+02</pdfrwt>
<pdfrwt beam="2">  1       -2 0.12271766E-01 0.39737205E+02</pdfrwt>
<totfact> 0.64746197E+05</totfact>
</mgrwt>
</event>
<event>
 4    1  0.3704929E-001  0.6757910E+02  0.7818608E-02  0.1368524E+00
          2   -1    0    0  501    0  0.00000000000E+00  0.00000000000E+00  0.67742666180E+01  0.67742671170E+01  0.26000000000E-02 0. -1.
         -2   -1    0    0    0  501 -0.00000000000E+00 -0.00000000000E+00 -0.16853980469E+03  0.16853980471E+03  0.26000000000E-02 0.  1.
        -13    1    1    2    0    0 -0.14127808123E+02  0.22241873144E+02 -0.26008939698E+02  0.37023938203E+02  0.10570000000E+00 0. -1.
         13    1    1    2    0    0  0.14127808123E+02 -0.22241873144E+02 -0.13575659837E+03  0.13829013362E+03  0.10570000000E+00 0.  1.
<mgrwt>
<rscale>  0 0.67579098E+02</rscale>
<asrwt>0</asrwt>
<pdfrwt beam="1">  1        2 0.10421950E-02 0.67579098E+02</pdfrwt>
<pdfrwt beam="2">  1       -2 0.25929198E-01 0.67579098E+02</pdfrwt>
<totfact> 0.14253379E+05</totfact>
</mgrwt>
</event>
<event>
 4    1  0.3704929E-001  0.3731250E+02  0.7818608E-02  0.1528974E+00
         -2   -1    0    0    0  501 -0.00000000000E+00  0.00000000000E+00  0.56244996471E+01  0.56245002480E+01  0.26000000000E-02 0.  1.
          2   -1    0    0  501    0  0.00000000000E+00 -0.00000000000E+00 -0.61882070374E+02  0.61882070429E+02  0.26000000000E-02 0. -1.
        -13    1    1    2    0    0  0.73695308943E+01  0.12746061905E+02 -0.48857791142E+02  0.51028100175E+02  0.10570000000E+00 0. -1.
         13    1    1    2    0    0 -0.73695308943E+01 -0.12746061905E+02 -0.73997795853E+01  0.16478470502E+02  0.10570000000E+00 0.  1.
<mgrwt>
<rscale>  0 0.37312502E+02</rscale>
<asrwt>0</asrwt>
<pdfrwt beam="2">  1        2 0.95203181E-02 0.37312502E+02</pdfrwt>
<pdfrwt beam="1">  1       -2 0.86530773E-03 0.37312502E+02</pdfrwt>
<totfact> 0.11144476E+06</totfact>
</mgrwt>
</event>
<event>
 4    1  0.3704929E-001  0.5898004E+02  0.7818608E-02  0.1402163E+00
         -2   -1    0    0    0  501 -0.00000000000E+00  0.00000000000E+00  0.59249029499E+01  0.59249035204E+01  0.26000000000E-02 0. -1.
          2   -1    0    0  501    0  0.00000000000E+00 -0.00000000000E+00 -0.14678068120E+03  0.14678068122E+03  0.26000000000E-02 0.  1.
        -13    1    1    2    0    0 -0.29623198069E+01  0.29201877953E+02 -0.77808044699E+02  0.83160254972E+02  0.10570000000E+00 0.  1.
         13    1    1    2    0    0  0.29623198069E+01 -0.29201877953E+02 -0.63047733552E+02  0.69545329773E+02  0.10570000000E+00 0. -1.
<mgrwt>
<rscale>  0 0.58980042E+02</rscale>
<asrwt>0</asrwt>
<pdfrwt beam="2">  1        2 0.22581641E-01 0.58980042E+02</pdfrwt>
<pdfrwt beam="1">  1       -2 0.91152368E-03 0.58980042E+02</pdfrwt>
<totfact> 0.43838951E+05</totfact>
</mgrwt>
</event>
<event>
 4    1  0.3704929E-001  0.1363416E+03  0.7818608E-02  0.1218338E+00
          2   -1    0    0  501    0  0.00000000000E+00  0.00000000000E+00  0.36178494376E+03  0.36178494377E+03  0.26000000000E-02 0. -1.
         -2   -1    0    0    0  501 -0.00000000000E+00 -0.00000000000E+00 -0.12845357483E+02  0.12845357746E+02  0.26000000000E-02 0.  1.
        -13    1    1    2    0    0 -0.30347147697E+02  0.54165284591E+02  0.97121304302E+02  0.11527092587E+03  0.10570000000E+00 0.  1.
         13    1    1    2    0    0  0.30347147697E+02 -0.54165284591E+02  0.25181828198E+03  0.25935937565E+03  0.10570000000E+00 0. -1.
<mgrwt>
<rscale>  0 0.13634159E+03</rscale>
<asrwt>0</asrwt>
<pdfrwt beam="1">  1        2 0.55659213E-01 0.13634159E+03</pdfrwt>
<pdfrwt beam="2">  1       -2 0.19762092E-02 0.13634159E+03</pdfrwt>
<totfact> 0.64443465E+04</totfact>
</mgrwt>
</event>
<event>
 4    1  0.3704929E-001  0.4672050E+02  0.7818608E-02  0.1463878E+00
          2   -1    0    0  501    0  0.00000000000E+00  0.00000000000E+00  0.93975111870E+02  0.93975111906E+02  0.26000000000E-02 0. -1.
         -2   -1    0    0    0  501 -0.00000000000E+00 -0.00000000000E+00 -0.58068698419E+01  0.58068704239E+01  0.26000000000E-02 0.  1.
        -13    1    1    2    0    0  0.13784614409E+02  0.18076235271E+02  0.32597943691E+02  0.39741703302E+02  0.10570000000E+00 0.  1.
         13    1    1    2    0    0 -0.13784614409E+02 -0.18076235271E+02  0.55570298338E+02  0.60040279028E+02  0.10570000000E+00 0. -1.
<mgrwt>
<rscale>  0 0.46720500E+02</rscale>
<asrwt>0</asrwt>
<pdfrwt beam="1">  1        2 0.14457709E-01 0.46720500E+02</pdfrwt>
<pdfrwt beam="2">  1       -2 0.89336464E-03 0.46720500E+02</pdfrwt>
<totfact> 0.69930256E+05</totfact>
</mgrwt>
</event>
<event>
 4    1  0.3704929E-001  0.3698520E+02  0.7818608E-02  0.1531647E+00
         -2   -1    0    0    0  501 -0.00000000000E+00  0.00000000000E+00  0.39103864142E+02  0.39103864229E+02  0.26000000000E-02 0. -1.
          2   -1    0    0  501    0  0.00000000000E+00 -0.00000000000E+00 -0.87453293181E+01  0.87453297045E+01  0.26000000000E-02 0.  1.
        -13    1    1    2    0    0 -0.66932861453E+01 -0.14070561637E+02  0.28063780225E+02  0.32099341383E+02  0.10570000000E+00 0. -1.
         13    1    1    2    0    0  0.66932861453E+01  0.14070561637E+02  0.22947545988E+01  0.15749852550E+02  0.10570000000E+00 0.  1.
<mgrwt>
<rscale>  0 0.36985196E+02</rscale>
<asrwt>0</asrwt>
<pdfrwt beam="2">  1        2 0.13454353E-02 0.36985196E+02</pdfrwt>
<pdfrwt beam="1">  1       -2 0.60159791E-02 0.36985196E+02</pdfrwt>
<totfact> 0.86632575E+05</totfact>
</mgrwt>
</event>
<event>
 4    1  0.3704929E-001  0.3753895E+02  0.7818608E-02  0.1527145E+00
         -2   -1    0    0    0  501 -0.00000000000E+00  0.00000000000E+00  0.18307659541E+02  0.18307659726E+02  0.26000000000E-02 0. -1.
          2   -1    0    0  501    0  0.00000000000E+00 -0.00000000000E+00 -0.19242942924E+02  0.19242943100E+02  0.26000000000E-02 0.  1.
        -13    1    1    2    0    0 -0.65772336027E+01 -0.88570540433E+01  0.14721756082E+02  0.18396974828E+02  0.10570000000E+00 0. -1.
         13    1    1    2    0    0  0.65772336027E+01  0.88570540433E+01 -0.15657039465E+02  0.19153627998E+02  0.10570000000E+00 0.  1.
<mgrwt>
<rscale>  0 0.37538953E+02</rscale>
<asrwt>0</asrwt>
<pdfrwt beam="2">  1        2 0.29604528E-02 0.37538953E+02</pdfrwt>
<pdfrwt beam="1">  1       -2 0.28165630E-02 0.37538953E+02</pdfrwt>
<totfact> 0.92186852E+05</totfact>
</mgrwt>
</event>
<event>
 4    1  0.3704929E-001  0.3853281E+02  0.7818608E-02  0.1519295E+00
         -2   -1    0    0    0  501 -0.00000000000E+00  0.00000000000E+00  0.22318037289E+02  0.22318037441E+02  0.26000000000E-02 0. -1.
          2   -1    0    0  501    0  0.00000000000E+00 -0.00000000000E+00 -0.16632030497E+02  0.16632030700E+02  0.26000000000E-02 0.  1.
        -13    1    1    2    0    0  0.13879957326E+02  0.27414304038E+00  0.16346356740E+02  0.21446279886E+02  0.10570000000E+00 0. -1.
         13    1    1    2    0    0 -0.13879957326E+02 -0.27414304038E+00 -0.10660349947E+02  0.17503788255E+02  0.10570000000E+00 0.  1.
<mgrwt>
<rscale>  0 0.38532806E+02</rscale>
<asrwt>0</asrwt>
<pdfrwt beam="2">  1        2 0.25587740E-02 0.38532806E+02</pdfrwt>
<pdfrwt beam="1">  1       -2 0.34335442E-02 0.38532806E+02</pdfrwt>
<totfact> 0.84704652E+05</totfact>
</mgrwt>
</event>
<event>
 4    1  0.3704929E-001  0.7101923E+02  0.7818608E-02  0.1356661E+00
          2   -1    0    0  501    0  0.00000000000E+00  0.00000000000E+00  0.90858573897E+02  0.90858573934E+02  0.26000000000E-02 0.  1.
         -2   -1    0    0    0  501 -0.00000000000E+00 -0.00000000000E+00 -0.13877972219E+02  0.13877972463E+02  0.26000000000E-02 0. -1.
        -13    1    1    2    0    0  0.29460441984E+01  0.26438553101E+02  0.73178453240E+02  0.77863813531E+02  0.10570000000E+00 0.  1.
         13    1    1    2    0    0 -0.29460441984E+01 -0.26438553101E+02  0.38021484383E+01  0.26872732866E+02  0.10570000000E+00 0. -1.
<mgrwt>
<rscale>  0 0.71019231E+02</rscale>
<asrwt>0</asrwt>
<pdfrwt beam="1">  1        2 0.13978242E-01 0.71019231E+02</pdfrwt>
<pdfrwt beam="2">  1       -2 0.21350727E-02 0.71019231E+02</pdfrwt>
<totfact> 0.23469047E+05</totfact>
</mgrwt>
</event>
<event>
 4    1  0.3704929E-001  0.2486270E+02  0.7818608E-02  0.1662982E+00
         -2   -1    0    0    0  501 -0.00000000000E+00  0.00000000000E+00  0.55980850071E+02  0.55980850131E+02  0.26000000000E-02 0.  1.
          2   -1    0    0  501    0  0.00000000000E+00 -0.00000000000E+00 -0.27605598452E+01  0.27605610696E+01  0.26000000000E-02 0. -1.
        -13    1    1    2    0    0 -0.12436322591E+01 -0.10914465877E+02  0.12863128111E+02  0.16915774409E+02  0.10570000000E+00 0. -1.
         13    1    1    2    0    0  0.12436322591E+01  0.10914465877E+02  0.40357162115E+02  0.41825636791E+02  0.10570000000E+00 0.  1.
<mgrwt>
<rscale>  0 0.24862705E+02</rscale>
<asrwt>0</asrwt>
<pdfrwt beam="2">  1        2 0.42470163E-03 0.24862705E+02</pdfrwt>
<pdfrwt beam="1">  1       -2 0.86124382E-02 0.24862705E+02</pdfrwt>
<totfact> 0.20546164E+06</totfact>
</mgrwt>
</event>
<event>
 4    1  0.3704929E-001  0.3083199E+02  0.7818608E-02  0.1589070E+00
         -2   -1    0    0    0  501 -0.00000000000E+00  0.00000000000E+00  0.63822481113E+01  0.63822486409E+01  0.26000000000E-02 0. -1.
          2   -1    0    0  501    0  0.00000000000E+00 -0.00000000000E+00 -0.37236546173E+02  0.37236546264E+02  0.26000000000E-02 0.  1.
        -13    1    1    2    0    0 -0.13412829227E+02 -0.44749673809E+01 -0.24115036427E+02  0.27954882852E+02  0.10570000000E+00 0.  1.
         13    1    1    2    0    0  0.13412829227E+02  0.44749673809E+01 -0.67392616356E+01  0.15663912053E+02  0.10570000000E+00 0. -1.
<mgrwt>
<rscale>  0 0.30831989E+02</rscale>
<asrwt>0</asrwt>
<pdfrwt beam="2">  1        2 0.57286993E-02 0.30831989E+02</pdfrwt>
<pdfrwt beam="1">  1       -2 0.98188439E-03 0.30831989E+02</pdfrwt>
<totfact> 0.16286335E+06</totfact>
</mgrwt>
</event>
<event>
 4    1  0.3704929E-001  0.2113480E+02  0.7818608E-02  0.1723659E+00
         -2   -1    0    0    0  501 -0.00000000000E+00  0.00000000000E+00  0.23974305644E+02  0.23974305785E+02  0.26000000000E-02 0. -1.
          2   -1    0    0  501    0  0.00000000000E+00 -0.00000000000E+00 -0.46579010244E+01  0.46579017501E+01  0.26000000000E-02 0.  1.
        -13    1    1    2    0    0 -0.28052668632E+01  0.10009370702E+02  0.12229272741E+02  0.16050648221E+02  0.10570000000E+00 0.  1.
         13    1    1    2    0    0  0.28052668632E+01 -0.10009370702E+02  0.70871318786E+01  0.12581559315E+02  0.10570000000E+00 0. -1.
<mgrwt>
<rscale>  0 0.21134801E+02</rscale>
<asrwt>0</asrwt>
<pdfrwt beam="2">  1        2 0.71660023E-03 0.21134801E+02</pdfrwt>
<pdfrwt beam="1">  1       -2 0.36883548E-02 0.21134801E+02</pdfrwt>
<totfact> 0.32661217E+06</totfact>
</mgrwt>
</event>
<event>
 4    1  0.3704929E-001  0.3807275E+02  0.7818608E-02  0.1522893E+00
          2   -1    0    0  501    0  0.00000000000E+00  0.00000000000E+00  0.27682800259E+02  0.27682800381E+02  0.26000000000E-02 0. -1.
         -2   -1    0    0    0  501 -0.00000000000E+00 -0.00000000000E+00 -0.13090568190E+02  0.13090568448E+02  0.26000000000E-02 0.  1.
        -13    1    1    2    0    0  0.11203908863E+01 -0.10026025896E+02  0.24584172292E+02  0.26573843734E+02  0.10570000000E+00 0. -1.
         13    1    1    2    0    0 -0.11203908863E+01  0.10026025896E+02 -0.99919402237E+01  0.14199525095E+02  0.10570000000E+00 0.  1.
<mgrwt>
<rscale>  0 0.38072751E+02</rscale>
<asrwt>0</asrwt>
<pdfrwt beam="1">  1        2 0.42588924E-02 0.38072751E+02</pdfrwt>
<pdfrwt beam="2">  1       -2 0.20139336E-02 0.38072751E+02</pdfrwt>
<totfact> 0.93220844E+05</totfact>
</mgrwt>
</event>
<event>
 4    1  0.3704929E-001  0.2645730E+02  0.7818608E-02  0.1640911E+00
         -2   -1    0    0    0  501 -0.00000000000E+00  0.00000000000E+00  0.33655038125E+01  0.33655048168E+01  0.26000000000E-02 0.  1.
          2   -1    0    0  501    0  0.00000000000E+00 -0.00000000000E+00 -0.51997330693E+02  0.51997330758E+02  0.26000000000E-02 0. -1.
        -13    1    1    2    0    0  0.12890188436E+02  0.23226961017E+01 -0.20438114312E+02  0.24275081137E+02  0.10570000000E+00 0. -1.
         13    1    1    2    0    0 -0.12890188436E+02 -0.23226961017E+01 -0.28193712568E+02  0.31087754437E+02  0.10570000000E+00 0.  1.
<mgrwt>
<rscale>  0 0.26457305E+02</rscale>
<asrwt>0</asrwt>
<pdfrwt beam="2">  1        2 0.79995888E-02 0.26457305E+02</pdfrwt>
<pdfrwt beam="1">  1       -2 0.51776994E-03 0.26457305E+02</pdfrwt>
<totfact> 0.24611834E+06</totfact>
</mgrwt>
</event>
<event>
 4    1  0.3704929E-001  0.2306219E+02  0.7818608E-02  0.1690504E+00
         -2   -1    0    0    0  501 -0.00000000000E+00  0.00000000000E+00  0.34764794319E+02  0.34764794416E+02  0.26000000000E-02 0. -1.
          2   -1    0    0  501    0  0.00000000000E+00 -0.00000000000E+00 -0.38247348247E+01  0.38247357084E+01  0.26000000000E-02 0.  1.
        -13    1    1    2    0    0  0.24270741347E-01 -0.10017154020E+02  0.59145820500E+01  0.11633461095E+02  0.10570000000E+00 0.  1.
         13    1    1    2    0    0 -0.24270741347E-01  0.10017154020E+02  0.25025477445E+02  0.26956069030E+02  0.10570000000E+00 0. -1.
<mgrwt>
<rscale>  0 0.23062189E+02</rscale>
<asrwt>0</asrwt>
<pdfrwt beam="2">  1        2 0.58842080E-03 0.23062189E+02</pdfrwt>
<pdfrwt beam="1">  1       -2 0.53484301E-02 0.23062189E+02</pdfrwt>
<totfact> 0.25923697E+06</totfact>
</mgrwt>
</event>
<event>
 4    1  0.3704929E-001  0.2249753E+02  0.7818608E-02  0.1699787E+00
          2   -1    0    0  501    0  0.00000000000E+00  0.00000000000E+00  0.32132236046E+02  0.32132236151E+02  0.26000000000E-02 0. -1.
         -2   -1    0    0    0  501 -0.00000000000E+00 -0.00000000000E+00 -0.39379366488E+01  0.39379375071E+01  0.26000000000E-02 0.  1.
        -13    1    1    2    0    0 -0.10695002644E+02 -0.34811752098E+01  0.14334374568E+02  0.18220513965E+02  0.10570000000E+00 0. -1.
         13    1    1    2    0    0  0.10695002644E+02  0.34811752098E+01  0.13859924829E+02  0.17849659693E+02  0.10570000000E+00 0.  1.
<mgrwt>
<rscale>  0 0.22497531E+02</rscale>
<asrwt>0</asrwt>
<pdfrwt beam="1">  1        2 0.49434211E-02 0.22497531E+02</pdfrwt>
<pdfrwt beam="2">  1       -2 0.60583647E-03 0.22497531E+02</pdfrwt>
<totfact> 0.33479848E+06</totfact>
</mgrwt>
</event>
<event>
 4    1  0.3704929E-001  0.2303003E+02  0.7818608E-02  0.1691024E+00
         -2   -1    0    0    0  501 -0.00000000000E+00  0.00000000000E+00  0.49144340159E+02  0.49144340228E+02  0.26000000000E-02 0.  1.
          2   -1    0    0  501    0  0.00000000000E+00 -0.00000000000E+00 -0.26980834030E+01  0.26980846558E+01  0.26000000000E-02 0. -1.
        -13    1    1    2    0    0  0.10216728968E+02 -0.13625109304E+01  0.11668619649E+02  0.15569388037E+02  0.10570000000E+00 0. -1.
         13    1    1    2    0    0 -0.10216728968E+02  0.13625109304E+01  0.34777637107E+02  0.36273036847E+02  0.10570000000E+00 0.  1.
<mgrwt>
<rscale>  0 0.23030029E+02</rscale>
<asrwt>0</asrwt>
<pdfrwt beam="2">  1        2 0.41508988E-03 0.23030029E+02</pdfrwt>
<pdfrwt beam="1">  1       -2 0.75606674E-02 0.23030029E+02</pdfrwt>
<totfact> 0.24879866E+06</totfact>
</mgrwt>
</event>
<event>
 4    1  0.3704929E-001  0.2191733E+02  0.7818608E-02  0.1709686E+00
          2   -1    0    0  501    0  0.00000000000E+00  0.00000000000E+00  0.48747727307E+01  0.48747734240E+01  0.26000000000E-02 0. -1.
         -2   -1    0    0    0  501 -0.00000000000E+00 -0.00000000000E+00 -0.24635473888E+02  0.24635474025E+02  0.26000000000E-02 0.  1.
        -13    1    1    2    0    0 -0.65698093655E+01 -0.80514803387E+01 -0.51982336765E+01  0.11619876789E+02  0.10570000000E+00 0. -1.
         13    1    1    2    0    0  0.65698093655E+01  0.80514803387E+01 -0.14562467480E+02  0.17890370660E+02  0.10570000000E+00 0.  1.
<mgrwt>
<rscale>  0 0.21917331E+02</rscale>
<asrwt>0</asrwt>
<pdfrwt beam="1">  1        2 0.74996511E-03 0.21917331E+02</pdfrwt>
<pdfrwt beam="2">  1       -2 0.37900729E-02 0.21917331E+02</pdfrwt>
<totfact> 0.30074533E+06</totfact>
</mgrwt>
</event>
<event>
 4    1  0.3704929E-001  0.2138387E+02  0.7818608E-02  0.1719131E+00
         -2   -1    0    0    0  501 -0.00000000000E+00  0.00000000000E+00  0.19670562522E+02  0.19670562693E+02  0.26000000000E-02 0. -1.
          2   -1    0    0  501    0  0.00000000000E+00 -0.00000000000E+00 -0.58116021350E+01  0.58116027166E+01  0.26000000000E-02 0.  1.
        -13    1    1    2    0    0  0.10301763257E+02 -0.34745001491E+00  0.35465120316E+01  0.10901191119E+02  0.10570000000E+00 0.  1.
         13    1    1    2    0    0 -0.10301763257E+02  0.34745001491E+00  0.10312448355E+02  0.14580974291E+02  0.10570000000E+00 0. -1.
<mgrwt>
<rscale>  0 0.21383872E+02</rscale>
<asrwt>0</asrwt>
<pdfrwt beam="2">  1        2 0.89409270E-03 0.21383872E+02</pdfrwt>
<pdfrwt beam="1">  1       -2 0.30262404E-02 0.21383872E+02</pdfrwt>
<totfact> 0.32393774E+06</totfact>
</mgrwt>
</event>
<event>
 4    1  0.3704929E-001  0.2523396E+02  0.7818608E-02  0.1657664E+00
          2   -1    0    0  501    0  0.00000000000E+00  0.00000000000E+00  0.39587686062E+02  0.39587686147E+02  0.26000000000E-02 0.  1.
         -2   -1    0    0    0  501 -0.00000000000E+00 -0.00000000000E+00 -0.40211527231E+01  0.40211535636E+01  0.26000000000E-02 0. -1.
        -13    1    1    2    0    0 -0.41426497490E+01  0.98178553020E+01  0.29456504035E+02  0.31324888382E+02  0.10570000000E+00 0.  1.
         13    1    1    2    0    0  0.41426497490E+01 -0.98178553020E+01  0.61100293037E+01  0.12283951329E+02  0.10570000000E+00 0. -1.
<mgrwt>
<rscale>  0 0.25233957E+02</rscale>
<asrwt>0</asrwt>
<pdfrwt beam="1">  1        2 0.60904134E-02 0.25233957E+02</pdfrwt>
<pdfrwt beam="2">  1       -2 0.61863894E-03 0.25233957E+02</pdfrwt>
<totfact> 0.26383396E+06</totfact>
</mgrwt>
</event>
<event>
 4    1  0.3704929E-001  0.4701463E+02  0.7818608E-02  0.1462143E+00
          2   -1    0    0  501    0  0.00000000000E+00  0.00000000000E+00  0.70723140886E+02  0.70723140934E+02  0.26000000000E-02 0.  1.
         -2   -1    0    0    0  501 -0.00000000000E+00 -0.00000000000E+00 -0.78134814573E+01  0.78134818899E+01  0.26000000000E-02 0. -1.
        -13    1    1    2    0    0  0.14077499166E+02 -0.14233789084E+02  0.52036646749E+02  0.55754825009E+02  0.10570000000E+00 0.  1.
         13    1    1    2    0    0 -0.14077499166E+02  0.14233789084E+02  0.10873012679E+02  0.22781797814E+02  0.10570000000E+00 0. -1.
<mgrwt>
<rscale>  0 0.47014635E+02</rscale>
<asrwt>0</asrwt>
<pdfrwt beam="1">  1        2 0.10880483E-01 0.47014635E+02</pdfrwt>
<pdfrwt beam="2">  1       -2 0.12020741E-02 0.47014635E+02</pdfrwt>
<totfact> 0.64404286E+05</totfact>
</mgrwt>
</event>
<event>
 4    1  0.3704929E-001  0.2399430E+02  0.7818608E-02  0.1675882E+00
         -2   -1    0    0    0  501 -0.00000000000E+00  0.00000000000E+00  0.20570636584E+01  0.20570653016E+01  0.26000000000E-02 0.  1.
          2   -1    0    0  501    0  0.00000000000E+00 -0.00000000000E+00 -0.69969398556E+02  0.69969398605E+02  0.26000000000E-02 0. -1.
        -13    1    1    2    0    0 -0.47147486046E+01  0.10841422355E+02 -0.40075089642E+02  0.41782643231E+02  0.10570000000E+00 0.  1.
         13    1    1    2    0    0  0.47147486046E+01 -0.10841422355E+02 -0.27837245256E+02  0.30243820675E+02  0.10570000000E+00 0. -1.
<mgrwt>
<rscale>  0 0.23994297E+02</rscale>
<asrwt>0</asrwt>
<pdfrwt beam="2">  1        2 0.10764521E-01 0.23994297E+02</pdfrwt>
<pdfrwt beam="1">  1       -2 0.31647152E-03 0.23994297E+02</pdfrwt>
<totfact> 0.32516870E+06</totfact>
</mgrwt>
</event>
<event>
 4    1  0.3704929E-001  0.7710862E+02  0.7818608E-02  0.1337463E+00
          2   -1    0    0  501    0  0.00000000000E+00  0.00000000000E+00  0.10534584634E+02  0.10534584955E+02  0.26000000000E-02 0. -1.
         -2   -1    0    0    0  501 -0.00000000000E+00 -0.00000000000E+00 -0.14110047314E+03  0.14110047316E+03  0.26000000000E-02 0.  1.
        -13    1    1    2    0    0  0.12957529702E+02  0.18015754042E+02 -0.32844899552E+01  0.22433546675E+02  0.10570000000E+00 0. -1.
         13    1    1    2    0    0 -0.12957529702E+02 -0.18015754042E+02 -0.12728139855E+03  0.12920151144E+03  0.10570000000E+00 0.  1.
<mgrwt>
<rscale>  0 0.77108622E+02</rscale>
<asrwt>0</asrwt>
<pdfrwt beam="1">  1        2 0.16207055E-02 0.77108622E+02</pdfrwt>
<pdfrwt beam="2">  1       -2 0.21707764E-01 0.77108622E+02</pdfrwt>
<totfact> 0.10895574E+05</totfact>
</mgrwt>
</event>
<event>
 4    1  0.3704929E-001  0.2532661E+02  0.7818608E-02  0.1656355E+00
          2   -1    0    0  501    0  0.00000000000E+00  0.00000000000E+00  0.37699355213E+01  0.37699364178E+01  0.26000000000E-02 0. -1.
         -2   -1    0    0    0  501 -0.00000000000E+00 -0.00000000000E+00 -0.42536338692E+02  0.42536338771E+02  0.26000000000E-02 0.  1.
        -13    1    1    2    0    0 -0.35489096276E+01  0.12090911272E+02 -0.17097227091E+02  0.21239379502E+02  0.10570000000E+00 0. -1.
         13    1    1    2    0    0  0.35489096276E+01 -0.12090911272E+02 -0.21669176079E+02  0.25066895687E+02  0.10570000000E+00 0.  1.
<mgrwt>
<rscale>  0 0.25326609E+02</rscale>
<asrwt>0</asrwt>
<pdfrwt beam="1">  1        2 0.57999019E-03 0.25326609E+02</pdfrwt>
<pdfrwt beam="2">  1       -2 0.65440518E-02 0.25326609E+02</pdfrwt>
<totfact> 0.20498137E+06</totfact>
</mgrwt>
</event>
<event>
 4    1  0.3704929E-001  0.2423333E+02  0.7818608E-02  0.1672264E+00
          2   -1    0    0  501    0  0.00000000000E+00  0.00000000000E+00  0.11070605301E+02  0.11070605606E+02  0.26000000000E-02 0.  1.
         -2   -1    0    0    0  501 -0.00000000000E+00 -0.00000000000E+00 -0.13261567474E+02  0.13261567729E+02  0.26000000000E-02 0. -1.
        -13    1    1    2    0    0 -0.97636887558E+01 -0.63825683430E+01  0.21944081904E+01  0.11869852424E+02  0.10570000000E+00 0. -1.
         13    1    1    2    0    0  0.97636887558E+01  0.63825683430E+01 -0.43853703630E+01  0.12462320911E+02  0.10570000000E+00 0.  1.
<mgrwt>
<rscale>  0 0.24233331E+02</rscale>
<asrwt>0</asrwt>
<pdfrwt beam="1">  1        2 0.17031701E-02 0.24233331E+02</pdfrwt>
<pdfrwt beam="2">  1       -2 0.20402412E-02 0.24233331E+02</pdfrwt>
<totfact> 0.25443974E+06</totfact>
</mgrwt>
</event>
<event>
 4    1  0.3704929E-001  0.2317057E+02  0.7818608E-02  0.1688760E+00
          2   -1    0    0  501    0  0.00000000000E+00  0.00000000000E+00  0.70037490052E+02  0.70037490100E+02  0.26000000000E-02 0.  1.
         -2   -1    0    0    0  501 -0.00000000000E+00 -0.00000000000E+00 -0.19163852771E+01  0.19163870409E+01  0.26000000000E-02 0. -1.
        -13    1    1    2    0    0 -0.11108321169E+02 -0.32876448157E+01  0.33856921101E+02  0.35784154127E+02  0.10570000000E+00 0.  1.
         13    1    1    2    0    0  0.11108321169E+02  0.32876448157E+01  0.34264183674E+02  0.36169723014E+02  0.10570000000E+00 0. -1.
<mgrwt>
<rscale>  0 0.23170574E+02</rscale>
<asrwt>0</asrwt>
<pdfrwt beam="1">  1        2 0.10774997E-01 0.23170574E+02</pdfrwt>
<pdfrwt beam="2">  1       -2 0.29482869E-03 0.23170574E+02</pdfrwt>
<totfact> 0.35220963E+06</totfact>
</mgrwt>
</event>
<event>
 4    1  0.3704929E-001  0.2383286E+02  0.7818608E-02  0.1678355E+00
         -2   -1    0    0    0  501 -0.00000000000E+00  0.00000000000E+00  0.45878903746E+02  0.45878903819E+02  0.26000000000E-02 0. -1.
          2   -1    0    0  501    0  0.00000000000E+00 -0.00000000000E+00 -0.30951311324E+01  0.30951322245E+01  0.26000000000E-02 0.  1.
        -13    1    1    2    0    0  0.81337313040E+01  0.83250463053E+01  0.16142402203E+02  0.19901062843E+02  0.10570000000E+00 0.  1.
         13    1    1    2    0    0 -0.81337313040E+01 -0.83250463053E+01  0.26641370410E+02  0.29072973200E+02  0.10570000000E+00 0. -1.
<mgrwt>
<rscale>  0 0.23832856E+02</rscale>
<asrwt>0</asrwt>
<pdfrwt beam="2">  1        2 0.47617405E-03 0.23832856E+02</pdfrwt>
<pdfrwt beam="1">  1       -2 0.70582938E-02 0.23832856E+02</pdfrwt>
<totfact> 0.23267069E+06</totfact>
</mgrwt>
</event>
<event>
 4    1  0.3704929E-001  0.2707654E+02  0.7818608E-02  0.1632851E+00
          2   -1    0    0  501    0  0.00000000000E+00  0.00000000000E+00  0.14576120397E+02  0.14576120629E+02  0.26000000000E-02 0.  1.
         -2   -1    0    0    0  501 -0.00000000000E+00 -0.00000000000E+00 -0.12574316204E+02  0.12574316472E+02  0.26000000000E-02 0. -1.
        -13    1    1    2    0    0 -0.84827662125E+01  0.55406313747E+01  0.10004140722E+02  0.14239028152E+02  0.10570000000E+00 0.  1.
         13    1    1    2    0    0  0.84827662125E+01 -0.55406313747E+01 -0.80023365283E+01  0.12911408949E+02  0.10570000000E+00 0. -1.
<mgrwt>
<rscale>  0 0.27076540E+02</rscale>
<asrwt>0</asrwt>
<pdfrwt beam="1">  1        2 0.22424801E-02 0.27076540E+02</pdfrwt>
<pdfrwt beam="2">  1       -2 0.19345102E-02 0.27076540E+02</pdfrwt>
<totfact> 0.20014192E+06</totfact>
</mgrwt>
</event>
<event>
 4    1  0.3704929E-001  0.2028624E+02  0.7818608E-02  0.1739695E+00
          2   -1    0    0  501    0  0.00000000000E+00  0.00000000000E+00  0.10838639937E+02  0.10838640249E+02  0.26000000000E-02 0.  1.
         -2   -1    0    0    0  501 -0.00000000000E+00 -0.00000000000E+00 -0.94922270697E+01  0.94922274257E+01  0.26000000000E-02 0. -1.
        -13    1    1    2    0    0  0.10040238107E+02  0.28144751548E+00  0.20855875980E+01  0.10258968860E+02  0.10570000000E+00 0.  1.
         13    1    1    2    0    0 -0.10040238107E+02 -0.28144751548E+00 -0.73917473072E+00  0.10071898814E+02  0.10570000000E+00 0. -1.
<mgrwt>
<rscale>  0 0.20286236E+02</rscale>
<asrwt>0</asrwt>
<pdfrwt beam="1">  1        2 0.16674831E-02 0.20286236E+02</pdfrwt>
<pdfrwt beam="2">  1       -2 0.14603427E-02 0.20286236E+02</pdfrwt>
<totfact> 0.38429871E+06</totfact>
</mgrwt>
</event>
<event>
 4    1  0.3704929E-001  0.2171891E+02  0.7818608E-02  0.1713159E+00
          2   -1    0    0  501    0  0.00000000000E+00  0.00000000000E+00  0.30345519102E+02  0.30345519213E+02  0.26000000000E-02 0.  1.
         -2   -1    0    0    0  501 -0.00000000000E+00 -0.00000000000E+00 -0.38861665237E+01  0.38861673935E+01  0.26000000000E-02 0. -1.
        -13    1    1    2    0    0  0.26598006777E+01  0.10283368096E+02  0.96722476629E+01  0.14366131921E+02  0.10570000000E+00 0. -1.
         13    1    1    2    0    0 -0.26598006777E+01 -0.10283368096E+02  0.16787104915E+02  0.19865554685E+02  0.10570000000E+00 0.  1.
<mgrwt>
<rscale>  0 0.21718909E+02</rscale>
<asrwt>0</asrwt>
<pdfrwt beam="1">  1        2 0.46685414E-02 0.21718909E+02</pdfrwt>
<pdfrwt beam="2">  1       -2 0.59787186E-03 0.21718909E+02</pdfrwt>
<totfact> 0.36043416E+06</totfact>
</mgrwt>
</event>
<event>
 4    1  0.3704929E-001  0.3695134E+02  0.7818608E-02  0.1531925E+00
         -2   -1    0    0    0  501 -0.00000000000E+00  0.00000000000E+00  0.20630583386E+01  0.20630599770E+01  0.26000000000E-02 0.  1.
          2   -1    0    0  501    0  0.00000000000E+00 -0.00000000000E+00 -0.16545836849E+03  0.16545836851E+03  0.26000000000E-02 0. -1.
        -13    1    1    2    0    0  0.17556725717E+02 -0.47816143429E+01 -0.96202792161E+02  0.97908584127E+02  0.10570000000E+00 0. -1.
         13    1    1    2    0    0 -0.17556725717E+02  0.47816143429E+01 -0.67192517988E+02  0.69612844358E+02  0.10570000000E+00 0.  1.
<mgrwt>
<rscale>  0 0.36951341E+02</rscale>
<asrwt>0</asrwt>
<pdfrwt beam="2">  1        2 0.25455123E-01 0.36951341E+02</pdfrwt>
<pdfrwt beam="1">  1       -2 0.31739385E-03 0.36951341E+02</pdfrwt>
<totfact> 0.14579433E+06</totfact>
</mgrwt>
</event>
<event>
 4    1  0.3704929E-001  0.2853697E+02  0.7818608E-02  0.1614847E+00
          2   -1    0    0  501    0  0.00000000000E+00  0.00000000000E+00  0.50297869270E+01  0.50297875990E+01  0.26000000000E-02 0.  1.
         -2   -1    0    0    0  501 -0.00000000000E+00 -0.00000000000E+00 -0.40476800438E+02  0.40476800521E+02  0.26000000000E-02 0. -1.
        -13    1    1    2    0    0  0.39990206996E+01  0.11876675410E+02 -0.68458012361E+01  0.14280187408E+02  0.10570000000E+00 0.  1.
         13    1    1    2    0    0 -0.39990206996E+01 -0.11876675410E+02 -0.28601212274E+02  0.31226400712E+02  0.10570000000E+00 0. -1.
<mgrwt>
<rscale>  0 0.28536972E+02</rscale>
<asrwt>0</asrwt>
<pdfrwt beam="1">  1        2 0.77381346E-03 0.28536972E+02</pdfrwt>
<pdfrwt beam="2">  1       -2 0.62271999E-02 0.28536972E+02</pdfrwt>
<totfact> 0.15727544E+06</totfact>
</mgrwt>
</event>
<event>
 4    1  0.3704929E-001  0.2441763E+02  0.7818608E-02  0.1669510E+00
          2   -1    0    0  501    0  0.00000000000E+00  0.00000000000E+00  0.27497219785E+01  0.27497232077E+01  0.26000000000E-02 0. -1.
         -2   -1    0    0    0  501 -0.00000000000E+00 -0.00000000000E+00 -0.54207346864E+02  0.54207346926E+02  0.26000000000E-02 0.  1.
        -13    1    1    2    0    0  0.88007391959E+01  0.80433791987E+01 -0.19603722696E+02  0.22944848558E+02  0.10570000000E+00 0. -1.
         13    1    1    2    0    0 -0.88007391959E+01 -0.80433791987E+01 -0.31853902189E+02  0.34012221576E+02  0.10570000000E+00 0.  1.
<mgrwt>
<rscale>  0 0.24417631E+02</rscale>
<asrwt>0</asrwt>
<pdfrwt beam="1">  1        2 0.42303429E-03 0.24417631E+02</pdfrwt>
<pdfrwt beam="2">  1       -2 0.83395911E-02 0.24417631E+02</pdfrwt>
<totfact> 0.21508296E+06</totfact>
</mgrwt>
</event>
<event>
 4    1  0.3704929E-001  0.2096178E+02  0.7818608E-02  0.1726852E+00
          2   -1    0    0  501    0  0.00000000000E+00  0.00000000000E+00  0.46771379724E+02  0.46771379796E+02  0.26000000000E-02 0.  1.
         -2   -1    0    0    0  501 -0.00000000000E+00 -0.00000000000E+00 -0.23486376245E+01  0.23486390636E+01  0.26000000000E-02 0. -1.
        -13    1    1    2    0    0  0.51814080055E+01 -0.91098805171E+01  0.22284535087E+02  0.24626176896E+02  0.10570000000E+00 0.  1.
         13    1    1    2    0    0 -0.51814080055E+01  0.91098805171E+01  0.22138207013E+02  0.24493841964E+02  0.10570000000E+00 0. -1.
<mgrwt>
<rscale>  0 0.20961780E+02</rscale>
<asrwt>0</asrwt>
<pdfrwt beam="1">  1        2 0.71955962E-02 0.20961780E+02</pdfrwt>
<pdfrwt beam="2">  1       -2 0.36132902E-03 0.20961780E+02</pdfrwt>
<totfact> 0.41291831E+06</totfact>
</mgrwt>
</event>
<event>
 4    1  0.3704929E-001  0.5547315E+02  0.7818608E-02  0.1417875E+00
          2   -1    0    0  501    0  0.00000000000E+00  0.00000000000E+00  0.50172793043E+02  0.50172793111E+02  0.26000000000E-02 0.  1.
         -2   -1    0    0    0  501 -0.00000000000E+00 -0.00000000000E+00 -0.15333360886E+02  0.15333361106E+02  0.26000000000E-02 0. -1.
        -13    1    1    2    0    0 -0.20442013909E+02 -0.15067637416E+02  0.42491693631E+01  0.25748325047E+02  0.10570000000E+00 0. -1.
         13    1    1    2    0    0  0.20442013909E+02  0.15067637416E+02  0.30590262795E+02  0.39757829170E+02  0.10570000000E+00 0.  1.
<mgrwt>
<rscale>  0 0.55473149E+02</rscale>
<asrwt>0</asrwt>
<pdfrwt beam="1">  1        2 0.77188913E-02 0.55473149E+02</pdfrwt>
<pdfrwt beam="2">  1       -2 0.23589786E-02 0.55473149E+02</pdfrwt>
<totfact> 0.39205969E+05</totfact>
</mgrwt>
</event>
<event>
 4    1  0.3704929E-001  0.3012600E+02  0.7818608E-02  0.1596700E+00
         -2   -1    0    0    0  501 -0.00000000000E+00  0.00000000000E+00  0.18988375661E+02  0.18988375839E+02  0.26000000000E-02 0.  1.
          2   -1    0    0  501    0  0.00000000000E+00 -0.00000000000E+00 -0.11949097259E+02  0.11949097542E+02  0.26000000000E-02 0. -1.
        -13    1    1    2    0    0 -0.45435467394E+01 -0.13009412372E+02 -0.27264752857E+01  0.14047543102E+02  0.10570000000E+00 0. -1.
         13    1    1    2    0    0  0.45435467394E+01  0.13009412372E+02  0.97657536872E+01  0.16889930278E+02  0.10570000000E+00 0.  1.
<mgrwt>
<rscale>  0 0.30125999E+02</rscale>
<asrwt>0</asrwt>
<pdfrwt beam="2">  1        2 0.18383227E-02 0.30125999E+02</pdfrwt>
<pdfrwt beam="1">  1       -2 0.29212886E-02 0.30125999E+02</pdfrwt>
<totfact> 0.15138731E+06</totfact>
</mgrwt>
</event>
<event>
 4    1  0.3704929E-001  0.4200195E+02  0.7818608E-02  0.1493976E+00
         -2   -1    0    0    0  501 -0.00000000000E+00  0.00000000000E+00  0.13321316572E+02  0.13321316826E+02  0.26000000000E-02 0.  1.
          2   -1    0    0  501    0  0.00000000000E+00 -0.00000000000E+00 -0.33107916084E+02  0.33107916186E+02  0.26000000000E-02 0. -1.
        -13    1    1    2    0    0 -0.20110020616E+02  0.27201663384E+00 -0.32110333981E+01  0.20366856169E+02  0.10570000000E+00 0. -1.
         13    1    1    2    0    0  0.20110020616E+02 -0.27201663384E+00 -0.16575566113E+02  0.26062376843E+02  0.10570000000E+00 0.  1.
<mgrwt>
<rscale>  0 0.42001954E+02</rscale>
<asrwt>0</asrwt>
<pdfrwt beam="2">  1        2 0.50935256E-02 0.42001954E+02</pdfrwt>
<pdfrwt beam="1">  1       -2 0.20494334E-02 0.42001954E+02</pdfrwt>
<totfact> 0.74669318E+05</totfact>
</mgrwt>
</event>
<event>
 4    1  0.3704929E-001  0.2291006E+02  0.7818608E-02  0.1692972E+00
         -2   -1    0    0    0  501 -0.00000000000E+00  0.00000000000E+00  0.33498753876E+01  0.33498763966E+01  0.26000000000E-02 0. -1.
          2   -1    0    0  501    0  0.00000000000E+00 -0.00000000000E+00 -0.39170932486E+02  0.39170932572E+02  0.26000000000E-02 0.  1.
        -13    1    1    2    0    0 -0.95194138260E+00 -0.10138994455E+02 -0.81774334671E+01  0.13060895511E+02  0.10570000000E+00 0. -1.
         13    1    1    2    0    0  0.95194138260E+00  0.10138994455E+02 -0.27643623631E+02  0.29459913457E+02  0.10570000000E+00 0.  1.
<mgrwt>
<rscale>  0 0.22910065E+02</rscale>
<asrwt>0</asrwt>
<pdfrwt beam="2">  1        2 0.60262971E-02 0.22910065E+02</pdfrwt>
<pdfrwt beam="1">  1       -2 0.51536555E-03 0.22910065E+02</pdfrwt>
<totfact> 0.32924574E+06</totfact>
</mgrwt>
</event>
<event>
 4    1  0.3704929E-001  0.2296887E+02  0.7818608E-02  0.1692015E+00
          2   -1    0    0  501    0  0.00000000000E+00  0.00000000000E+00  0.23103743854E+02  0.23103744001E+02  0.26000000000E-02 0.  1.
         -2   -1    0    0    0  501 -0.00000000000E+00 -0.00000000000E+00 -0.57086949861E+01  0.57086955782E+01  0.26000000000E-02 0. -1.
        -13    1    1    2    0    0 -0.35611937521E+01 -0.97960096207E+01  0.26506362577E+01  0.10755507914E+02  0.10570000000E+00 0. -1.
         13    1    1    2    0    0  0.35611937521E+01  0.97960096207E+01  0.14744412611E+02  0.18056931665E+02  0.10570000000E+00 0.  1.
<mgrwt>
<rscale>  0 0.22968869E+02</rscale>
<asrwt>0</asrwt>
<pdfrwt beam="1">  1        2 0.35544221E-02 0.22968869E+02</pdfrwt>
<pdfrwt beam="2">  1       -2 0.87826083E-03 0.22968869E+02</pdfrwt>
<totfact> 0.30802164E+06</totfact>
</mgrwt>
</event>
<event>
 4    1  0.3704929E-001  0.5046105E+02  0.7818608E-02  0.1442871E+00
         -2   -1    0    0    0  501 -0.00000000000E+00  0.00000000000E+00  0.93928605768E+01  0.93928609366E+01  0.26000000000E-02 0.  1.
          2   -1    0    0  501    0  0.00000000000E+00 -0.00000000000E+00 -0.67772694875E+02  0.67772694925E+02  0.26000000000E-02 0. -1.
        -13    1    1    2    0    0  0.23415757851E+02 -0.93897507992E+01 -0.28698706398E+02  0.38211150954E+02  0.10570000000E+00 0. -1.
         13    1    1    2    0    0 -0.23415757851E+02  0.93897507992E+01 -0.29681127900E+02  0.38954404908E+02  0.10570000000E+00 0.  1.
<mgrwt>
<rscale>  0 0.50461054E+02</rscale>
<asrwt>0</asrwt>
<pdfrwt beam="2">  1        2 0.10426568E-01 0.50461054E+02</pdfrwt>
<pdfrwt beam="1">  1       -2 0.14450555E-02 0.50461054E+02</pdfrwt>
<totfact> 0.53306668E+05</totfact>
</mgrwt>
</event>
<event>
 4    1  0.3704929E-001  0.2539257E+02  0.7818608E-02  0.1655426E+00
         -2   -1    0    0    0  501 -0.00000000000E+00  0.00000000000E+00  0.24344159443E+02  0.24344159582E+02  0.26000000000E-02 0. -1.
          2   -1    0    0  501    0  0.00000000000E+00 -0.00000000000E+00 -0.66215331242E+01  0.66215336347E+01  0.26000000000E-02 0.  1.
        -13    1    1    2    0    0 -0.42167438673E+01 -0.99709574250E+01  0.16948908069E+02  0.20111627931E+02  0.10570000000E+00 0. -1.
         13    1    1    2    0    0  0.42167438673E+01  0.99709574250E+01  0.77371825042E+00  0.10854065286E+02  0.10570000000E+00 0.  1.
<mgrwt>
<rscale>  0 0.25392571E+02</rscale>
<asrwt>0</asrwt>
<pdfrwt beam="2">  1        2 0.10186975E-02 0.25392571E+02</pdfrwt>
<pdfrwt beam="1">  1       -2 0.37452553E-02 0.25392571E+02</pdfrwt>
<totfact> 0.21705700E+06</totfact>
</mgrwt>
</event>
<event>
 4    1  0.3704929E-001  0.5893105E+02  0.7818608E-02  0.1402373E+00
         -2   -1    0    0    0  501 -0.00000000000E+00  0.00000000000E+00  0.55434497494E+01  0.55434503591E+01  0.26000000000E-02 0. -1.
          2   -1    0    0  501    0  0.00000000000E+00 -0.00000000000E+00 -0.15662036378E+03  0.15662036380E+03  0.26000000000E-02 0.  1.
        -13    1    1    2    0    0 -0.17477358174E+02  0.23345449425E+02 -0.63949046952E+02  0.70284847842E+02  0.10570000000E+00 0.  1.
         13    1    1    2    0    0  0.17477358174E+02 -0.23345449425E+02 -0.87127867077E+02  0.91878966317E+02  0.10570000000E+00 0. -1.
<mgrwt>
<rscale>  0 0.58931050E+02</rscale>
<asrwt>0</asrwt>
<pdfrwt beam="2">  1        2 0.24095437E-01 0.58931050E+02</pdfrwt>
<pdfrwt beam="1">  1       -2 0.85283859E-03 0.58931050E+02</pdfrwt>
<totfact> 0.44835522E+05</totfact>
</mgrwt>
</event>
<event>
 4    1  0.3704929E-001  0.3691076E+02  0.7818608E-02  0.1532259E+00
         -2   -1    0    0    0  501 -0.00000000000E+00  0.00000000000E+00  0.19673430815E+02  0.19673430987E+02  0.26000000000E-02 0. -1.
          2   -1    0    0  501    0  0.00000000000E+00 -0.00000000000E+00 -0.17312743814E+02  0.17312744009E+02  0.26000000000E-02 0.  1.
        -13    1    1    2    0    0 -0.55673091578E+01 -0.14167237019E+02 -0.92757433250E+01  0.17825715209E+02  0.10570000000E+00 0.  1.
         13    1    1    2    0    0  0.55673091578E+01  0.14167237019E+02  0.11636430326E+02  0.19160459786E+02  0.10570000000E+00 0. -1.
<mgrwt>
<rscale>  0 0.36910761E+02</rscale>
<asrwt>0</asrwt>
<pdfrwt beam="2">  1        2 0.26634991E-02 0.36910761E+02</pdfrwt>
<pdfrwt beam="1">  1       -2 0.30266817E-02 0.36910761E+02</pdfrwt>
<totfact> 0.94970916E+05</totfact>
</mgrwt>
</event>
<event>
 4    1  0.3704929E-001  0.3461027E+02  0.7818608E-02  0.1552089E+00
          2   -1    0    0  501    0  0.00000000000E+00  0.00000000000E+00  0.44254746098E+02  0.44254746174E+02  0.26000000000E-02 0. -1.
         -2   -1    0    0    0  501 -0.00000000000E+00 -0.00000000000E+00 -0.67669036300E+01  0.67669041294E+01  0.26000000000E-02 0.  1.
        -13    1    1    2    0    0  0.34249565626E+01 -0.16797597926E+02  0.15265732138E+02  0.22955247194E+02  0.10570000000E+00 0.  1.
         13    1    1    2    0    0 -0.34249565626E+01  0.16797597926E+02  0.22222110329E+02  0.28066403110E+02  0.10570000000E+00 0. -1.
<mgrwt>
<rscale>  0 0.34610265E+02</rscale>
<asrwt>0</asrwt>
<pdfrwt beam="1">  1        2 0.68084226E-02 0.34610265E+02</pdfrwt>
<pdfrwt beam="2">  1       -2 0.10410621E-02 0.34610265E+02</pdfrwt>
<totfact> 0.12629993E+06</totfact>
</mgrwt>
</event>
<event>
 4    1  0.3704929E-001  0.3596920E+02  0.7818608E-02  0.1540158E+00
          2   -1    0    0  501    0  0.00000000000E+00  0.00000000000E+00  0.16498305957E+02  0.16498306162E+02  0.26000000000E-02 0. -1.
         -2   -1    0    0    0  501 -0.00000000000E+00 -0.00000000000E+00 -0.19604792428E+02  0.19604792600E+02  0.26000000000E-02 0.  1.
        -13    1    1    2    0    0  0.11050752286E+02  0.68539901681E+01  0.10916303351E+02  0.16978608855E+02  0.10570000000E+00 0. -1.
         13    1    1    2    0    0 -0.11050752286E+02 -0.68539901681E+01 -0.14022789821E+02  0.19124489907E+02  0.10570000000E+00 0.  1.
<mgrwt>
<rscale>  0 0.35969202E+02</rscale>
<asrwt>0</asrwt>
<pdfrwt beam="1">  1        2 0.25382010E-02 0.35969202E+02</pdfrwt>
<pdfrwt beam="2">  1       -2 0.30161219E-02 0.35969202E+02</pdfrwt>
<totfact> 0.10080055E+06</totfact>
</mgrwt>
</event>
<event>
 4    1  0.3704929E-001  0.2586478E+02  0.7818608E-02  0.1648883E+00
          2   -1    0    0  501    0  0.00000000000E+00  0.00000000000E+00  0.32533922112E+01  0.32533932501E+01  0.26000000000E-02 0. -1.
         -2   -1    0    0    0  501 -0.00000000000E+00 -0.00000000000E+00 -0.51406853128E+02  0.51406853194E+02  0.26000000000E-02 0.  1.
        -13    1    1    2    0    0  0.11135999099E+02 -0.28797574678E+01 -0.11586375851E+02  0.16326627234E+02  0.10570000000E+00 0. -1.
         13    1    1    2    0    0 -0.11135999099E+02  0.28797574678E+01 -0.36567085066E+02  0.38333619210E+02  0.10570000000E+00 0.  1.
<mgrwt>
<rscale>  0 0.25864778E+02</rscale>
<asrwt>0</asrwt>
<pdfrwt beam="1">  1        2 0.50052200E-03 0.25864778E+02</pdfrwt>
<pdfrwt beam="2">  1       -2 0.79087462E-02 0.25864778E+02</pdfrwt>
<totfact> 0.19034035E+06</totfact>
</mgrwt>
</event>
<event>
 4    1  0.3704929E-001  0.1101953E+03  0.7818608E-02  0.1260209E+00
          2   -1    0    0  501    0  0.00000000000E+00  0.00000000000E+00  0.24029938103E+02  0.24029938243E+02  0.26000000000E-02 0. -1.
         -2   -1    0    0    0  501 -0.00000000000E+00 -0.00000000000E+00 -0.12633208295E+03  0.12633208297E+03  0.26000000000E-02 0.  1.
        -13    1    1    2    0    0  0.28576205200E+02 -0.47043765234E+02 -0.54500541468E+02  0.77459896358E+02  0.10570000000E+00 0. -1.
         13    1    1    2    0    0 -0.28576205200E+02  0.47043765234E+02 -0.47801603375E+02  0.72902124857E+02  0.10570000000E+00 0.  1.
<mgrwt>
<rscale>  0 0.11019532E+03</rscale>
<asrwt>0</asrwt>
<pdfrwt beam="1">  1        2 0.36969136E-02 0.11019532E+03</pdfrwt>
<pdfrwt beam="2">  1       -2 0.19435705E-01 0.11019532E+03</pdfrwt>
<totfact> 0.46067344E+04</totfact>
</mgrwt>
</event>
<event>
 4    1  0.3704929E-001  0.7195511E+02  0.7818608E-02  0.1353568E+00
         -2   -1    0    0    0  501 -0.00000000000E+00  0.00000000000E+00  0.21413912208E+02  0.21413912366E+02  0.26000000000E-02 0. -1.
          2   -1    0    0  501    0  0.00000000000E+00 -0.00000000000E+00 -0.60445959720E+02  0.60445959776E+02  0.26000000000E-02 0.  1.
        -13    1    1    2    0    0 -0.24667120747E+02  0.17894641016E+01 -0.49241288484E+02  0.55103400002E+02  0.10570000000E+00 0.  1.
         13    1    1    2    0    0  0.24667120747E+02 -0.17894641016E+01  0.10209240971E+02  0.26756472141E+02  0.10570000000E+00 0. -1.
<mgrwt>
<rscale>  0 0.71955111E+02</rscale>
<asrwt>0</asrwt>
<pdfrwt beam="2">  1        2 0.92993784E-02 0.71955111E+02</pdfrwt>
<pdfrwt beam="1">  1       -2 0.32944481E-02 0.71955111E+02</pdfrwt>
<totfact> 0.20434223E+05</totfact>
</mgrwt>
</event>
<event>
 4    1  0.3704929E-001  0.2903607E+02  0.7818608E-02  0.1608995E+00
         -2   -1    0    0    0  501 -0.00000000000E+00  0.00000000000E+00  0.21439565999E+01  0.21439581765E+01  0.26000000000E-02 0. -1.
          2   -1    0    0  501    0  0.00000000000E+00 -0.00000000000E+00 -0.98310427144E+02  0.98310427179E+02  0.26000000000E-02 0.  1.
        -13    1    1    2    0    0  0.76320189513E+01 -0.11176002997E+02 -0.66262469012E+02  0.67630442320E+02  0.10570000000E+00 0. -1.
         13    1    1    2    0    0 -0.76320189513E+01  0.11176002997E+02 -0.29904001532E+02  0.32823943035E+02  0.10570000000E+00 0.  1.
<mgrwt>
<rscale>  0 0.29036072E+02</rscale>
<asrwt>0</asrwt>
<pdfrwt beam="2">  1        2 0.15124678E-01 0.29036072E+02</pdfrwt>
<pdfrwt beam="1">  1       -2 0.32983968E-03 0.29036072E+02</pdfrwt>
<totfact> 0.22472845E+06</totfact>
</mgrwt>
</event>
<event>
 4    1  0.3704929E-001  0.3648521E+02  0.7818608E-02  0.1535794E+00
          2   -1    0    0  501    0  0.00000000000E+00  0.00000000000E+00  0.23409879923E+02  0.23409880068E+02  0.26000000000E-02 0.  1.
         -2   -1    0    0    0  501 -0.00000000000E+00 -0.00000000000E+00 -0.14215906736E+02  0.14215906973E+02  0.26000000000E-02 0. -1.
        -13    1    1    2    0    0 -0.66788538843E+01  0.80961890077E+01  0.19984087217E+02  0.22572777411E+02  0.10570000000E+00 0.  1.
         13    1    1    2    0    0  0.66788538843E+01 -0.80961890077E+01 -0.10790114030E+02  0.15053009630E+02  0.10570000000E+00 0. -1.
<mgrwt>
<rscale>  0 0.36485212E+02</rscale>
<asrwt>0</asrwt>
<pdfrwt beam="1">  1        2 0.36015200E-02 0.36485212E+02</pdfrwt>
<pdfrwt beam="2">  1       -2 0.21870626E-02 0.36485212E+02</pdfrwt>
<totfact> 0.10147586E+06</totfact>
</mgrwt>
</event>
<event>
 4    1  0.3704929E-001  0.2972459E+02  0.7818608E-02  0.1601153E+00
         -2   -1    0    0    0  501 -0.00000000000E+00  0.00000000000E+00  0.29593766533E+01  0.29593777954E+01  0.26000000000E-02 0. -1.
          2   -1    0    0  501    0  0.00000000000E+00 -0.00000000000E+00 -0.74639979722E+02  0.74639979767E+02  0.26000000000E-02 0.  1.
        -13    1    1    2    0    0 -0.60963429065E+01 -0.85637608780E+01 -0.84135608452E+01  0.13464864492E+02  0.10570000000E+00 0.  1.
         13    1    1    2    0    0  0.60963429065E+01  0.85637608780E+01 -0.63267042223E+02  0.64134493070E+02  0.10570000000E+00 0. -1.
<mgrwt>
<rscale>  0 0.29724593E+02</rscale>
<asrwt>0</asrwt>
<pdfrwt beam="2">  1        2 0.11483072E-01 0.29724593E+02</pdfrwt>
<pdfrwt beam="1">  1       -2 0.45528886E-03 0.29724593E+02</pdfrwt>
<totfact> 0.20007565E+06</totfact>
</mgrwt>
</event>
<event>
 4    1  0.3704929E-001  0.2423284E+02  0.7818608E-02  0.1672272E+00
          2   -1    0    0  501    0  0.00000000000E+00  0.00000000000E+00  0.59257646486E+02  0.59257646543E+02  0.26000000000E-02 0.  1.
         -2   -1    0    0    0  501 -0.00000000000E+00 -0.00000000000E+00 -0.24774464773E+01  0.24774478416E+01  0.26000000000E-02 0. -1.
        -13    1    1    2    0    0  0.79703601240E+01 -0.75519367862E+01  0.15340591667E+02  0.18865399940E+02  0.10570000000E+00 0. -1.
         13    1    1    2    0    0 -0.79703601240E+01  0.75519367862E+01  0.41439608343E+02  0.42869694445E+02  0.10570000000E+00 0.  1.
<mgrwt>
<rscale>  0 0.24232845E+02</rscale>
<asrwt>0</asrwt>
<pdfrwt beam="1">  1        2 0.91165609E-02 0.24232845E+02</pdfrwt>
<pdfrwt beam="2">  1       -2 0.38114573E-03 0.24232845E+02</pdfrwt>
<totfact> 0.30838259E+06</totfact>
</mgrwt>
</event>
<event>
 4    1  0.3704929E-001  0.3467547E+02  0.7818608E-02  0.1551502E+00
         -2   -1    0    0    0  501 -0.00000000000E+00  0.00000000000E+00  0.13668968915E+02  0.13668969163E+02  0.26000000000E-02 0.  1.
          2   -1    0    0  501    0  0.00000000000E+00 -0.00000000000E+00 -0.21991197747E+02  0.21991197901E+02  0.26000000000E-02 0. -1.
        -13    1    1    2    0    0 -0.16916196972E+02  0.13975634806E+01 -0.77934009513E+01  0.18677772206E+02  0.10570000000E+00 0.  1.
         13    1    1    2    0    0  0.16916196972E+02 -0.13975634806E+01 -0.52882788066E+00  0.16982394858E+02  0.10570000000E+00 0. -1.
<mgrwt>
<rscale>  0 0.34675467E+02</rscale>
<asrwt>0</asrwt>
<pdfrwt beam="2">  1        2 0.33832612E-02 0.34675467E+02</pdfrwt>
<pdfrwt beam="1">  1       -2 0.21029183E-02 0.34675467E+02</pdfrwt>
<totfact> 0.11430410E+06</totfact>
</mgrwt>
</event>
<event>
 4    1  0.3704929E-001  0.3595251E+02  0.7818608E-02  0.1540301E+00
         -2   -1    0    0    0  501 -0.00000000000E+00  0.00000000000E+00  0.36094627928E+02  0.36094628022E+02  0.26000000000E-02 0.  1.
          2   -1    0    0  501    0  0.00000000000E+00 -0.00000000000E+00 -0.89527354911E+01  0.89527358686E+01  0.26000000000E-02 0. -1.
        -13    1    1    2    0    0 -0.65842954241E+00 -0.17386009073E+02  0.19233984020E+02  0.25935769792E+02  0.10570000000E+00 0. -1.
         13    1    1    2    0    0  0.65842954241E+00  0.17386009073E+02  0.79079084174E+01  0.19111594098E+02  0.10570000000E+00 0.  1.
<mgrwt>
<rscale>  0 0.35952506E+02</rscale>
<asrwt>0</asrwt>
<pdfrwt beam="2">  1        2 0.13773439E-02 0.35952506E+02</pdfrwt>
<pdfrwt beam="1">  1       -2 0.55530198E-02 0.35952506E+02</pdfrwt>
<totfact> 0.93584287E+05</totfact>
</mgrwt>
</event>
<event>
 4    1  0.3704929E-001  0.2968506E+02  0.7818608E-02  0.1601596E+00
         -2   -1    0    0    0  501 -0.00000000000E+00  0.00000000000E+00  0.43384518342E+01  0.43384526133E+01  0.26000000000E-02 0. -1.
          2   -1    0    0  501    0  0.00000000000E+00 -0.00000000000E+00 -0.50778646257E+02  0.50778646323E+02  0.26000000000E-02 0.  1.
        -13    1    1    2    0    0  0.12474085204E+02  0.51588163182E+01 -0.11763409717E+02  0.17905450794E+02  0.10570000000E+00 0. -1.
         13    1    1    2    0    0 -0.12474085204E+02 -0.51588163182E+01 -0.34676784706E+02  0.37211648143E+02  0.10570000000E+00 0.  1.
<mgrwt>
<rscale>  0 0.29685063E+02</rscale>
<asrwt>0</asrwt>
<pdfrwt beam="2">  1        2 0.78120991E-02 0.29685063E+02</pdfrwt>
<pdfrwt beam="1">  1       -2 0.66745423E-03 0.29685063E+02</pdfrwt>
<totfact> 0.18693190E+06</totfact>
</mgrwt>
</event>
<event>
 4    1  0.3704929E-001  0.4222810E+02  0.7818608E-02  0.1492427E+00
          2   -1    0    0  501    0  0.00000000000E+00  0.00000000000E+00  0.44868485004E+01  0.44868492537E+01  0.26000000000E-02 0. -1.
         -2   -1    0    0    0  501 -0.00000000000E+00 -0.00000000000E+00 -0.99357718461E+02  0.99357718495E+02  0.26000000000E-02 0.  1.
        -13    1    1    2    0    0 -0.13639179842E+02  0.64625947060E+01 -0.11126789352E+02  0.18751239182E+02  0.10570000000E+00 0. -1.
         13    1    1    2    0    0  0.13639179842E+02 -0.64625947060E+01 -0.83744080609E+02  0.85093328567E+02  0.10570000000E+00 0.  1.
<mgrwt>
<rscale>  0 0.42228098E+02</rscale>
<asrwt>0</asrwt>
<pdfrwt beam="1">  1        2 0.69028452E-03 0.42228098E+02</pdfrwt>
<pdfrwt beam="2">  1       -2 0.15285801E-01 0.42228098E+02</pdfrwt>
<totfact> 0.53242461E+05</totfact>
</mgrwt>
</event>
<event>
 4    1  0.3704929E-001  0.3067071E+02  0.7818608E-02  0.1590791E+00
          2   -1    0    0  501    0  0.00000000000E+00  0.00000000000E+00  0.21367359570E+02  0.21367359728E+02  0.26000000000E-02 0.  1.
         -2   -1    0    0    0  501 -0.00000000000E+00 -0.00000000000E+00 -0.11006187601E+02  0.11006187908E+02  0.26000000000E-02 0. -1.
        -13    1    1    2    0    0 -0.11154825205E+02  0.69392683593E+01 -0.31692654070E+01  0.13514399225E+02  0.10570000000E+00 0. -1.
         13    1    1    2    0    0  0.11154825205E+02 -0.69392683593E+01  0.13530437375E+02  0.18859148411E+02  0.10570000000E+00 0.  1.
<mgrwt>
<rscale>  0 0.30670714E+02</rscale>
<asrwt>0</asrwt>
<pdfrwt beam="1">  1        2 0.32872861E-02 0.30670714E+02</pdfrwt>
<pdfrwt beam="2">  1       -2 0.16932597E-02 0.30670714E+02</pdfrwt>
<totfact> 0.15400410E+06</totfact>
</mgrwt>
</event>
<event>
 4    1  0.3704929E-001  0.2387638E+02  0.7818608E-02  0.1677686E+00
         -2   -1    0    0    0  501 -0.00000000000E+00  0.00000000000E+00  0.27196706931E+02  0.27196707055E+02  0.26000000000E-02 0. -1.
          2   -1    0    0  501    0  0.00000000000E+00 -0.00000000000E+00 -0.52403551423E+01  0.52403557873E+01  0.26000000000E-02 0.  1.
        -13    1    1    2    0    0  0.76160855950E+01 -0.79534028514E+01  0.17240429466E+02  0.20457393709E+02  0.10570000000E+00 0. -1.
         13    1    1    2    0    0 -0.76160855950E+01  0.79534028514E+01  0.47159223231E+01  0.11979669134E+02  0.10570000000E+00 0.  1.
<mgrwt>
<rscale>  0 0.23876383E+02</rscale>
<asrwt>0</asrwt>
<pdfrwt beam="2">  1        2 0.80620853E-03 0.23876383E+02</pdfrwt>
<pdfrwt beam="1">  1       -2 0.41841089E-02 0.23876383E+02</pdfrwt>
<totfact> 0.24636600E+06</totfact>
</mgrwt>
</event>
<event>
 4    1  0.3704929E-001  0.6435369E+02  0.7818608E-02  0.1380419E+00
         -2   -1    0    0    0  501 -0.00000000000E+00  0.00000000000E+00  0.22325751958E+03  0.22325751960E+03  0.26000000000E-02 0. -1.
          2   -1    0    0  501    0  0.00000000000E+00 -0.00000000000E+00 -0.46374664562E+01  0.46374671850E+01  0.26000000000E-02 0.  1.
        -13    1    1    2    0    0  0.29538296015E+02  0.58902418791E+01  0.69224221223E+02  0.75493111323E+02  0.10570000000E+00 0.  1.
         13    1    1    2    0    0 -0.29538296015E+02 -0.58902418791E+01  0.14939583190E+03  0.15240187546E+03  0.10570000000E+00 0. -1.
<mgrwt>
<rscale>  0 0.64353690E+02</rscale>
<asrwt>0</asrwt>
<pdfrwt beam="2">  1        2 0.71345628E-03 0.64353690E+02</pdfrwt>
<pdfrwt beam="1">  1       -2 0.34347318E-01 0.64353690E+02</pdfrwt>
<totfact> 0.14363446E+05</totfact>
</mgrwt>
</event>
<event>
 4    1  0.3704929E-001  0.3320788E+02  0.7818608E-02  0.1565116E+00
          2   -1    0    0  501    0  0.00000000000E+00  0.00000000000E+00  0.33583053434E+02  0.33583053535E+02  0.26000000000E-02 0. -1.
         -2   -1    0    0    0  501 -0.00000000000E+00 -0.00000000000E+00 -0.82092227784E+01  0.82092231901E+01  0.26000000000E-02 0.  1.
        -13    1    1    2    0    0 -0.12464878765E+02  0.94727142005E+01  0.19645672388E+02  0.25121089407E+02  0.10570000000E+00 0. -1.
         13    1    1    2    0    0  0.12464878765E+02 -0.94727142005E+01  0.57281582679E+01  0.16671187318E+02  0.10570000000E+00 0.  1.
<mgrwt>
<rscale>  0 0.33207877E+02</rscale>
<asrwt>0</asrwt>
<pdfrwt beam="1">  1        2 0.51666236E-02 0.33207877E+02</pdfrwt>
<pdfrwt beam="2">  1       -2 0.12629574E-02 0.33207877E+02</pdfrwt>
<totfact> 0.13413803E+06</totfact>
</mgrwt>
</event>
<event>
 4    1  0.3704929E-001  0.2103733E+02  0.7818608E-02  0.1725453E+00
         -2   -1    0    0    0  501 -0.00000000000E+00  0.00000000000E+00  0.58788288127E+01  0.58788293876E+01  0.26000000000E-02 0. -1.
          2   -1    0    0  501    0  0.00000000000E+00 -0.00000000000E+00 -0.18820465488E+02  0.18820465668E+02  0.26000000000E-02 0.  1.
        -13    1    1    2    0    0  0.98695450698E+01  0.35678570770E+01 -0.56459495376E+01  0.11917442791E+02  0.10570000000E+00 0. -1.
         13    1    1    2    0    0 -0.98695450698E+01 -0.35678570770E+01 -0.72956871379E+01  0.12781852264E+02  0.10570000000E+00 0.  1.
<mgrwt>
<rscale>  0 0.21037329E+02</rscale>
<asrwt>0</asrwt>
<pdfrwt beam="2">  1        2 0.28954563E-02 0.21037329E+02</pdfrwt>
<pdfrwt beam="1">  1       -2 0.90443527E-03 0.21037329E+02</pdfrwt>
<totfact> 0.36961994E+06</totfact>
</mgrwt>
</event>
<event>
 4    1  0.3704929E-001  0.3510707E+02  0.7818608E-02  0.1547652E+00
          2   -1    0    0  501    0  0.00000000000E+00  0.00000000000E+00  0.47418090725E+02  0.47418090797E+02  0.26000000000E-02 0. -1.
         -2   -1    0    0    0  501 -0.00000000000E+00 -0.00000000000E+00 -0.64980792508E+01  0.64980797709E+01  0.26000000000E-02 0.  1.
        -13    1    1    2    0    0  0.13479799025E+02 -0.28730955005E+00  0.31986854923E+01  0.13857499410E+02  0.10570000000E+00 0.  1.
         13    1    1    2    0    0 -0.13479799025E+02  0.28730955005E+00  0.37721325982E+02  0.40058671157E+02  0.10570000000E+00 0. -1.
<mgrwt>
<rscale>  0 0.35107066E+02</rscale>
<asrwt>0</asrwt>
<pdfrwt beam="1">  1        2 0.72950910E-02 0.35107066E+02</pdfrwt>
<pdfrwt beam="2">  1       -2 0.99970453E-03 0.35107066E+02</pdfrwt>
<totfact> 0.12335662E+06</totfact>
</mgrwt>
</event>
<event>
 4    1  0.3704929E-001  0.3047398E+02  0.7818608E-02  0.1592908E+00
         -2   -1    0    0    0  501 -0.00000000000E+00  0.00000000000E+00  0.31803817188E+01  0.31803827816E+01  0.26000000000E-02 0. -1.
          2   -1    0    0  501    0  0.00000000000E+00 -0.00000000000E+00 -0.72999374764E+02  0.72999374811E+02  0.26000000000E-02 0.  1.
        -13    1    1    2    0    0  0.13687181223E+01 -0.13899144053E+02 -0.19684088696E+02  0.24135743514E+02  0.10570000000E+00 0. -1.
         13    1    1    2    0    0 -0.13687181223E+01  0.13899144053E+02 -0.50134904349E+02  0.52044014078E+02  0.10570000000E+00 0.  1.
<mgrwt>
<rscale>  0 0.30473984E+02</rscale>
<asrwt>0</asrwt>
<pdfrwt beam="2">  1        2 0.11230672E-01 0.30473984E+02</pdfrwt>
<pdfrwt beam="1">  1       -2 0.48928963E-03 0.30473984E+02</pdfrwt>
<totfact> 0.18774487E+06</totfact>
</mgrwt>
</event>
<event>
 4    1  0.3704929E-001  0.2236200E+02  0.7818608E-02  0.1702065E+00
          2   -1    0    0  501    0  0.00000000000E+00  0.00000000000E+00  0.11380592069E+02  0.11380592366E+02  0.26000000000E-02 0.  1.
         -2   -1    0    0    0  501 -0.00000000000E+00 -0.00000000000E+00 -0.10984911426E+02  0.10984911734E+02  0.26000000000E-02 0. -1.
        -13    1    1    2    0    0 -0.10025997111E+02 -0.49170267756E+01 -0.35529212163E+00  0.11172966275E+02  0.10570000000E+00 0. -1.
         13    1    1    2    0    0  0.10025997111E+02  0.49170267756E+01  0.75097276450E+00  0.11192537825E+02  0.10570000000E+00 0.  1.
<mgrwt>
<rscale>  0 0.22362004E+02</rscale>
<asrwt>0</asrwt>
<pdfrwt beam="1">  1        2 0.17508604E-02 0.22362004E+02</pdfrwt>
<pdfrwt beam="2">  1       -2 0.16899864E-02 0.22362004E+02</pdfrwt>
<totfact> 0.30799149E+06</totfact>
</mgrwt>
</event>
<event>
 4    1  0.3704929E-001  0.6035836E+02  0.7818608E-02  0.1396334E+00
          2   -1    0    0  501    0  0.00000000000E+00  0.00000000000E+00  0.36007095443E+01  0.36007104830E+01  0.26000000000E-02 0. -1.
         -2   -1    0    0    0  501 -0.00000000000E+00 -0.00000000000E+00 -0.25294533942E+03  0.25294533944E+03  0.26000000000E-02 0.  1.
        -13    1    1    2    0    0  0.23452555663E+02 -0.18805115305E+02 -0.13601129325E+03  0.13929371053E+03  0.10570000000E+00 0. -1.
         13    1    1    2    0    0 -0.23452555663E+02  0.18805115305E+02 -0.11333333663E+03  0.11725233939E+03  0.10570000000E+00 0.  1.
<mgrwt>
<rscale>  0 0.60358357E+02</rscale>
<asrwt>0</asrwt>
<pdfrwt beam="1">  1        2 0.55395558E-03 0.60358357E+02</pdfrwt>
<pdfrwt beam="2">  1       -2 0.38914654E-01 0.60358357E+02</pdfrwt>
<totfact> 0.15906130E+05</totfact>
</mgrwt>
</event>
<event>
 4    1  0.3704929E-001  0.2194679E+02  0.7818608E-02  0.1709174E+00
         -2   -1    0    0    0  501 -0.00000000000E+00  0.00000000000E+00  0.28297073443E+02  0.28297073563E+02  0.26000000000E-02 0. -1.
          2   -1    0    0  501    0  0.00000000000E+00 -0.00000000000E+00 -0.42553996019E+01  0.42554003961E+01  0.26000000000E-02 0.  1.
        -13    1    1    2    0    0 -0.82934412387E+01  0.66913983546E+01  0.15902356923E+02  0.19142938847E+02  0.10570000000E+00 0. -1.
         13    1    1    2    0    0  0.82934412387E+01 -0.66913983546E+01  0.81393169187E+01  0.13409535112E+02  0.10570000000E+00 0.  1.
<mgrwt>
<rscale>  0 0.21946787E+02</rscale>
<asrwt>0</asrwt>
<pdfrwt beam="2">  1        2 0.65467691E-03 0.21946787E+02</pdfrwt>
<pdfrwt beam="1">  1       -2 0.43533961E-02 0.21946787E+02</pdfrwt>
<totfact> 0.29583607E+06</totfact>
</mgrwt>
</event>
<event>
 4    1  0.3704929E-001  0.5173189E+02  0.7818608E-02  0.1436218E+00
          2   -1    0    0  501    0  0.00000000000E+00  0.00000000000E+00  0.22142450926E+03  0.22142450927E+03  0.26000000000E-02 0.  1.
         -2   -1    0    0    0  501 -0.00000000000E+00 -0.00000000000E+00 -0.30215583459E+01  0.30215594645E+01  0.26000000000E-02 0. -1.
        -13    1    1    2    0    0 -0.92184124571E+01 -0.24072462419E+02  0.99923018377E+02  0.10319439592E+03  0.10570000000E+00 0. -1.
         13    1    1    2    0    0  0.92184124571E+01  0.24072462419E+02  0.11847993253E+03  0.12125167282E+03  0.10570000000E+00 0.  1.
<mgrwt>
<rscale>  0 0.51731893E+02</rscale>
<asrwt>0</asrwt>
<pdfrwt beam="1">  1        2 0.34065323E-01 0.51731893E+02</pdfrwt>
<pdfrwt beam="2">  1       -2 0.46485502E-03 0.51731893E+02</pdfrwt>
<totfact> 0.69948064E+05</totfact>
</mgrwt>
</event>
<event>
 4    1  0.3704929E-001  0.2289059E+02  0.7818608E-02  0.1693290E+00
         -2   -1    0    0    0  501 -0.00000000000E+00  0.00000000000E+00  0.98144774342E+02  0.98144774377E+02  0.26000000000E-02 0. -1.
          2   -1    0    0  501    0  0.00000000000E+00 -0.00000000000E+00 -0.13347084173E+01  0.13347109497E+01  0.26000000000E-02 0.  1.
        -13    1    1    2    0    0 -0.65398196969E+01 -0.90384093562E+01  0.37306868509E+02  0.38939384892E+02  0.10570000000E+00 0. -1.
         13    1    1    2    0    0  0.65398196969E+01  0.90384093562E+01  0.59503197416E+02  0.60540100434E+02  0.10570000000E+00 0.  1.
<mgrwt>
<rscale>  0 0.22890591E+02</rscale>
<asrwt>0</asrwt>
<pdfrwt beam="2">  1        2 0.20533986E-03 0.22890591E+02</pdfrwt>
<pdfrwt beam="1">  1       -2 0.15099203E-01 0.22890591E+02</pdfrwt>
<totfact> 0.22172832E+06</totfact>
</mgrwt>
</event>
<event>
 4    1  0.3704929E-001  0.2636777E+02  0.7818608E-02  0.1642099E+00
         -2   -1    0    0    0  501 -0.00000000000E+00  0.00000000000E+00  0.15418685748E+02  0.15418685967E+02  0.26000000000E-02 0.  1.
          2   -1    0    0  501    0  0.00000000000E+00 -0.00000000000E+00 -0.11273001092E+02  0.11273001391E+02  0.26000000000E-02 0. -1.
        -13    1    1    2    0    0  0.65671366137E+01  0.80751788848E+01 -0.61177775626E+01  0.12073697533E+02  0.10570000000E+00 0. -1.
         13    1    1    2    0    0 -0.65671366137E+01 -0.80751788848E+01  0.10263462219E+02  0.14617989825E+02  0.10570000000E+00 0.  1.
<mgrwt>
<rscale>  0 0.26367773E+02</rscale>
<asrwt>0</asrwt>
<pdfrwt beam="2">  1        2 0.17343079E-02 0.26367773E+02</pdfrwt>
<pdfrwt beam="1">  1       -2 0.23721055E-02 0.26367773E+02</pdfrwt>
<totfact> 0.20828357E+06</totfact>
</mgrwt>
</event>
<event>
 4    1  0.3704929E-001  0.2810267E+02  0.7818608E-02  0.1620061E+00
          2   -1    0    0  501    0  0.00000000000E+00  0.00000000000E+00  0.11257900120E+03  0.11257900123E+03  0.26000000000E-02 0.  1.
         -2   -1    0    0    0  501 -0.00000000000E+00 -0.00000000000E+00 -0.17537897689E+01  0.17537916962E+01  0.26000000000E-02 0. -1.
        -13    1    1    2    0    0  0.93238899907E+01 -0.99727764367E+01  0.68929018700E+02  0.70268143463E+02  0.10570000000E+00 0.  1.
         13    1    1    2    0    0 -0.93238899907E+01  0.99727764367E+01  0.41896192736E+02  0.44064649467E+02  0.10570000000E+00 0. -1.
<mgrwt>
<rscale>  0 0.28102670E+02</rscale>
<asrwt>0</asrwt>
<pdfrwt beam="1">  1        2 0.17319848E-01 0.28102670E+02</pdfrwt>
<pdfrwt beam="2">  1       -2 0.26981394E-03 0.28102670E+02</pdfrwt>
<totfact> 0.25075509E+06</totfact>
</mgrwt>
</event>
<event>
 4    1  0.3704929E-001  0.3664774E+02  0.7818608E-02  0.1534437E+00
          2   -1    0    0  501    0  0.00000000000E+00  0.00000000000E+00  0.93244629163E+01  0.93244632788E+01  0.26000000000E-02 0.  1.
         -2   -1    0    0    0  501 -0.00000000000E+00 -0.00000000000E+00 -0.36008954246E+02  0.36008954340E+02  0.26000000000E-02 0. -1.
        -13    1    1    2    0    0 -0.15690757347E+02  0.36616046535E+01 -0.24136538995E+02  0.29020525528E+02  0.10570000000E+00 0. -1.
         13    1    1    2    0    0  0.15690757347E+02 -0.36616046535E+01 -0.25479523346E+01  0.16312892091E+02  0.10570000000E+00 0.  1.
<mgrwt>
<rscale>  0 0.36647738E+02</rscale>
<asrwt>0</asrwt>
<pdfrwt beam="1">  1        2 0.14345328E-02 0.36647738E+02</pdfrwt>
<pdfrwt beam="2">  1       -2 0.55398391E-02 0.36647738E+02</pdfrwt>
<totfact> 0.89515894E+05</totfact>
</mgrwt>
</event>
<event>
 4    1  0.3704929E-001  0.4026951E+02  0.7818608E-02  0.1506237E+00
         -2   -1    0    0    0  501 -0.00000000000E+00  0.00000000000E+00  0.13123019189E+02  0.13123019446E+02  0.26000000000E-02 0.  1.
          2   -1    0    0  501    0  0.00000000000E+00 -0.00000000000E+00 -0.30892911591E+02  0.30892911700E+02  0.26000000000E-02 0. -1.
        -13    1    1    2    0    0  0.13639648134E+02 -0.14327032298E+02 -0.12988302151E+02  0.23664551991E+02  0.10570000000E+00 0. -1.
         13    1    1    2    0    0 -0.13639648134E+02  0.14327032298E+02 -0.47815902507E+01  0.20351379155E+02  0.10570000000E+00 0.  1.
<mgrwt>
<rscale>  0 0.40269506E+02</rscale>
<asrwt>0</asrwt>
<pdfrwt beam="2">  1        2 0.47527556E-02 0.40269506E+02</pdfrwt>
<pdfrwt beam="1">  1       -2 0.20189261E-02 0.40269506E+02</pdfrwt>
<totfact> 0.82208867E+05</totfact>
</mgrwt>
</event>
<event>
 4    1  0.3704929E-001  0.3767205E+02  0.7818608E-02  0.1526076E+00
          2   -1    0    0  501    0  0.00000000000E+00  0.00000000000E+00  0.39457467507E+01  0.39457476074E+01  0.26000000000E-02 0. -1.
         -2   -1    0    0    0  501 -0.00000000000E+00 -0.00000000000E+00 -0.89918545171E+02  0.89918545208E+02  0.26000000000E-02 0.  1.
        -13    1    1    2    0    0 -0.11513192796E+02  0.81031818950E+01 -0.11809368545E+02  0.18376276095E+02  0.10570000000E+00 0. -1.
         13    1    1    2    0    0  0.11513192796E+02 -0.81031818950E+01 -0.74163429875E+02  0.75488016721E+02  0.10570000000E+00 0.  1.
<mgrwt>
<rscale>  0 0.37672051E+02</rscale>
<asrwt>0</asrwt>
<pdfrwt beam="1">  1        2 0.60703810E-03 0.37672051E+02</pdfrwt>
<pdfrwt beam="2">  1       -2 0.13833621E-01 0.37672051E+02</pdfrwt>
<totfact> 0.71625631E+05</totfact>
</mgrwt>
</event>
<event>
 4    1  0.3704929E-001  0.2514919E+02  0.7818608E-02  0.1658868E+00
         -2   -1    0    0    0  501 -0.00000000000E+00  0.00000000000E+00  0.69486192874E+01  0.69486197739E+01  0.26000000000E-02 0.  1.
          2   -1    0    0  501    0  0.00000000000E+00 -0.00000000000E+00 -0.22755652912E+02  0.22755653060E+02  0.26000000000E-02 0. -1.
        -13    1    1    2    0    0 -0.80922168140E+01  0.92302257986E+01 -0.11122626396E+02  0.16565175269E+02  0.10570000000E+00 0. -1.
         13    1    1    2    0    0  0.80922168140E+01 -0.92302257986E+01 -0.46844072283E+01  0.13139097565E+02  0.10570000000E+00 0.  1.
<mgrwt>
<rscale>  0 0.25149185E+02</rscale>
<asrwt>0</asrwt>
<pdfrwt beam="2">  1        2 0.35008697E-02 0.25149185E+02</pdfrwt>
<pdfrwt beam="1">  1       -2 0.10690184E-02 0.25149185E+02</pdfrwt>
<totfact> 0.24905626E+06</totfact>
</mgrwt>
</event>
<event>
 4    1  0.3704929E-001  0.3457584E+02  0.7818608E-02  0.1552400E+00
         -2   -1    0    0    0  501 -0.00000000000E+00  0.00000000000E+00  0.21759134908E+02  0.21759135063E+02  0.26000000000E-02 0.  1.
          2   -1    0    0  501    0  0.00000000000E+00 -0.00000000000E+00 -0.13735477735E+02  0.13735477981E+02  0.26000000000E-02 0. -1.
        -13    1    1    2    0    0  0.33869538058E+01  0.16656217821E+02  0.72516213143E+01  0.18479670786E+02  0.10570000000E+00 0. -1.
         13    1    1    2    0    0 -0.33869538058E+01 -0.16656217821E+02  0.77203585889E+00  0.17014942258E+02  0.10570000000E+00 0.  1.
<mgrwt>
<rscale>  0 0.34575837E+02</rscale>
<asrwt>0</asrwt>
<pdfrwt beam="2">  1        2 0.21131505E-02 0.34575837E+02</pdfrwt>
<pdfrwt beam="1">  1       -2 0.33475592E-02 0.34575837E+02</pdfrwt>
<totfact> 0.10899551E+06</totfact>
</mgrwt>
</event>
<event>
 4    1  0.3704929E-001  0.2817831E+02  0.7818608E-02  0.1619144E+00
         -2   -1    0    0    0  501 -0.00000000000E+00  0.00000000000E+00  0.87875094620E+02  0.87875094658E+02  0.26000000000E-02 0.  1.
          2   -1    0    0  501    0  0.00000000000E+00 -0.00000000000E+00 -0.22589352999E+01  0.22589367962E+01  0.26000000000E-02 0. -1.
        -13    1    1    2    0    0 -0.11350882677E+02  0.83277685128E+01  0.41059632288E+02  0.43406207414E+02  0.10570000000E+00 0. -1.
         13    1    1    2    0    0  0.11350882677E+02 -0.83277685128E+01  0.44556527032E+02  0.46727824040E+02  0.10570000000E+00 0.  1.
<mgrwt>
<rscale>  0 0.28178305E+02</rscale>
<asrwt>0</asrwt>
<pdfrwt beam="2">  1        2 0.34752860E-03 0.28178305E+02</pdfrwt>
<pdfrwt beam="1">  1       -2 0.13519247E-01 0.28178305E+02</pdfrwt>
<totfact> 0.14201501E+06</totfact>
</mgrwt>
</event>
<event>
 4    1  0.3704929E-001  0.1057938E+03  0.7818608E-02  0.1268564E+00
         -2   -1    0    0    0  501 -0.00000000000E+00  0.00000000000E+00  0.85659367324E+02  0.85659367363E+02  0.26000000000E-02 0. -1.
          2   -1    0    0  501    0  0.00000000000E+00 -0.00000000000E+00 -0.32665192418E+02  0.32665192521E+02  0.26000000000E-02 0.  1.
        -13    1    1    2    0    0 -0.41576642764E+02 -0.31338012633E+02  0.16042145943E+02  0.54479811657E+02  0.10570000000E+00 0. -1.
         13    1    1    2    0    0  0.41576642764E+02  0.31338012633E+02  0.36952028962E+02  0.63844748227E+02  0.10570000000E+00 0.  1.
<mgrwt>
<rscale>  0 0.10579376E+03</rscale>
<asrwt>0</asrwt>
<pdfrwt beam="2">  1        2 0.50254142E-02 0.10579376E+03</pdfrwt>
<pdfrwt beam="1">  1       -2 0.13178364E-01 0.10579376E+03</pdfrwt>
<totfact> 0.57902529E+04</totfact>
</mgrwt>
</event>
<event>
 4    1  0.3704929E-001  0.3204748E+02  0.7818608E-02  0.1576500E+00
          2   -1    0    0  501    0  0.00000000000E+00  0.00000000000E+00  0.14665867816E+02  0.14665868047E+02  0.26000000000E-02 0.  1.
         -2   -1    0    0    0  501 -0.00000000000E+00 -0.00000000000E+00 -0.17507337149E+02  0.17507337342E+02  0.26000000000E-02 0. -1.
        -13    1    1    2    0    0 -0.96024437854E+01  0.11941416004E+02  0.32821686850E+01  0.15671252235E+02  0.10570000000E+00 0.  1.
         13    1    1    2    0    0  0.96024437854E+01 -0.11941416004E+02 -0.61236380180E+01  0.16501953154E+02  0.10570000000E+00 0. -1.
<mgrwt>
<rscale>  0 0.32047483E+02</rscale>
<asrwt>0</asrwt>
<pdfrwt beam="1">  1        2 0.22562874E-02 0.32047483E+02</pdfrwt>
<pdfrwt beam="2">  1       -2 0.26934365E-02 0.32047483E+02</pdfrwt>
<totfact> 0.13274165E+06</totfact>
</mgrwt>
</event>
<event>
 4    1  0.3704929E-001  0.2243072E+02  0.7818608E-02  0.1700908E+00
          2   -1    0    0  501    0  0.00000000000E+00  0.00000000000E+00  0.10329640921E+03  0.10329640924E+03  0.26000000000E-02 0.  1.
         -2   -1    0    0    0  501 -0.00000000000E+00 -0.00000000000E+00 -0.12177006215E+01  0.12177033973E+01  0.26000000000E-02 0. -1.
        -13    1    1    2    0    0 -0.55116779101E+01  0.97646189587E+01  0.50032454083E+02  0.51273619054E+02  0.10570000000E+00 0.  1.
         13    1    1    2    0    0  0.55116779101E+01 -0.97646189587E+01  0.52046254507E+02  0.53240493587E+02  0.10570000000E+00 0. -1.
<mgrwt>
<rscale>  0 0.22430715E+02</rscale>
<asrwt>0</asrwt>
<pdfrwt beam="1">  1        2 0.15891760E-01 0.22430715E+02</pdfrwt>
<pdfrwt beam="2">  1       -2 0.18733872E-03 0.22430715E+02</pdfrwt>
<totfact> 0.41164189E+06</totfact>
</mgrwt>
</event>
<event>
 4    1  0.3704929E-001  0.3953227E+02  0.7818608E-02  0.1511682E+00
         -2   -1    0    0    0  501 -0.00000000000E+00  0.00000000000E+00  0.50038599071E+01  0.50038605826E+01  0.26000000000E-02 0.  1.
          2   -1    0    0  501    0  0.00000000000E+00 -0.00000000000E+00 -0.78079748829E+02  0.78079748872E+02  0.26000000000E-02 0. -1.
        -13    1    1    2    0    0 -0.15118885548E+02  0.12701817065E+02 -0.38384691494E+02  0.43166104417E+02  0.10570000000E+00 0.  1.
         13    1    1    2    0    0  0.15118885548E+02 -0.12701817065E+02 -0.34691197427E+02  0.39917505037E+02  0.10570000000E+00 0. -1.
<mgrwt>
<rscale>  0 0.39532273E+02</rscale>
<asrwt>0</asrwt>
<pdfrwt beam="2">  1        2 0.12012268E-01 0.39532273E+02</pdfrwt>
<pdfrwt beam="1">  1       -2 0.76982471E-03 0.39532273E+02</pdfrwt>
<totfact> 0.10145302E+06</totfact>
</mgrwt>
</event>
<event>
 4    1  0.3704929E-001  0.3011372E+02  0.7818608E-02  0.1596835E+00
          2   -1    0    0  501    0  0.00000000000E+00  0.00000000000E+00  0.22953822301E+02  0.22953822448E+02  0.26000000000E-02 0.  1.
         -2   -1    0    0    0  501 -0.00000000000E+00 -0.00000000000E+00 -0.98767465958E+01  0.98767469381E+01  0.26000000000E-02 0. -1.
        -13    1    1    2    0    0 -0.77357914747E+01 -0.93227599547E+01  0.16286197646E+02  0.20297973524E+02  0.10570000000E+00 0.  1.
         13    1    1    2    0    0  0.77357914747E+01  0.93227599547E+01 -0.32091219416E+01  0.12532595862E+02  0.10570000000E+00 0. -1.
<mgrwt>
<rscale>  0 0.30113724E+02</rscale>
<asrwt>0</asrwt>
<pdfrwt beam="1">  1        2 0.35313572E-02 0.30113724E+02</pdfrwt>
<pdfrwt beam="2">  1       -2 0.15194995E-02 0.30113724E+02</pdfrwt>
<totfact> 0.16230069E+06</totfact>
</mgrwt>
</event>
<event>
 4    1  0.3704929E-001  0.4582191E+02  0.7818608E-02  0.1469275E+00
          2   -1    0    0  501    0  0.00000000000E+00  0.00000000000E+00  0.12034327023E+02  0.12034327304E+02  0.26000000000E-02 0. -1.
         -2   -1    0    0    0  501 -0.00000000000E+00 -0.00000000000E+00 -0.43617875743E+02  0.43617875821E+02  0.26000000000E-02 0.  1.
        -13    1    1    2    0    0 -0.11584590037E+02 -0.14970644397E+02 -0.11641051161E+00  0.18930072474E+02  0.10570000000E+00 0. -1.
         13    1    1    2    0    0  0.11584590037E+02  0.14970644397E+02 -0.31467138209E+02  0.36722130651E+02  0.10570000000E+00 0.  1.
<mgrwt>
<rscale>  0 0.45821907E+02</rscale>
<asrwt>0</asrwt>
<pdfrwt beam="1">  1        2 0.18514350E-02 0.45821907E+02</pdfrwt>
<pdfrwt beam="2">  1       -2 0.67104424E-02 0.45821907E+02</pdfrwt>
<totfact> 0.51381003E+05</totfact>
</mgrwt>
</event>
<event>
 4    1  0.3704929E-001  0.3092171E+02  0.7818608E-02  0.1588118E+00
         -2   -1    0    0    0  501 -0.00000000000E+00  0.00000000000E+00  0.22096949774E+01  0.22096965070E+01  0.26000000000E-02 0.  1.
          2   -1    0    0  501    0  0.00000000000E+00 -0.00000000000E+00 -0.10817692551E+03  0.10817692554E+03  0.26000000000E-02 0. -1.
        -13    1    1    2    0    0  0.10242977770E+02 -0.10786258180E+02 -0.37937130555E+02  0.40749220929E+02  0.10570000000E+00 0.  1.
         13    1    1    2    0    0 -0.10242977770E+02  0.10786258180E+02 -0.68030099979E+02  0.69637401120E+02  0.10570000000E+00 0. -1.
<mgrwt>
<rscale>  0 0.30921714E+02</rscale>
<asrwt>0</asrwt>
<pdfrwt beam="2">  1        2 0.16642600E-01 0.30921714E+02</pdfrwt>
<pdfrwt beam="1">  1       -2 0.33995328E-03 0.30921714E+02</pdfrwt>
<totfact> 0.19831208E+06</totfact>
</mgrwt>
</event>
<event>
 4    1  0.3704929E-001  0.4755913E+02  0.7818608E-02  0.1458970E+00
         -2   -1    0    0    0  501 -0.00000000000E+00  0.00000000000E+00  0.74824081699E+01  0.74824086216E+01  0.26000000000E-02 0. -1.
          2   -1    0    0  501    0  0.00000000000E+00 -0.00000000000E+00 -0.75572944169E+02  0.75572944214E+02  0.26000000000E-02 0.  1.
        -13    1    1    2    0    0 -0.99372095040E+01 -0.21530875890E+02 -0.37134752766E+02  0.44060501414E+02  0.10570000000E+00 0.  1.
         13    1    1    2    0    0  0.99372095040E+01  0.21530875890E+02 -0.30955783233E+02  0.38994851422E+02  0.10570000000E+00 0. -1.
<mgrwt>
<rscale>  0 0.47559127E+02</rscale>
<asrwt>0</asrwt>
<pdfrwt beam="2">  1        2 0.11626606E-01 0.47559127E+02</pdfrwt>
<pdfrwt beam="1">  1       -2 0.11511398E-02 0.47559127E+02</pdfrwt>
<totfact> 0.63484810E+05</totfact>
</mgrwt>
</event>
<event>
 4    1  0.3704929E-001  0.2114295E+02  0.7818608E-02  0.1723510E+00
         -2   -1    0    0    0  501 -0.00000000000E+00  0.00000000000E+00  0.20953422749E+01  0.20953438880E+01  0.26000000000E-02 0.  1.
          2   -1    0    0  501    0  0.00000000000E+00 -0.00000000000E+00 -0.53335465529E+02  0.53335465592E+02  0.26000000000E-02 0. -1.
        -13    1    1    2    0    0  0.88806031446E+01 -0.57099957299E+01 -0.26996814914E+02  0.28988072572E+02  0.10570000000E+00 0. -1.
         13    1    1    2    0    0 -0.88806031446E+01  0.57099957299E+01 -0.24243308340E+02  0.26442736908E+02  0.10570000000E+00 0.  1.
<mgrwt>
<rscale>  0 0.21142952E+02</rscale>
<asrwt>0</asrwt>
<pdfrwt beam="2">  1        2 0.82054553E-02 0.21142952E+02</pdfrwt>
<pdfrwt beam="1">  1       -2 0.32236052E-03 0.21142952E+02</pdfrwt>
<totfact> 0.41318431E+06</totfact>
</mgrwt>
</event>
<event>
 4    1  0.3704929E-001  0.2871878E+02  0.7818608E-02  0.1612698E+00
         -2   -1    0    0    0  501 -0.00000000000E+00  0.00000000000E+00  0.38737914299E+02  0.38737914386E+02  0.26000000000E-02 0.  1.
          2   -1    0    0  501    0  0.00000000000E+00 -0.00000000000E+00 -0.53227469663E+01  0.53227476013E+01  0.26000000000E-02 0. -1.
        -13    1    1    2    0    0  0.10276174737E+02  0.57649579795E+01  0.29298065093E+02  0.31578826742E+02  0.10570000000E+00 0.  1.
         13    1    1    2    0    0 -0.10276174737E+02 -0.57649579795E+01  0.41171022393E+01  0.12481835245E+02  0.10570000000E+00 0. -1.
<mgrwt>
<rscale>  0 0.28718784E+02</rscale>
<asrwt>0</asrwt>
<pdfrwt beam="2">  1        2 0.81888418E-03 0.28718784E+02</pdfrwt>
<pdfrwt beam="1">  1       -2 0.59596793E-02 0.28718784E+02</pdfrwt>
<totfact> 0.15588855E+06</totfact>
</mgrwt>
</event>
<event>
 4    1  0.3704929E-001  0.2543774E+02  0.7818608E-02  0.1654793E+00
         -2   -1    0    0    0  501 -0.00000000000E+00  0.00000000000E+00  0.98879176601E+01  0.98879180019E+01  0.26000000000E-02 0. -1.
          2   -1    0    0  501    0  0.00000000000E+00 -0.00000000000E+00 -0.16360336896E+02  0.16360337103E+02  0.26000000000E-02 0.  1.
        -13    1    1    2    0    0  0.62138261505E+01 -0.86944261662E+01 -0.10351859687E+02  0.14878738295E+02  0.10570000000E+00 0.  1.
         13    1    1    2    0    0 -0.62138261505E+01  0.86944261662E+01  0.38794404505E+01  0.11369516810E+02  0.10570000000E+00 0. -1.
<mgrwt>
<rscale>  0 0.25437741E+02</rscale>
<asrwt>0</asrwt>
<pdfrwt beam="2">  1        2 0.25169750E-02 0.25437741E+02</pdfrwt>
<pdfrwt beam="1">  1       -2 0.15212181E-02 0.25437741E+02</pdfrwt>
<totfact> 0.23479559E+06</totfact>
</mgrwt>
</event>
<event>
 4    1  0.3704929E-001  0.3518133E+02  0.7818608E-02  0.1546996E+00
          2   -1    0    0  501    0  0.00000000000E+00  0.00000000000E+00  0.64960378789E+02  0.64960378841E+02  0.26000000000E-02 0. -1.
         -2   -1    0    0    0  501 -0.00000000000E+00 -0.00000000000E+00 -0.47633888096E+01  0.47633895192E+01  0.26000000000E-02 0.  1.
        -13    1    1    2    0    0  0.83980612938E+01 -0.94304840393E+01  0.58293365369E+01  0.13908767007E+02  0.10570000000E+00 0.  1.
         13    1    1    2    0    0 -0.83980612938E+01  0.94304840393E+01  0.54367653442E+02  0.55815001353E+02  0.10570000000E+00 0. -1.
<mgrwt>
<rscale>  0 0.35181334E+02</rscale>
<asrwt>0</asrwt>
<pdfrwt beam="1">  1        2 0.99939037E-02 0.35181334E+02</pdfrwt>
<pdfrwt beam="2">  1       -2 0.73282917E-03 0.35181334E+02</pdfrwt>
<totfact> 0.12988717E+06</totfact>
</mgrwt>
</event>
<event>
 4    1  0.3704929E-001  0.2456443E+02  0.7818608E-02  0.1667338E+00
          2   -1    0    0  501    0  0.00000000000E+00  0.00000000000E+00  0.12126723050E+03  0.12126723053E+03  0.26000000000E-02 0.  1.
         -2   -1    0    0    0  501 -0.00000000000E+00 -0.00000000000E+00 -0.12439682700E+01  0.12439709871E+01  0.26000000000E-02 0. -1.
        -13    1    1    2    0    0  0.95331327683E+01  0.76459543805E+01  0.53902709147E+02  0.55270737870E+02  0.10570000000E+00 0.  1.
         13    1    1    2    0    0 -0.95331327683E+01 -0.76459543805E+01  0.66120553087E+02  0.67240463649E+02  0.10570000000E+00 0. -1.
<mgrwt>
<rscale>  0 0.24564426E+02</rscale>
<asrwt>0</asrwt>
<pdfrwt beam="1">  1        2 0.18656505E-01 0.24564426E+02</pdfrwt>
<pdfrwt beam="2">  1       -2 0.19137987E-03 0.24564426E+02</pdfrwt>
<totfact> 0.34851397E+06</totfact>
</mgrwt>
</event>
<event>
 4    1  0.3704929E-001  0.2545746E+02  0.7818608E-02  0.1654517E+00
         -2   -1    0    0    0  501 -0.00000000000E+00  0.00000000000E+00  0.41443006650E+01  0.41443014806E+01  0.26000000000E-02 0. -1.
          2   -1    0    0  501    0  0.00000000000E+00 -0.00000000000E+00 -0.39094787974E+02  0.39094788061E+02  0.26000000000E-02 0.  1.
        -13    1    1    2    0    0 -0.92123954750E+01 -0.44587333277E+01 -0.46226602911E+01  0.11230703181E+02  0.10570000000E+00 0. -1.
         13    1    1    2    0    0  0.92123954750E+01  0.44587333277E+01 -0.30327827018E+02  0.32008386360E+02  0.10570000000E+00 0.  1.
<mgrwt>
<rscale>  0 0.25457461E+02</rscale>
<asrwt>0</asrwt>
<pdfrwt beam="2">  1        2 0.60145826E-02 0.25457461E+02</pdfrwt>
<pdfrwt beam="1">  1       -2 0.63758481E-03 0.25457461E+02</pdfrwt>
<totfact> 0.25802653E+06</totfact>
</mgrwt>
</event>
<event>
 4    1  0.3704929E-001  0.2349293E+02  0.7818608E-02  0.1683642E+00
          2   -1    0    0  501    0  0.00000000000E+00  0.00000000000E+00  0.64059279023E+02  0.64059279075E+02  0.26000000000E-02 0. -1.
         -2   -1    0    0    0  501 -0.00000000000E+00 -0.00000000000E+00 -0.21539333155E+01  0.21539348847E+01  0.26000000000E-02 0.  1.
        -13    1    1    2    0    0  0.90553832517E+01 -0.52910671945E+01  0.45859200312E+02  0.47043307533E+02  0.10570000000E+00 0. -1.
         13    1    1    2    0    0 -0.90553832517E+01  0.52910671945E+01  0.16046145395E+02  0.19169906427E+02  0.10570000000E+00 0.  1.
<mgrwt>
<rscale>  0 0.23492932E+02</rscale>
<asrwt>0</asrwt>
<pdfrwt beam="1">  1        2 0.98552728E-02 0.23492932E+02</pdfrwt>
<pdfrwt beam="2">  1       -2 0.33137451E-03 0.23492932E+02</pdfrwt>
<totfact> 0.33568208E+06</totfact>
</mgrwt>
</event>
<event>
 4    1  0.3704929E-001  0.2998557E+02  0.7818608E-02  0.1598248E+00
         -2   -1    0    0    0  501 -0.00000000000E+00  0.00000000000E+00  0.21251411750E+01  0.21251427655E+01  0.26000000000E-02 0. -1.
          2   -1    0    0  501    0  0.00000000000E+00 -0.00000000000E+00 -0.10577348031E+03  0.10577348034E+03  0.26000000000E-02 0.  1.
        -13    1    1    2    0    0 -0.10833164936E+02  0.74653274707E+01 -0.25955074289E+02  0.29099237630E+02  0.10570000000E+00 0. -1.
         13    1    1    2    0    0  0.10833164936E+02 -0.74653274707E+01 -0.77693264846E+02  0.78799385478E+02  0.10570000000E+00 0.  1.
<mgrwt>
<rscale>  0 0.29985574E+02</rscale>
<asrwt>0</asrwt>
<pdfrwt beam="2">  1        2 0.16272839E-01 0.29985574E+02</pdfrwt>
<pdfrwt beam="1">  1       -2 0.32694500E-03 0.29985574E+02</pdfrwt>
<totfact> 0.21206717E+06</totfact>
</mgrwt>
</event>
<event>
 4    1  0.3704929E-001  0.4057362E+02  0.7818608E-02  0.1504032E+00
          2   -1    0    0  501    0  0.00000000000E+00  0.00000000000E+00  0.92793640832E+01  0.92793644474E+01  0.26000000000E-02 0. -1.
         -2   -1    0    0    0  501 -0.00000000000E+00 -0.00000000000E+00 -0.44351606773E+02  0.44351606849E+02  0.26000000000E-02 0.  1.
        -13    1    1    2    0    0  0.11685819528E+02 -0.66349509997E+01  0.25521560933E+01  0.13678655856E+02  0.10570000000E+00 0. -1.
         13    1    1    2    0    0 -0.11685819528E+02  0.66349509997E+01 -0.37624398783E+02  0.39952315441E+02  0.10570000000E+00 0.  1.
<mgrwt>
<rscale>  0 0.40573623E+02</rscale>
<asrwt>0</asrwt>
<pdfrwt beam="1">  1        2 0.14275945E-02 0.40573623E+02</pdfrwt>
<pdfrwt beam="2">  1       -2 0.68233240E-02 0.40573623E+02</pdfrwt>
<totfact> 0.68396671E+05</totfact>
</mgrwt>
</event>
<event>
 4    1  0.3704929E-001  0.2316240E+02  0.7818608E-02  0.1688891E+00
          2   -1    0    0  501    0  0.00000000000E+00  0.00000000000E+00  0.11525687432E+02  0.11525687725E+02  0.26000000000E-02 0. -1.
         -2   -1    0    0    0  501 -0.00000000000E+00 -0.00000000000E+00 -0.11636980093E+02  0.11636980383E+02  0.26000000000E-02 0.  1.
        -13    1    1    2    0    0  0.24201449346E+01  0.11315359533E+02  0.41187012522E+00  0.11579087717E+02  0.10570000000E+00 0.  1.
         13    1    1    2    0    0 -0.24201449346E+01 -0.11315359533E+02 -0.52316278639E+00  0.11583580391E+02  0.10570000000E+00 0. -1.
<mgrwt>
<rscale>  0 0.23162401E+02</rscale>
<asrwt>0</asrwt>
<pdfrwt beam="1">  1        2 0.17731827E-02 0.23162401E+02</pdfrwt>
<pdfrwt beam="2">  1       -2 0.17903047E-02 0.23162401E+02</pdfrwt>
<totfact> 0.28398180E+06</totfact>
</mgrwt>
</event>
<event>
 4    1  0.3704929E-001  0.5310034E+02  0.7818608E-02  0.1429302E+00
         -2   -1    0    0    0  501 -0.00000000000E+00  0.00000000000E+00  0.25932599614E+02  0.25932599745E+02  0.26000000000E-02 0. -1.
          2   -1    0    0  501    0  0.00000000000E+00 -0.00000000000E+00 -0.27182447067E+02  0.27182447191E+02  0.26000000000E-02 0.  1.
        -13    1    1    2    0    0  0.23091873110E+02 -0.46806862933E+00 -0.13722314389E+02  0.26865717497E+02  0.10570000000E+00 0.  1.
         13    1    1    2    0    0 -0.23091873110E+02  0.46806862933E+00  0.12472466936E+02  0.26249329438E+02  0.10570000000E+00 0. -1.
<mgrwt>
<rscale>  0 0.53100340E+02</rscale>
<asrwt>0</asrwt>
<pdfrwt beam="2">  1        2 0.41819150E-02 0.53100340E+02</pdfrwt>
<pdfrwt beam="1">  1       -2 0.39896307E-02 0.53100340E+02</pdfrwt>
<totfact> 0.39417005E+05</totfact>
</mgrwt>
</event>
<event>
 4    1  0.3704929E-001  0.2902327E+02  0.7818608E-02  0.1609143E+00
          2   -1    0    0  501    0  0.00000000000E+00  0.00000000000E+00  0.22119800715E+02  0.22119800868E+02  0.26000000000E-02 0.  1.
         -2   -1    0    0    0  501 -0.00000000000E+00 -0.00000000000E+00 -0.95203210795E+01  0.95203214346E+01  0.26000000000E-02 0. -1.
        -13    1    1    2    0    0 -0.11736474251E+02  0.74204153139E+01  0.17043342837E+01  0.13990115050E+02  0.10570000000E+00 0.  1.
         13    1    1    2    0    0  0.11736474251E+02 -0.74204153139E+01  0.10895145352E+02  0.17650007252E+02  0.10570000000E+00 0. -1.
<mgrwt>
<rscale>  0 0.29023274E+02</rscale>
<asrwt>0</asrwt>
<pdfrwt beam="1">  1        2 0.34030463E-02 0.29023274E+02</pdfrwt>
<pdfrwt beam="2">  1       -2 0.14646648E-02 0.29023274E+02</pdfrwt>
<totfact> 0.17668425E+06</totfact>
</mgrwt>
</event>
<event>
 4    1  0.3704929E-001  0.2715065E+02  0.7818608E-02  0.1631904E+00
          2   -1    0    0  501    0  0.00000000000E+00  0.00000000000E+00  0.37862422157E+01  0.37862431084E+01  0.26000000000E-02 0. -1.
         -2   -1    0    0    0  501 -0.00000000000E+00 -0.00000000000E+00 -0.48673432687E+02  0.48673432757E+02  0.26000000000E-02 0.  1.
        -13    1    1    2    0    0 -0.71088176198E+01  0.10141723933E+02 -0.11705107094E+02  0.17041436467E+02  0.10570000000E+00 0. -1.
         13    1    1    2    0    0  0.71088176198E+01 -0.10141723933E+02 -0.33182083378E+02  0.35418239398E+02  0.10570000000E+00 0.  1.
<mgrwt>
<rscale>  0 0.27150649E+02</rscale>
<asrwt>0</asrwt>
<pdfrwt beam="1">  1        2 0.58249891E-03 0.27150649E+02</pdfrwt>
<pdfrwt beam="2">  1       -2 0.74882200E-02 0.27150649E+02</pdfrwt>
<totfact> 0.17181920E+06</totfact>
</mgrwt>
</event>
<event>
 4    1  0.3704929E-001  0.5980557E+02  0.7818608E-02  0.1398649E+00
         -2   -1    0    0    0  501 -0.00000000000E+00  0.00000000000E+00  0.33421189690E+02  0.33421189792E+02  0.26000000000E-02 0. -1.
          2   -1    0    0  501    0  0.00000000000E+00 -0.00000000000E+00 -0.26754779757E+02  0.26754779883E+02  0.26000000000E-02 0.  1.
        -13    1    1    2    0    0  0.21896490779E+02 -0.10658215443E+02 -0.14126831896E+02  0.28153728293E+02  0.10570000000E+00 0.  1.
         13    1    1    2    0    0 -0.21896490779E+02  0.10658215443E+02  0.20793241829E+02  0.32022241382E+02  0.10570000000E+00 0. -1.
<mgrwt>
<rscale>  0 0.59805571E+02</rscale>
<asrwt>0</asrwt>
<pdfrwt beam="2">  1        2 0.41161200E-02 0.59805571E+02</pdfrwt>
<pdfrwt beam="1">  1       -2 0.51417215E-02 0.59805571E+02</pdfrwt>
<totfact> 0.28548209E+05</totfact>
</mgrwt>
</event>
<event>
 4    1  0.3704929E-001  0.3253853E+02  0.7818608E-02  0.1571612E+00
          2   -1    0    0  501    0  0.00000000000E+00  0.00000000000E+00  0.94176969407E+01  0.94176972996E+01  0.26000000000E-02 0. -1.
         -2   -1    0    0    0  501 -0.00000000000E+00 -0.00000000000E+00 -0.28105492179E+02  0.28105492299E+02  0.26000000000E-02 0.  1.
        -13    1    1    2    0    0  0.91708038885E+00 -0.15308618065E+02 -0.30822621541E+01  0.15643092277E+02  0.10570000000E+00 0. -1.
         13    1    1    2    0    0 -0.91708038885E+00  0.15308618065E+02 -0.15605533084E+02  0.21880097322E+02  0.10570000000E+00 0.  1.
<mgrwt>
<rscale>  0 0.32538532E+02</rscale>
<asrwt>0</asrwt>
<pdfrwt beam="1">  1        2 0.14488765E-02 0.32538532E+02</pdfrwt>
<pdfrwt beam="2">  1       -2 0.43239219E-02 0.32538532E+02</pdfrwt>
<totfact> 0.12164940E+06</totfact>
</mgrwt>
</event>
<event>
 4    1  0.3704929E-001  0.2162352E+02  0.7818608E-02  0.1714845E+00
         -2   -1    0    0    0  501 -0.00000000000E+00  0.00000000000E+00  0.24119749714E+02  0.24119749854E+02  0.26000000000E-02 0.  1.
          2   -1    0    0  501    0  0.00000000000E+00 -0.00000000000E+00 -0.48464090139E+01  0.48464097113E+01  0.26000000000E-02 0. -1.
        -13    1    1    2    0    0  0.47367819793E+01 -0.97176587459E+01  0.97895045889E+01  0.14584771771E+02  0.10570000000E+00 0.  1.
         13    1    1    2    0    0 -0.47367819793E+01  0.97176587459E+01  0.94838361108E+01  0.14381387794E+02  0.10570000000E+00 0. -1.
<mgrwt>
<rscale>  0 0.21623523E+02</rscale>
<asrwt>0</asrwt>
<pdfrwt beam="2">  1        2 0.74560146E-03 0.21623523E+02</pdfrwt>
<pdfrwt beam="1">  1       -2 0.37107308E-02 0.21623523E+02</pdfrwt>
<totfact> 0.31043391E+06</totfact>
</mgrwt>
</event>
<event>
 4    1  0.3704929E-001  0.3750592E+02  0.7818608E-02  0.1527411E+00
         -2   -1    0    0    0  501 -0.00000000000E+00  0.00000000000E+00  0.53352037890E+01  0.53352044226E+01  0.26000000000E-02 0. -1.
          2   -1    0    0  501    0  0.00000000000E+00 -0.00000000000E+00 -0.65915651455E+02  0.65915651506E+02  0.26000000000E-02 0.  1.
        -13    1    1    2    0    0 -0.15565423550E+02  0.68805174809E+01 -0.45253284212E+02  0.48347645605E+02  0.10570000000E+00 0.  1.
         13    1    1    2    0    0  0.15565423550E+02 -0.68805174809E+01 -0.15327163454E+02  0.22903210324E+02  0.10570000000E+00 0. -1.
<mgrwt>
<rscale>  0 0.37505917E+02</rscale>
<asrwt>0</asrwt>
<pdfrwt beam="2">  1        2 0.10140869E-01 0.37505917E+02</pdfrwt>
<pdfrwt beam="1">  1       -2 0.82080068E-03 0.37505917E+02</pdfrwt>
<totfact> 0.11141693E+06</totfact>
</mgrwt>
</event>
<event>
 4    1  0.3704929E-001  0.4503938E+02  0.7818608E-02  0.1474096E+00
          2   -1    0    0  501    0  0.00000000000E+00  0.00000000000E+00  0.11951003748E+03  0.11951003751E+03  0.26000000000E-02 0. -1.
         -2   -1    0    0    0  501 -0.00000000000E+00 -0.00000000000E+00 -0.42434624238E+01  0.42434632203E+01  0.26000000000E-02 0.  1.
        -13    1    1    2    0    0 -0.70587954734E+01 -0.17786861228E+02  0.90251562078E+02  0.92258087211E+02  0.10570000000E+00 0. -1.
         13    1    1    2    0    0  0.70587954734E+01  0.17786861228E+02  0.25015012980E+02  0.31495413519E+02  0.10570000000E+00 0.  1.
<mgrwt>
<rscale>  0 0.45039379E+02</rscale>
<asrwt>0</asrwt>
<pdfrwt beam="1">  1        2 0.18386160E-01 0.45039379E+02</pdfrwt>
<pdfrwt beam="2">  1       -2 0.65284043E-03 0.45039379E+02</pdfrwt>
<totfact> 0.81643482E+05</totfact>
</mgrwt>
</event>
<event>
 4    1  0.3704929E-001  0.4086885E+02  0.7818608E-02  0.1501913E+00
         -2   -1    0    0    0  501 -0.00000000000E+00  0.00000000000E+00  0.59460023898E+01  0.59460029582E+01  0.26000000000E-02 0. -1.
          2   -1    0    0  501    0  0.00000000000E+00 -0.00000000000E+00 -0.70226298399E+02  0.70226298447E+02  0.26000000000E-02 0.  1.
        -13    1    1    2    0    0  0.16987091658E+02 -0.87905711341E+01 -0.45544023776E+02  0.49397415905E+02  0.10570000000E+00 0.  1.
         13    1    1    2    0    0 -0.16987091658E+02  0.87905711341E+01 -0.18736272233E+02  0.26774885500E+02  0.10570000000E+00 0. -1.
<mgrwt>
<rscale>  0 0.40868852E+02</rscale>
<asrwt>0</asrwt>
<pdfrwt beam="2">  1        2 0.10804045E-01 0.40868852E+02</pdfrwt>
<pdfrwt beam="1">  1       -2 0.91476970E-03 0.40868852E+02</pdfrwt>
<totfact> 0.91335903E+05</totfact>
</mgrwt>
</event>
<event>
 4    1  0.3704929E-001  0.2698538E+02  0.7818608E-02  0.1634021E+00
          2   -1    0    0  501    0  0.00000000000E+00  0.00000000000E+00  0.19646812938E+02  0.19646813110E+02  0.26000000000E-02 0.  1.
         -2   -1    0    0    0  501 -0.00000000000E+00 -0.00000000000E+00 -0.92662686402E+01  0.92662690050E+01  0.26000000000E-02 0. -1.
        -13    1    1    2    0    0 -0.10910535393E+02 -0.71705404444E+01  0.15434479760E+01  0.13147236857E+02  0.10570000000E+00 0. -1.
         13    1    1    2    0    0  0.10910535393E+02  0.71705404444E+01  0.88370963214E+01  0.15765845258E+02  0.10570000000E+00 0.  1.
<mgrwt>
<rscale>  0 0.26985378E+02</rscale>
<asrwt>0</asrwt>
<pdfrwt beam="1">  1        2 0.30225866E-02 0.26985378E+02</pdfrwt>
<pdfrwt beam="2">  1       -2 0.14255798E-02 0.26985378E+02</pdfrwt>
<totfact> 0.20770843E+06</totfact>
</mgrwt>
</event>
<event>
 4    1  0.3704929E-001  0.3333442E+02  0.7818608E-02  0.1563909E+00
         -2   -1    0    0    0  501 -0.00000000000E+00  0.00000000000E+00  0.51972484752E+01  0.51972491256E+01  0.26000000000E-02 0.  1.
          2   -1    0    0  501    0  0.00000000000E+00 -0.00000000000E+00 -0.53450557275E+02  0.53450557338E+02  0.26000000000E-02 0. -1.
        -13    1    1    2    0    0  0.78987088285E+01  0.13653739381E+02 -0.33596365152E+02  0.37115241130E+02  0.10570000000E+00 0. -1.
         13    1    1    2    0    0 -0.78987088285E+01 -0.13653739381E+02 -0.14656943648E+02  0.21532565333E+02  0.10570000000E+00 0.  1.
<mgrwt>
<rscale>  0 0.33334418E+02</rscale>
<asrwt>0</asrwt>
<pdfrwt beam="2">  1        2 0.82231624E-02 0.33334418E+02</pdfrwt>
<pdfrwt beam="1">  1       -2 0.79957678E-03 0.33334418E+02</pdfrwt>
<totfact> 0.14276956E+06</totfact>
</mgrwt>
</event>
<event>
 4    1  0.3704929E-001  0.2192401E+02  0.7818608E-02  0.1709569E+00
          2   -1    0    0  501    0  0.00000000000E+00  0.00000000000E+00  0.56888181891E+01  0.56888187832E+01  0.26000000000E-02 0.  1.
         -2   -1    0    0    0  501 -0.00000000000E+00 -0.00000000000E+00 -0.21123119401E+02  0.21123119561E+02  0.26000000000E-02 0. -1.
        -13    1    1    2    0    0  0.28490560229E+01 -0.98221512767E+01 -0.28926775518E+01  0.10628759656E+02  0.10570000000E+00 0. -1.
         13    1    1    2    0    0 -0.28490560229E+01  0.98221512767E+01 -0.12541623660E+02  0.16183178688E+02  0.10570000000E+00 0.  1.
<mgrwt>
<rscale>  0 0.21924014E+02</rscale>
<asrwt>0</asrwt>
<pdfrwt beam="1">  1        2 0.87520287E-03 0.21924014E+02</pdfrwt>
<pdfrwt beam="2">  1       -2 0.32497107E-02 0.21924014E+02</pdfrwt>
<totfact> 0.30478424E+06</totfact>
</mgrwt>
</event>
<event>
 4    1  0.3704929E-001  0.2124797E+02  0.7818608E-02  0.1721592E+00
          2   -1    0    0  501    0  0.00000000000E+00  0.00000000000E+00  0.78736238958E+02  0.78736239001E+02  0.26000000000E-02 0. -1.
         -2   -1    0    0    0  501 -0.00000000000E+00 -0.00000000000E+00 -0.14335069244E+01  0.14335092822E+01  0.26000000000E-02 0.  1.
        -13    1    1    2    0    0  0.27152412306E+01  0.10216033254E+02  0.42640819895E+02  0.43931657882E+02  0.10570000000E+00 0. -1.
         13    1    1    2    0    0 -0.27152412306E+01 -0.10216033254E+02  0.34661912139E+02  0.36238090402E+02  0.10570000000E+00 0.  1.
<mgrwt>
<rscale>  0 0.21247968E+02</rscale>
<asrwt>0</asrwt>
<pdfrwt beam="1">  1        2 0.12113268E-01 0.21247968E+02</pdfrwt>
<pdfrwt beam="2">  1       -2 0.22053971E-03 0.21247968E+02</pdfrwt>
<totfact> 0.43818590E+06</totfact>
</mgrwt>
</event>
<event>
 4    1  0.3704929E-001  0.2520817E+02  0.7818608E-02  0.1658030E+00
          2   -1    0    0  501    0  0.00000000000E+00  0.00000000000E+00  0.68131711886E+02  0.68131711935E+02  0.26000000000E-02 0.  1.
         -2   -1    0    0    0  501 -0.00000000000E+00 -0.00000000000E+00 -0.23317030307E+01  0.23317044803E+01  0.26000000000E-02 0. -1.
        -13    1    1    2    0    0  0.86230683704E+01  0.61076098597E+01  0.52102367561E+02  0.53163221161E+02  0.10570000000E+00 0.  1.
         13    1    1    2    0    0 -0.86230683704E+01 -0.61076098597E+01  0.13697641294E+02  0.17300195254E+02  0.10570000000E+00 0. -1.
<mgrwt>
<rscale>  0 0.25208171E+02</rscale>
<asrwt>0</asrwt>
<pdfrwt beam="1">  1        2 0.10481801E-01 0.25208171E+02</pdfrwt>
<pdfrwt beam="2">  1       -2 0.35872368E-03 0.25208171E+02</pdfrwt>
<totfact> 0.28881994E+06</totfact>
</mgrwt>
</event>
<event>
 4    1  0.3704929E-001  0.2282377E+02  0.7818608E-02  0.1694383E+00
         -2   -1    0    0    0  501 -0.00000000000E+00  0.00000000000E+00  0.51523549334E+01  0.51523555894E+01  0.26000000000E-02 0. -1.
          2   -1    0    0  501    0  0.00000000000E+00 -0.00000000000E+00 -0.25276046370E+02  0.25276046503E+02  0.26000000000E-02 0.  1.
        -13    1    1    2    0    0  0.81761825980E+01  0.79587253407E+01 -0.10287823427E+02  0.15363650422E+02  0.10570000000E+00 0. -1.
         13    1    1    2    0    0 -0.81761825980E+01 -0.79587253407E+01 -0.98358680097E+01  0.15064751671E+02  0.10570000000E+00 0.  1.
<mgrwt>
<rscale>  0 0.22823775E+02</rscale>
<asrwt>0</asrwt>
<pdfrwt beam="2">  1        2 0.38886225E-02 0.22823775E+02</pdfrwt>
<pdfrwt beam="1">  1       -2 0.79267006E-03 0.22823775E+02</pdfrwt>
<totfact> 0.31542704E+06</totfact>
</mgrwt>
</event>
<event>
 4    1  0.3704929E-001  0.4663515E+02  0.7818608E-02  0.1464384E+00
         -2   -1    0    0    0  501 -0.00000000000E+00  0.00000000000E+00  0.55333524414E+01  0.55333530522E+01  0.26000000000E-02 0. -1.
          2   -1    0    0  501    0  0.00000000000E+00 -0.00000000000E+00 -0.98260369103E+02  0.98260369138E+02  0.26000000000E-02 0.  1.
        -13    1    1    2    0    0 -0.23105634512E+02  0.92255436204E+00 -0.53031808493E+02  0.57854173032E+02  0.10570000000E+00 0.  1.
         13    1    1    2    0    0  0.23105634512E+02 -0.92255436204E+00 -0.39695208169E+02  0.45939549158E+02  0.10570000000E+00 0. -1.
<mgrwt>
<rscale>  0 0.46635149E+02</rscale>
<asrwt>0</asrwt>
<pdfrwt beam="2">  1        2 0.15116979E-01 0.46635149E+02</pdfrwt>
<pdfrwt beam="1">  1       -2 0.85128511E-03 0.46635149E+02</pdfrwt>
<totfact> 0.71047216E+05</totfact>
</mgrwt>
</event>
<event>
 4    1  0.3704929E-001  0.2301451E+02  0.7818608E-02  0.1691275E+00
          2   -1    0    0  501    0  0.00000000000E+00  0.00000000000E+00  0.16664309789E+02  0.16664309992E+02  0.26000000000E-02 0.  1.
         -2   -1    0    0    0  501 -0.00000000000E+00 -0.00000000000E+00 -0.79461365781E+01  0.79461370034E+01  0.26000000000E-02 0. -1.
        -13    1    1    2    0    0  0.11357278790E+02 -0.12423412555E+01  0.28950118247E+01  0.11786579625E+02  0.10570000000E+00 0. -1.
         13    1    1    2    0    0 -0.11357278790E+02  0.12423412555E+01  0.58231613863E+01  0.12823867370E+02  0.10570000000E+00 0.  1.
<mgrwt>
<rscale>  0 0.23014508E+02</rscale>
<asrwt>0</asrwt>
<pdfrwt beam="1">  1        2 0.25637400E-02 0.23014508E+02</pdfrwt>
<pdfrwt beam="2">  1       -2 0.12224826E-02 0.23014508E+02</pdfrwt>
<totfact> 0.29739758E+06</totfact>
</mgrwt>
</event>
<event>
 4    1  0.3704929E-001  0.3652183E+02  0.7818608E-02  0.1535487E+00
          2   -1    0    0  501    0  0.00000000000E+00  0.00000000000E+00  0.28747035591E+02  0.28747035708E+02  0.26000000000E-02 0. -1.
         -2   -1    0    0    0  501 -0.00000000000E+00 -0.00000000000E+00 -0.11599840559E+02  0.11599840851E+02  0.26000000000E-02 0.  1.
        -13    1    1    2    0    0 -0.74615053845E+01  0.13016220385E+02  0.20073111021E+02  0.25060666676E+02  0.10570000000E+00 0. -1.
         13    1    1    2    0    0  0.74615053845E+01 -0.13016220385E+02 -0.29259159897E+01  0.15286209883E+02  0.10570000000E+00 0.  1.
<mgrwt>
<rscale>  0 0.36521831E+02</rscale>
<asrwt>0</asrwt>
<pdfrwt beam="1">  1        2 0.44226208E-02 0.36521831E+02</pdfrwt>
<pdfrwt beam="2">  1       -2 0.17845909E-02 0.36521831E+02</pdfrwt>
<totfact> 0.10394538E+06</totfact>
</mgrwt>
</event>
<event>
 4    1  0.3704929E-001  0.3546243E+02  0.7818608E-02  0.1544532E+00
          2   -1    0    0  501    0  0.00000000000E+00  0.00000000000E+00  0.79350738268E+01  0.79350742527E+01  0.26000000000E-02 0. -1.
         -2   -1    0    0    0  501 -0.00000000000E+00 -0.00000000000E+00 -0.39621059395E+02  0.39621059480E+02  0.26000000000E-02 0.  1.
        -13    1    1    2    0    0  0.87030945141E+01  0.70890659809E+01 -0.34249123642E+02  0.36041813958E+02  0.10570000000E+00 0.  1.
         13    1    1    2    0    0 -0.87030945141E+01 -0.70890659809E+01  0.25631380744E+01  0.11514319775E+02  0.10570000000E+00 0. -1.
<mgrwt>
<rscale>  0 0.35462433E+02</rscale>
<asrwt>0</asrwt>
<pdfrwt beam="1">  1        2 0.12207807E-02 0.35462433E+02</pdfrwt>
<pdfrwt beam="2">  1       -2 0.60955475E-02 0.35462433E+02</pdfrwt>
<totfact> 0.95419871E+05</totfact>
</mgrwt>
</event>
<event>
 4    1  0.3704929E-001  0.4333112E+02  0.7818608E-02  0.1485037E+00
          2   -1    0    0  501    0  0.00000000000E+00  0.00000000000E+00  0.89312050432E+02  0.89312050470E+02  0.26000000000E-02 0. -1.
         -2   -1    0    0    0  501 -0.00000000000E+00 -0.00000000000E+00 -0.52556904454E+01  0.52556910885E+01  0.26000000000E-02 0.  1.
        -13    1    1    2    0    0 -0.54081397000E+01  0.12351088353E+02  0.79038979062E+02  0.80180850221E+02  0.10570000000E+00 0. -1.
         13    1    1    2    0    0  0.54081397000E+01 -0.12351088353E+02  0.50173809245E+01  0.14386891337E+02  0.10570000000E+00 0.  1.
<mgrwt>
<rscale>  0 0.43331121E+02</rscale>
<asrwt>0</asrwt>
<pdfrwt beam="1">  1        2 0.13740316E-01 0.43331121E+02</pdfrwt>
<pdfrwt beam="2">  1       -2 0.80856779E-03 0.43331121E+02</pdfrwt>
<totfact> 0.83385877E+05</totfact>
</mgrwt>
</event>
<event>
 4    1  0.3704929E-001  0.3213412E+02  0.7818608E-02  0.1575630E+00
         -2   -1    0    0    0  501 -0.00000000000E+00  0.00000000000E+00  0.82501404130E+02  0.82501404170E+02  0.26000000000E-02 0. -1.
          2   -1    0    0  501    0  0.00000000000E+00 -0.00000000000E+00 -0.31290412280E+01  0.31290423082E+01  0.26000000000E-02 0.  1.
        -13    1    1    2    0    0  0.11884646399E+02  0.10491292000E+02  0.32723422739E+02  0.36361320054E+02  0.10570000000E+00 0.  1.
         13    1    1    2    0    0 -0.11884646399E+02 -0.10491292000E+02  0.46648940163E+02  0.49269126425E+02  0.10570000000E+00 0. -1.
<mgrwt>
<rscale>  0 0.32134115E+02</rscale>
<asrwt>0</asrwt>
<pdfrwt beam="2">  1        2 0.48139110E-03 0.32134115E+02</pdfrwt>
<pdfrwt beam="1">  1       -2 0.12692522E-01 0.32134115E+02</pdfrwt>
<totfact> 0.10616728E+06</totfact>
</mgrwt>
</event>
<event>
 4    1  0.3704929E-001  0.3890374E+02  0.7818608E-02  0.1516437E+00
         -2   -1    0    0    0  501 -0.00000000000E+00  0.00000000000E+00  0.30684620715E+02  0.30684620825E+02  0.26000000000E-02 0. -1.
          2   -1    0    0  501    0  0.00000000000E+00 -0.00000000000E+00 -0.12331103256E+02  0.12331103530E+02  0.26000000000E-02 0.  1.
        -13    1    1    2    0    0 -0.17473242452E+02  0.57022391954E+01  0.21371684193E+01  0.18504280450E+02  0.10570000000E+00 0. -1.
         13    1    1    2    0    0  0.17473242452E+02 -0.57022391954E+01  0.16216349039E+02  0.24511443905E+02  0.10570000000E+00 0.  1.
<mgrwt>
<rscale>  0 0.38903739E+02</rscale>
<asrwt>0</asrwt>
<pdfrwt beam="2">  1        2 0.18970929E-02 0.38903739E+02</pdfrwt>
<pdfrwt beam="1">  1       -2 0.47207108E-02 0.38903739E+02</pdfrwt>
<totfact> 0.79527754E+05</totfact>
</mgrwt>
</event>
<event>
 4    1  0.3704929E-001  0.3080490E+02  0.7818608E-02  0.1589358E+00
         -2   -1    0    0    0  501 -0.00000000000E+00  0.00000000000E+00  0.35024742076E+01  0.35024751726E+01  0.26000000000E-02 0. -1.
          2   -1    0    0  501    0  0.00000000000E+00 -0.00000000000E+00 -0.67733683730E+02  0.67733683780E+02  0.26000000000E-02 0.  1.
        -13    1    1    2    0    0 -0.13736418697E+02  0.67372490458E+01 -0.36216368723E+02  0.39315598168E+02  0.10570000000E+00 0.  1.
         13    1    1    2    0    0  0.13736418697E+02 -0.67372490458E+01 -0.28014840800E+02  0.31920560785E+02  0.10570000000E+00 0. -1.
<mgrwt>
<rscale>  0 0.30804903E+02</rscale>
<asrwt>0</asrwt>
<pdfrwt beam="2">  1        2 0.10420566E-01 0.30804903E+02</pdfrwt>
<pdfrwt beam="1">  1       -2 0.53884231E-03 0.30804903E+02</pdfrwt>
<totfact> 0.18026269E+06</totfact>
</mgrwt>
</event>
<event>
 4    1  0.3704929E-001  0.2474333E+02  0.7818608E-02  0.1664716E+00
         -2   -1    0    0    0  501 -0.00000000000E+00  0.00000000000E+00  0.23494686092E+02  0.23494686236E+02  0.26000000000E-02 0. -1.
          2   -1    0    0  501    0  0.00000000000E+00 -0.00000000000E+00 -0.65145840738E+01  0.65145845926E+01  0.26000000000E-02 0.  1.
        -13    1    1    2    0    0  0.12241721454E+02  0.14421981752E+01  0.72138380337E+01  0.14282517685E+02  0.10570000000E+00 0.  1.
         13    1    1    2    0    0 -0.12241721454E+02 -0.14421981752E+01  0.97662639846E+01  0.15726753144E+02  0.10570000000E+00 0. -1.
<mgrwt>
<rscale>  0 0.24743332E+02</rscale>
<asrwt>0</asrwt>
<pdfrwt beam="2">  1        2 0.10022437E-02 0.24743332E+02</pdfrwt>
<pdfrwt beam="1">  1       -2 0.36145672E-02 0.24743332E+02</pdfrwt>
<totfact> 0.23082609E+06</totfact>
</mgrwt>
</event>
<event>
 4    1  0.3704929E-001  0.3231626E+02  0.7818608E-02  0.1573812E+00
         -2   -1    0    0    0  501 -0.00000000000E+00  0.00000000000E+00  0.64316922770E+01  0.64316928025E+01  0.26000000000E-02 0. -1.
          2   -1    0    0  501    0  0.00000000000E+00 -0.00000000000E+00 -0.40593541117E+02  0.40593541200E+02  0.26000000000E-02 0.  1.
        -13    1    1    2    0    0 -0.15442949592E+02  0.32382250842E+01 -0.22143368012E+02  0.27190268722E+02  0.10570000000E+00 0.  1.
         13    1    1    2    0    0  0.15442949592E+02 -0.32382250842E+01 -0.12018480828E+02  0.19834965281E+02  0.10570000000E+00 0. -1.
<mgrwt>
<rscale>  0 0.32316261E+02</rscale>
<asrwt>0</asrwt>
<pdfrwt beam="2">  1        2 0.62451601E-02 0.32316261E+02</pdfrwt>
<pdfrwt beam="1">  1       -2 0.98949119E-03 0.32316261E+02</pdfrwt>
<totfact> 0.14722214E+06</totfact>
</mgrwt>
</event>
<event>
 4    1  0.3704929E-001  0.5541128E+02  0.7818608E-02  0.1418164E+00
          2   -1    0    0  501    0  0.00000000000E+00  0.00000000000E+00  0.14148566194E+02  0.14148566433E+02  0.26000000000E-02 0.  1.
         -2   -1    0    0    0  501 -0.00000000000E+00 -0.00000000000E+00 -0.54253013100E+02  0.54253013163E+02  0.26000000000E-02 0. -1.
        -13    1    1    2    0    0  0.23720903469E+02  0.19588541259E+01 -0.25479268612E+01  0.23937866962E+02  0.10570000000E+00 0.  1.
         13    1    1    2    0    0 -0.23720903469E+02 -0.19588541259E+01 -0.37556520045E+02  0.44463712635E+02  0.10570000000E+00 0. -1.
<mgrwt>
<rscale>  0 0.55411275E+02</rscale>
<asrwt>0</asrwt>
<pdfrwt beam="1">  1        2 0.21767025E-02 0.55411275E+02</pdfrwt>
<pdfrwt beam="2">  1       -2 0.83466173E-02 0.55411275E+02</pdfrwt>
<totfact> 0.31363892E+05</totfact>
</mgrwt>
</event>
<event>
 4    1  0.3704929E-001  0.4708636E+02  0.7818608E-02  0.1461722E+00
          2   -1    0    0  501    0  0.00000000000E+00  0.00000000000E+00  0.26775906092E+02  0.26775906219E+02  0.26000000000E-02 0.  1.
         -2   -1    0    0    0  501 -0.00000000000E+00 -0.00000000000E+00 -0.20700749803E+02  0.20700749966E+02  0.26000000000E-02 0. -1.
        -13    1    1    2    0    0 -0.11165631454E+02  0.12569659408E+02  0.19654549975E+02  0.25864650985E+02  0.10570000000E+00 0.  1.
         13    1    1    2    0    0  0.11165631454E+02 -0.12569659408E+02 -0.13579393685E+02  0.21612005199E+02  0.10570000000E+00 0. -1.
<mgrwt>
<rscale>  0 0.47086361E+02</rscale>
<asrwt>0</asrwt>
<pdfrwt beam="1">  1        2 0.41193701E-02 0.47086361E+02</pdfrwt>
<pdfrwt beam="2">  1       -2 0.31847308E-02 0.47086361E+02</pdfrwt>
<totfact> 0.53935617E+05</totfact>
</mgrwt>
</event>
<event>
 4    1  0.3704929E-001  0.2797938E+02  0.7818608E-02  0.1621562E+00
         -2   -1    0    0    0  501 -0.00000000000E+00  0.00000000000E+00  0.10966631975E+02  0.10966632284E+02  0.26000000000E-02 0.  1.
          2   -1    0    0  501    0  0.00000000000E+00 -0.00000000000E+00 -0.17846084806E+02  0.17846084995E+02  0.26000000000E-02 0. -1.
        -13    1    1    2    0    0 -0.10059204237E+02  0.76111819116E+01  0.27887723314E+01  0.12919214511E+02  0.10570000000E+00 0. -1.
         13    1    1    2    0    0  0.10059204237E+02 -0.76111819116E+01 -0.96682251618E+01  0.15893502768E+02  0.10570000000E+00 0.  1.
<mgrwt>
<rscale>  0 0.27979382E+02</rscale>
<asrwt>0</asrwt>
<pdfrwt beam="2">  1        2 0.27455515E-02 0.27979382E+02</pdfrwt>
<pdfrwt beam="1">  1       -2 0.16871742E-02 0.27979382E+02</pdfrwt>
<totfact> 0.18866404E+06</totfact>
</mgrwt>
</event>
<event>
 4    1  0.3704929E-001  0.4586023E+02  0.7818608E-02  0.1469042E+00
          2   -1    0    0  501    0  0.00000000000E+00  0.00000000000E+00  0.18809700468E+02  0.18809700648E+02  0.26000000000E-02 0. -1.
         -2   -1    0    0    0  501 -0.00000000000E+00 -0.00000000000E+00 -0.27953135839E+02  0.27953135960E+02  0.26000000000E-02 0.  1.
        -13    1    1    2    0    0  0.21531536772E+02  0.15941445145E+01  0.33023498894E+01  0.21841819058E+02  0.10570000000E+00 0. -1.
         13    1    1    2    0    0 -0.21531536772E+02 -0.15941445145E+01 -0.12445785261E+02  0.24921017550E+02  0.10570000000E+00 0.  1.
<mgrwt>
<rscale>  0 0.45860228E+02</rscale>
<asrwt>0</asrwt>
<pdfrwt beam="1">  1        2 0.28938001E-02 0.45860228E+02</pdfrwt>
<pdfrwt beam="2">  1       -2 0.43004825E-02 0.45860228E+02</pdfrwt>
<totfact> 0.54846240E+05</totfact>
</mgrwt>
</event>
<event>
 4    1  0.3704929E-001  0.2380931E+02  0.7818608E-02  0.1678718E+00
         -2   -1    0    0    0  501 -0.00000000000E+00  0.00000000000E+00  0.26279097088E+02  0.26279097217E+02  0.26000000000E-02 0. -1.
          2   -1    0    0  501    0  0.00000000000E+00 -0.00000000000E+00 -0.53929114447E+01  0.53929120714E+01  0.26000000000E-02 0.  1.
        -13    1    1    2    0    0 -0.90489139568E+01  0.76130837962E+01  0.12261090199E+02  0.17034887556E+02  0.10570000000E+00 0. -1.
         13    1    1    2    0    0  0.90489139568E+01 -0.76130837962E+01  0.86250954447E+01  0.14637121732E+02  0.10570000000E+00 0.  1.
<mgrwt>
<rscale>  0 0.23809314E+02</rscale>
<asrwt>0</asrwt>
<pdfrwt beam="2">  1        2 0.82967875E-03 0.23809314E+02</pdfrwt>
<pdfrwt beam="1">  1       -2 0.40429380E-02 0.23809314E+02</pdfrwt>
<totfact> 0.24877087E+06</totfact>
</mgrwt>
</event>
<event>
 4    1  0.3704929E-001  0.2139116E+02  0.7818608E-02  0.1718999E+00
         -2   -1    0    0    0  501 -0.00000000000E+00  0.00000000000E+00  0.25560569732E+01  0.25560582956E+01  0.26000000000E-02 0.  1.
          2   -1    0    0  501    0  0.00000000000E+00 -0.00000000000E+00 -0.44754647135E+02  0.44754647211E+02  0.26000000000E-02 0. -1.
        -13    1    1    2    0    0  0.17555375268E+01  0.10472051750E+02 -0.23930357175E+02  0.26180507002E+02  0.10570000000E+00 0. -1.
         13    1    1    2    0    0 -0.17555375268E+01 -0.10472051750E+02 -0.18268232987E+02  0.21130198504E+02  0.10570000000E+00 0.  1.
<mgrwt>
<rscale>  0 0.21391163E+02</rscale>
<asrwt>0</asrwt>
<pdfrwt beam="2">  1        2 0.68853299E-02 0.21391163E+02</pdfrwt>
<pdfrwt beam="1">  1       -2 0.39323967E-03 0.21391163E+02</pdfrwt>
<totfact> 0.39196392E+06</totfact>
</mgrwt>
</event>
<event>
 4    1  0.3704929E-001  0.8296107E+02  0.7818608E-02  0.1320852E+00
          2   -1    0    0  501    0  0.00000000000E+00  0.00000000000E+00  0.32614127468E+03  0.32614127469E+03  0.26000000000E-02 0. -1.
         -2   -1    0    0    0  501 -0.00000000000E+00 -0.00000000000E+00 -0.52757344456E+01  0.52757350863E+01  0.26000000000E-02 0.  1.
        -13    1    1    2    0    0  0.76837331785E+01  0.38755218276E+02  0.10996199178E+03  0.11684458699E+03  0.10570000000E+00 0.  1.
         13    1    1    2    0    0 -0.76837331785E+01 -0.38755218276E+02  0.21090354845E+03  0.21457242279E+03  0.10570000000E+00 0. -1.
<mgrwt>
<rscale>  0 0.82961072E+02</rscale>
<asrwt>0</asrwt>
<pdfrwt beam="1">  1        2 0.50175586E-01 0.82961072E+02</pdfrwt>
<pdfrwt beam="2">  1       -2 0.81165141E-03 0.82961072E+02</pdfrwt>
<totfact> 0.23799165E+05</totfact>
</mgrwt>
</event>
<event>
 4    1  0.3704929E-001  0.2600026E+02  0.7818608E-02  0.1647037E+00
          2   -1    0    0  501    0  0.00000000000E+00  0.00000000000E+00  0.74896463466E+01  0.74896467978E+01  0.26000000000E-02 0. -1.
         -2   -1    0    0    0  501 -0.00000000000E+00 -0.00000000000E+00 -0.22564935638E+02  0.22564935788E+02  0.26000000000E-02 0.  1.
        -13    1    1    2    0    0  0.89230756381E+01 -0.87975333724E+01 -0.35376537865E+01  0.13020907767E+02  0.10570000000E+00 0. -1.
         13    1    1    2    0    0 -0.89230756381E+01  0.87975333724E+01 -0.11537635505E+02  0.17033674818E+02  0.10570000000E+00 0.  1.
<mgrwt>
<rscale>  0 0.26000261E+02</rscale>
<asrwt>0</asrwt>
<pdfrwt beam="1">  1        2 0.11522533E-02 0.26000261E+02</pdfrwt>
<pdfrwt beam="2">  1       -2 0.34715286E-02 0.26000261E+02</pdfrwt>
<totfact> 0.20737497E+06</totfact>
</mgrwt>
</event>
<event>
 4    1  0.3704929E-001  0.2641904E+02  0.7818608E-02  0.1641418E+00
         -2   -1    0    0    0  501 -0.00000000000E+00  0.00000000000E+00  0.63098683631E+01  0.63098688987E+01  0.26000000000E-02 0.  1.
          2   -1    0    0  501    0  0.00000000000E+00 -0.00000000000E+00 -0.27653727616E+02  0.27653727739E+02  0.26000000000E-02 0. -1.
        -13    1    1    2    0    0  0.20674042470E+01  0.12710023974E+02 -0.68884668274E+01  0.14604143845E+02  0.10570000000E+00 0.  1.
         13    1    1    2    0    0 -0.20674042470E+01 -0.12710023974E+02 -0.14455392426E+02  0.19359452792E+02  0.10570000000E+00 0. -1.
<mgrwt>
<rscale>  0 0.26419038E+02</rscale>
<asrwt>0</asrwt>
<pdfrwt beam="2">  1        2 0.42544196E-02 0.26419038E+02</pdfrwt>
<pdfrwt beam="1">  1       -2 0.97074905E-03 0.26419038E+02</pdfrwt>
<totfact> 0.22654573E+06</totfact>
</mgrwt>
</event>
<event>
 4    1  0.3704929E-001  0.9127417E+02  0.7818608E-02  0.1299795E+00
         -2   -1    0    0    0  501 -0.00000000000E+00  0.00000000000E+00  0.28432559573E+03  0.28432559574E+03  0.26000000000E-02 0. -1.
          2   -1    0    0  501    0  0.00000000000E+00 -0.00000000000E+00 -0.73252057056E+01  0.73252061670E+01  0.26000000000E-02 0.  1.
        -13    1    1    2    0    0 -0.27112544219E+02 -0.32947504914E+02  0.86769024807E+02  0.96692827927E+02  0.10570000000E+00 0.  1.
         13    1    1    2    0    0  0.27112544219E+02  0.32947504914E+02  0.19023136521E+03  0.19495797398E+03  0.10570000000E+00 0. -1.
<mgrwt>
<rscale>  0 0.91274170E+02</rscale>
<asrwt>0</asrwt>
<pdfrwt beam="2">  1        2 0.11269551E-02 0.91274170E+02</pdfrwt>
<pdfrwt beam="1">  1       -2 0.43742386E-01 0.91274170E+02</pdfrwt>
<totfact> 0.52392179E+04</totfact>
</mgrwt>
</event>
<event>
 4    1  0.3704929E-001  0.3539778E+02  0.7818608E-02  0.1545096E+00
         -2   -1    0    0    0  501 -0.00000000000E+00  0.00000000000E+00  0.21097679828E+02  0.21097679988E+02  0.26000000000E-02 0.  1.
          2   -1    0    0  501    0  0.00000000000E+00 -0.00000000000E+00 -0.14847635779E+02  0.14847636007E+02  0.26000000000E-02 0. -1.
        -13    1    1    2    0    0  0.15780338697E+02  0.82063273484E+00  0.11219963952E+02  0.19380177787E+02  0.10570000000E+00 0. -1.
         13    1    1    2    0    0 -0.15780338697E+02 -0.82063273484E+00 -0.49699199037E+01  0.16565138207E+02  0.10570000000E+00 0.  1.
<mgrwt>
<rscale>  0 0.35397778E+02</rscale>
<asrwt>0</asrwt>
<pdfrwt beam="2">  1        2 0.22842517E-02 0.35397778E+02</pdfrwt>
<pdfrwt beam="1">  1       -2 0.32457969E-02 0.35397778E+02</pdfrwt>
<totfact> 0.10366257E+06</totfact>
</mgrwt>
</event>
<event>
 4    1  0.3704929E-001  0.3658170E+02  0.7818608E-02  0.1534987E+00
          2   -1    0    0  501    0  0.00000000000E+00  0.00000000000E+00  0.18509676546E+02  0.18509676729E+02  0.26000000000E-02 0. -1.
         -2   -1    0    0    0  501 -0.00000000000E+00 -0.00000000000E+00 -0.18074611380E+02  0.18074611567E+02  0.26000000000E-02 0.  1.
        -13    1    1    2    0    0  0.52943036155E+01 -0.94579884768E+01  0.14951559511E+02  0.18467363133E+02  0.10570000000E+00 0. -1.
         13    1    1    2    0    0 -0.52943036155E+01  0.94579884768E+01 -0.14516494345E+02  0.18116925163E+02  0.10570000000E+00 0.  1.
<mgrwt>
<rscale>  0 0.36581701E+02</rscale>
<asrwt>0</asrwt>
<pdfrwt beam="1">  1        2 0.28476425E-02 0.36581701E+02</pdfrwt>
<pdfrwt beam="2">  1       -2 0.27807095E-02 0.36581701E+02</pdfrwt>
<totfact> 0.97936329E+05</totfact>
</mgrwt>
</event>
<event>
 4    1  0.3704929E-001  0.2061226E+02  0.7818608E-02  0.1733420E+00
          2   -1    0    0  501    0  0.00000000000E+00  0.00000000000E+00  0.33311974986E+02  0.33311975088E+02  0.26000000000E-02 0. -1.
         -2   -1    0    0    0  501 -0.00000000000E+00 -0.00000000000E+00 -0.31885308048E+01  0.31885318648E+01  0.26000000000E-02 0.  1.
        -13    1    1    2    0    0 -0.60886116267E+01  0.79646727952E+01  0.19288708757E+02  0.21738736446E+02  0.10570000000E+00 0. -1.
         13    1    1    2    0    0  0.60886116267E+01 -0.79646727952E+01  0.10834735425E+02  0.14761770507E+02  0.10570000000E+00 0.  1.
<mgrwt>
<rscale>  0 0.20612257E+02</rscale>
<asrwt>0</asrwt>
<pdfrwt beam="1">  1        2 0.51249194E-02 0.20612257E+02</pdfrwt>
<pdfrwt beam="2">  1       -2 0.49054328E-03 0.20612257E+02</pdfrwt>
<totfact> 0.41015854E+06</totfact>
</mgrwt>
</event>
<event>
 4    1  0.3704929E-001  0.2837617E+02  0.7818608E-02  0.1616764E+00
         -2   -1    0    0    0  501 -0.00000000000E+00  0.00000000000E+00  0.45830874714E+02  0.45830874788E+02  0.26000000000E-02 0.  1.
          2   -1    0    0  501    0  0.00000000000E+00 -0.00000000000E+00 -0.43922720724E+01  0.43922728419E+01  0.26000000000E-02 0. -1.
        -13    1    1    2    0    0 -0.13421222479E+02  0.26217253865E+01  0.14029182108E+02  0.19591625250E+02  0.10570000000E+00 0. -1.
         13    1    1    2    0    0  0.13421222479E+02 -0.26217253865E+01  0.27409420534E+02  0.30631522380E+02  0.10570000000E+00 0.  1.
<mgrwt>
<rscale>  0 0.28376166E+02</rscale>
<asrwt>0</asrwt>
<pdfrwt beam="2">  1        2 0.67573420E-03 0.28376166E+02</pdfrwt>
<pdfrwt beam="1">  1       -2 0.70509042E-02 0.28376166E+02</pdfrwt>
<totfact> 0.15666676E+06</totfact>
</mgrwt>
</event>
<event>
 4    1  0.3704929E-001  0.2441209E+02  0.7818608E-02  0.1669593E+00
         -2   -1    0    0    0  501 -0.00000000000E+00  0.00000000000E+00  0.42872149637E+01  0.42872157521E+01  0.26000000000E-02 0.  1.
          2   -1    0    0  501    0  0.00000000000E+00 -0.00000000000E+00 -0.34751574386E+02  0.34751574483E+02  0.26000000000E-02 0. -1.
        -13    1    1    2    0    0 -0.35896765109E+00 -0.11777955663E+02 -0.10143132047E+02  0.15548099485E+02  0.10570000000E+00 0.  1.
         13    1    1    2    0    0  0.35896765109E+00  0.11777955663E+02 -0.20321227376E+02  0.23490690750E+02  0.10570000000E+00 0. -1.
<mgrwt>
<rscale>  0 0.24412086E+02</rscale>
<asrwt>0</asrwt>
<pdfrwt beam="2">  1        2 0.53463959E-02 0.24412086E+02</pdfrwt>
<pdfrwt beam="1">  1       -2 0.65957162E-03 0.24412086E+02</pdfrwt>
<totfact> 0.28009235E+06</totfact>
</mgrwt>
</event>
<event>
 4    1  0.3704929E-001  0.4744230E+02  0.7818608E-02  0.1459646E+00
         -2   -1    0    0    0  501 -0.00000000000E+00  0.00000000000E+00  0.70159209777E+01  0.70159214594E+01  0.26000000000E-02 0. -1.
          2   -1    0    0  501    0  0.00000000000E+00 -0.00000000000E+00 -0.80202280122E+02  0.80202280165E+02  0.26000000000E-02 0.  1.
        -13    1    1    2    0    0 -0.19342353875E+02  0.92123884848E+01 -0.55313077706E+02  0.59317303486E+02  0.10570000000E+00 0.  1.
         13    1    1    2    0    0  0.19342353875E+02 -0.92123884848E+01 -0.17873281438E+02  0.27900898138E+02  0.10570000000E+00 0. -1.
<mgrwt>
<rscale>  0 0.47442297E+02</rscale>
<asrwt>0</asrwt>
<pdfrwt beam="2">  1        2 0.12338812E-01 0.47442297E+02</pdfrwt>
<pdfrwt beam="1">  1       -2 0.10793726E-02 0.47442297E+02</pdfrwt>
<totfact> 0.64757423E+05</totfact>
</mgrwt>
</event>
<event>
 4    1  0.3704929E-001  0.4104506E+02  0.7818608E-02  0.1500659E+00
          2   -1    0    0  501    0  0.00000000000E+00  0.00000000000E+00  0.93747944282E+01  0.93747947887E+01  0.26000000000E-02 0. -1.
         -2   -1    0    0    0  501 -0.00000000000E+00 -0.00000000000E+00 -0.44926233754E+02  0.44926233829E+02  0.26000000000E-02 0.  1.
        -13    1    1    2    0    0  0.58498561873E+01 -0.18133442699E+02 -0.27861552868E+02  0.33753812559E+02  0.10570000000E+00 0.  1.
         13    1    1    2    0    0 -0.58498561873E+01  0.18133442699E+02 -0.76898864574E+01  0.20547216059E+02  0.10570000000E+00 0. -1.
<mgrwt>
<rscale>  0 0.41045059E+02</rscale>
<asrwt>0</asrwt>
<pdfrwt beam="1">  1        2 0.14422761E-02 0.41045059E+02</pdfrwt>
<pdfrwt beam="2">  1       -2 0.69117282E-02 0.41045059E+02</pdfrwt>
<totfact> 0.66422404E+05</totfact>
</mgrwt>
</event>
<event>
 4    1  0.3704929E-001  0.2442778E+02  0.7818608E-02  0.1669359E+00
         -2   -1    0    0    0  501 -0.00000000000E+00  0.00000000000E+00  0.62319527124E+01  0.62319532547E+01  0.26000000000E-02 0. -1.
          2   -1    0    0  501    0  0.00000000000E+00 -0.00000000000E+00 -0.23937786163E+02  0.23937786304E+02  0.26000000000E-02 0.  1.
        -13    1    1    2    0    0 -0.77859980967E+01  0.92365121930E+01 -0.11073641448E+02  0.16388155213E+02  0.10570000000E+00 0.  1.
         13    1    1    2    0    0  0.77859980967E+01 -0.92365121930E+01 -0.66321920025E+01  0.13781584347E+02  0.10570000000E+00 0. -1.
<mgrwt>
<rscale>  0 0.24427784E+02</rscale>
<asrwt>0</asrwt>
<pdfrwt beam="2">  1        2 0.36827363E-02 0.24427784E+02</pdfrwt>
<pdfrwt beam="1">  1       -2 0.95876202E-03 0.24427784E+02</pdfrwt>
<totfact> 0.26801642E+06</totfact>
</mgrwt>
</event>
<event>
 4    1  0.3704929E-001  0.2654771E+02  0.7818608E-02  0.1639718E+00
         -2   -1    0    0    0  501 -0.00000000000E+00  0.00000000000E+00  0.76369428555E+01  0.76369432981E+01  0.26000000000E-02 0. -1.
          2   -1    0    0  501    0  0.00000000000E+00 -0.00000000000E+00 -0.23071432117E+02  0.23071432263E+02  0.26000000000E-02 0.  1.
        -13    1    1    2    0    0 -0.11290952736E+02 -0.14815209616E+01  0.17086134260E+00  0.11389507634E+02  0.10570000000E+00 0.  1.
         13    1    1    2    0    0  0.11290952736E+02  0.14815209616E+01 -0.15605350604E+02  0.19318867928E+02  0.10570000000E+00 0. -1.
<mgrwt>
<rscale>  0 0.26547709E+02</rscale>
<asrwt>0</asrwt>
<pdfrwt beam="2">  1        2 0.35494511E-02 0.26547709E+02</pdfrwt>
<pdfrwt beam="1">  1       -2 0.11749143E-02 0.26547709E+02</pdfrwt>
<totfact> 0.21953940E+06</totfact>
</mgrwt>
</event>
<event>
 4    1  0.3704929E-001  0.4007653E+02  0.7818608E-02  0.1507649E+00
         -2   -1    0    0    0  501 -0.00000000000E+00  0.00000000000E+00  0.72047282453E+02  0.72047282500E+02  0.26000000000E-02 0.  1.
          2   -1    0    0  501    0  0.00000000000E+00 -0.00000000000E+00 -0.55731727090E+01  0.55731733155E+01  0.26000000000E-02 0. -1.
        -13    1    1    2    0    0 -0.69610189216E+01 -0.13263796806E+02  0.74595774758E+01  0.16734412411E+02  0.10570000000E+00 0. -1.
         13    1    1    2    0    0  0.69610189216E+01  0.13263796806E+02  0.59014532268E+02  0.60886043405E+02  0.10570000000E+00 0.  1.
<mgrwt>
<rscale>  0 0.40076525E+02</rscale>
<asrwt>0</asrwt>
<pdfrwt beam="2">  1        2 0.85741128E-03 0.40076525E+02</pdfrwt>
<pdfrwt beam="1">  1       -2 0.11084197E-01 0.40076525E+02</pdfrwt>
<totfact> 0.64774821E+05</totfact>
</mgrwt>
</event>
<event>
 4    1  0.3704929E-001  0.7342013E+02  0.7818608E-02  0.1348834E+00
          2   -1    0    0  501    0  0.00000000000E+00  0.00000000000E+00  0.40640261763E+02  0.40640261846E+02  0.26000000000E-02 0.  1.
         -2   -1    0    0    0  501 -0.00000000000E+00 -0.00000000000E+00 -0.33159948022E+02  0.33159948124E+02  0.26000000000E-02 0. -1.
        -13    1    1    2    0    0 -0.26892147318E+02  0.50714270368E+01  0.28335392829E+02  0.39393052926E+02  0.10570000000E+00 0.  1.
         13    1    1    2    0    0  0.26892147318E+02 -0.50714270368E+01 -0.20855079089E+02  0.34407157044E+02  0.10570000000E+00 0. -1.
<mgrwt>
<rscale>  0 0.73420133E+02</rscale>
<asrwt>0</asrwt>
<pdfrwt beam="1">  1        2 0.62523480E-02 0.73420133E+02</pdfrwt>
<pdfrwt beam="2">  1       -2 0.51015305E-02 0.73420133E+02</pdfrwt>
<totfact> 0.17674075E+05</totfact>
</mgrwt>
</event>
<event>
 4    1  0.3704929E-001  0.3393496E+02  0.7818608E-02  0.1558267E+00
          2   -1    0    0  501    0  0.00000000000E+00  0.00000000000E+00  0.14848935219E+03  0.14848935221E+03  0.26000000000E-02 0. -1.
         -2   -1    0    0    0  501 -0.00000000000E+00 -0.00000000000E+00 -0.19388276113E+01  0.19388293547E+01  0.26000000000E-02 0.  1.
        -13    1    1    2    0    0 -0.42826360419E+01 -0.16101983555E+02  0.87480672086E+02  0.89053321145E+02  0.10570000000E+00 0. -1.
         13    1    1    2    0    0  0.42826360419E+01  0.16101983555E+02  0.59069852493E+02  0.61374860422E+02  0.10570000000E+00 0.  1.
<mgrwt>
<rscale>  0 0.33934961E+02</rscale>
<asrwt>0</asrwt>
<pdfrwt beam="1">  1        2 0.22844517E-01 0.33934961E+02</pdfrwt>
<pdfrwt beam="2">  1       -2 0.29828130E-03 0.33934961E+02</pdfrwt>
<totfact> 0.17321147E+06</totfact>
</mgrwt>
</event>
<event>
 4    1  0.3704929E-001  0.1239220E+03  0.7818608E-02  0.1236764E+00
          2   -1    0    0  501    0  0.00000000000E+00  0.00000000000E+00  0.32603285985E+02  0.32603286089E+02  0.26000000000E-02 0.  1.
         -2   -1    0    0    0  501 -0.00000000000E+00 -0.00000000000E+00 -0.11775388581E+03  0.11775388583E+03  0.26000000000E-02 0. -1.
        -13    1    1    2    0    0 -0.14017484484E+02 -0.16035010197E+02 -0.11317289099E+03  0.11515956691E+03  0.10570000000E+00 0. -1.
         13    1    1    2    0    0  0.14017484484E+02  0.16035010197E+02  0.28022291173E+02  0.35197605009E+02  0.10570000000E+00 0.  1.
<mgrwt>
<rscale>  0 0.12392197E+03</rscale>
<asrwt>0</asrwt>
<pdfrwt beam="1">  1        2 0.50158902E-02 0.12392197E+03</pdfrwt>
<pdfrwt beam="2">  1       -2 0.18115982E-01 0.12392197E+03</pdfrwt>
<totfact> 0.35247781E+04</totfact>
</mgrwt>
</event>
<event>
 4    1  0.3704929E-001  0.2907077E+02  0.7818608E-02  0.1608593E+00
         -2   -1    0    0    0  501 -0.00000000000E+00  0.00000000000E+00  0.54359375535E+01  0.54359381753E+01  0.26000000000E-02 0. -1.
          2   -1    0    0  501    0  0.00000000000E+00 -0.00000000000E+00 -0.38866770271E+02  0.38866770358E+02  0.26000000000E-02 0.  1.
        -13    1    1    2    0    0 -0.19147817069E+01  0.14233717974E+02 -0.13307374102E+02  0.19579644898E+02  0.10570000000E+00 0.  1.
         13    1    1    2    0    0  0.19147817069E+01 -0.14233717974E+02 -0.20123458615E+02  0.24723063634E+02  0.10570000000E+00 0. -1.
<mgrwt>
<rscale>  0 0.29070766E+02</rscale>
<asrwt>0</asrwt>
<pdfrwt beam="2">  1        2 0.59795030E-02 0.29070766E+02</pdfrwt>
<pdfrwt beam="1">  1       -2 0.83629817E-03 0.29070766E+02</pdfrwt>
<totfact> 0.18861753E+06</totfact>
</mgrwt>
</event>
<event>
 4    1  0.3704929E-001  0.2542739E+02  0.7818608E-02  0.1654938E+00
         -2   -1    0    0    0  501 -0.00000000000E+00  0.00000000000E+00  0.81009167329E+02  0.81009167370E+02  0.26000000000E-02 0. -1.
          2   -1    0    0  501    0  0.00000000000E+00 -0.00000000000E+00 -0.19953038988E+01  0.19953055928E+01  0.26000000000E-02 0.  1.
        -13    1    1    2    0    0  0.35045665964E+00 -0.11136214145E+02  0.59494046640E+02  0.60528430043E+02  0.10570000000E+00 0. -1.
         13    1    1    2    0    0 -0.35045665964E+00  0.11136214145E+02  0.19519816790E+02  0.22476042920E+02  0.10570000000E+00 0.  1.
<mgrwt>
<rscale>  0 0.25427385E+02</rscale>
<asrwt>0</asrwt>
<pdfrwt beam="2">  1        2 0.30697001E-03 0.25427385E+02</pdfrwt>
<pdfrwt beam="1">  1       -2 0.12462947E-01 0.25427385E+02</pdfrwt>
<totfact> 0.18268434E+06</totfact>
</mgrwt>
</event>
<event>
 4    1  0.3704929E-001  0.2754345E+02  0.7818608E-02  0.1626946E+00
         -2   -1    0    0    0  501 -0.00000000000E+00  0.00000000000E+00  0.21724448327E+01  0.21724463885E+01  0.26000000000E-02 0. -1.
          2   -1    0    0  501    0  0.00000000000E+00 -0.00000000000E+00 -0.87302706312E+02  0.87302706350E+02  0.26000000000E-02 0.  1.
        -13    1    1    2    0    0 -0.50286864401E+01 -0.11981072935E+02 -0.57386102762E+02  0.58838845660E+02  0.10570000000E+00 0.  1.
         13    1    1    2    0    0  0.50286864401E+01  0.11981072935E+02 -0.27744158717E+02  0.30636307078E+02  0.10570000000E+00 0. -1.
<mgrwt>
<rscale>  0 0.27543448E+02</rscale>
<asrwt>0</asrwt>
<pdfrwt beam="2">  1        2 0.13431183E-01 0.27543448E+02</pdfrwt>
<pdfrwt beam="1">  1       -2 0.33422247E-03 0.27543448E+02</pdfrwt>
<totfact> 0.24742780E+06</totfact>
</mgrwt>
</event>
<event>
 4    1  0.3704929E-001  0.7911952E+02  0.7818608E-02  0.1331569E+00
          2   -1    0    0  501    0  0.00000000000E+00  0.00000000000E+00  0.42842401884E+03  0.42842401885E+03  0.26000000000E-02 0. -1.
         -2   -1    0    0    0  501 -0.00000000000E+00 -0.00000000000E+00 -0.36528634174E+01  0.36528643427E+01  0.26000000000E-02 0.  1.
        -13    1    1    2    0    0 -0.28195630721E+02 -0.27695781672E+02  0.22170712299E+03  0.22520237448E+03  0.10570000000E+00 0. -1.
         13    1    1    2    0    0  0.28195630721E+02  0.27695781672E+02  0.20306403243E+03  0.20687450871E+03  0.10570000000E+00 0.  1.
<mgrwt>
<rscale>  0 0.79119520E+02</rscale>
<asrwt>0</asrwt>
<pdfrwt beam="1">  1        2 0.65911387E-01 0.79119520E+02</pdfrwt>
<pdfrwt beam="2">  1       -2 0.56197906E-03 0.79119520E+02</pdfrwt>
<totfact> 0.29708293E+05</totfact>
</mgrwt>
</event>
<event>
 4    1  0.3704929E-001  0.2833715E+02  0.7818608E-02  0.1617232E+00
         -2   -1    0    0    0  501 -0.00000000000E+00  0.00000000000E+00  0.20741841659E+02  0.20741841822E+02  0.26000000000E-02 0.  1.
          2   -1    0    0  501    0  0.00000000000E+00 -0.00000000000E+00 -0.96784345964E+01  0.96784349457E+01  0.26000000000E-02 0. -1.
        -13    1    1    2    0    0 -0.91956085975E-02  0.10441723223E+02  0.15812100841E+02  0.18948967622E+02  0.10570000000E+00 0.  1.
         13    1    1    2    0    0  0.91956085975E-02 -0.10441723223E+02 -0.47486937784E+01  0.11471309146E+02  0.10570000000E+00 0. -1.
<mgrwt>
<rscale>  0 0.28337153E+02</rscale>
<asrwt>0</asrwt>
<pdfrwt beam="2">  1        2 0.14889900E-02 0.28337153E+02</pdfrwt>
<pdfrwt beam="1">  1       -2 0.31910526E-02 0.28337153E+02</pdfrwt>
<totfact> 0.17228488E+06</totfact>
</mgrwt>
</event>
<event>
 4    1  0.3704929E-001  0.2614563E+02  0.7818608E-02  0.1645072E+00
         -2   -1    0    0    0  501 -0.00000000000E+00  0.00000000000E+00  0.89114138432E+02  0.89114138470E+02  0.26000000000E-02 0.  1.
          2   -1    0    0  501    0  0.00000000000E+00 -0.00000000000E+00 -0.19177469377E+01  0.19177487002E+01  0.26000000000E-02 0. -1.
        -13    1    1    2    0    0  0.45951886174E+01 -0.10494704271E+02  0.65517225067E+02  0.66511446602E+02  0.10570000000E+00 0.  1.
         13    1    1    2    0    0 -0.45951886174E+01  0.10494704271E+02  0.21679166428E+02  0.24520440568E+02  0.10570000000E+00 0. -1.
<mgrwt>
<rscale>  0 0.26145627E+02</rscale>
<asrwt>0</asrwt>
<pdfrwt beam="2">  1        2 0.29503817E-03 0.26145627E+02</pdfrwt>
<pdfrwt beam="1">  1       -2 0.13709866E-01 0.26145627E+02</pdfrwt>
<totfact> 0.16801857E+06</totfact>
</mgrwt>
</event>
<event>
 4    1  0.3704929E-001  0.3678998E+02  0.7818608E-02  0.1533256E+00
         -2   -1    0    0    0  501 -0.00000000000E+00  0.00000000000E+00  0.68854972942E+01  0.68854977851E+01  0.26000000000E-02 0. -1.
          2   -1    0    0  501    0  0.00000000000E+00 -0.00000000000E+00 -0.49143252363E+02  0.49143252431E+02  0.26000000000E-02 0.  1.
        -13    1    1    2    0    0  0.16077160133E+02  0.69579167131E+00 -0.34699702958E+02  0.38249702768E+02  0.10570000000E+00 0.  1.
         13    1    1    2    0    0 -0.16077160133E+02 -0.69579167131E+00 -0.75580521103E+01  0.17779047448E+02  0.10570000000E+00 0. -1.
<mgrwt>
<rscale>  0 0.36789985E+02</rscale>
<asrwt>0</asrwt>
<pdfrwt beam="2">  1        2 0.75605002E-02 0.36789985E+02</pdfrwt>
<pdfrwt beam="1">  1       -2 0.10593074E-02 0.36789985E+02</pdfrwt>
<totfact> 0.11064058E+06</totfact>
</mgrwt>
</event>
<event>
 4    1  0.3704929E-001  0.2338336E+02  0.7818608E-02  0.1685370E+00
         -2   -1    0    0    0  501 -0.00000000000E+00  0.00000000000E+00  0.11660823370E+01  0.11660852356E+01  0.26000000000E-02 0.  1.
          2   -1    0    0  501    0  0.00000000000E+00 -0.00000000000E+00 -0.11722603609E+03  0.11722603612E+03  0.26000000000E-02 0. -1.
        -13    1    1    2    0    0  0.76147816608E+00 -0.11564734840E+02 -0.50249813663E+02  0.51569156349E+02  0.10570000000E+00 0.  1.
         13    1    1    2    0    0 -0.76147816608E+00  0.11564734840E+02 -0.65810140086E+02  0.66822965001E+02  0.10570000000E+00 0. -1.
<mgrwt>
<rscale>  0 0.23383360E+02</rscale>
<asrwt>0</asrwt>
<pdfrwt beam="2">  1        2 0.18034766E-01 0.23383360E+02</pdfrwt>
<pdfrwt beam="1">  1       -2 0.17939760E-03 0.23383360E+02</pdfrwt>
<totfact> 0.38644219E+06</totfact>
</mgrwt>
</event>
<event>
 4    1  0.3704929E-001  0.3071746E+02  0.7818608E-02  0.1590291E+00
          2   -1    0    0  501    0  0.00000000000E+00  0.00000000000E+00  0.60491974505E+01  0.60491980093E+01  0.26000000000E-02 0.  1.
         -2   -1    0    0    0  501 -0.00000000000E+00 -0.00000000000E+00 -0.38995356554E+02  0.38995356641E+02  0.26000000000E-02 0. -1.
        -13    1    1    2    0    0  0.12721986917E+02 -0.73912169183E+01 -0.22932037673E+02  0.27246441290E+02  0.10570000000E+00 0. -1.
         13    1    1    2    0    0 -0.12721986917E+02  0.73912169183E+01 -0.10014121431E+02  0.17798113360E+02  0.10570000000E+00 0.  1.
<mgrwt>
<rscale>  0 0.30717463E+02</rscale>
<asrwt>0</asrwt>
<pdfrwt beam="1">  1        2 0.93064584E-03 0.30717463E+02</pdfrwt>
<pdfrwt beam="2">  1       -2 0.59992855E-02 0.30717463E+02</pdfrwt>
<totfact> 0.13344562E+06</totfact>
</mgrwt>
</event>
<event>
 4    1  0.3704929E-001  0.3320077E+02  0.7818608E-02  0.1565184E+00
         -2   -1    0    0    0  501 -0.00000000000E+00  0.00000000000E+00  0.17368421185E+02  0.17368421380E+02  0.26000000000E-02 0.  1.
          2   -1    0    0  501    0  0.00000000000E+00 -0.00000000000E+00 -0.15866306562E+02  0.15866306775E+02  0.26000000000E-02 0. -1.
        -13    1    1    2    0    0 -0.15564187890E+01  0.12165739640E+02 -0.10446710915E+02  0.16111256992E+02  0.10570000000E+00 0. -1.
         13    1    1    2    0    0  0.15564187890E+01 -0.12165739640E+02  0.11948825539E+02  0.17123471163E+02  0.10570000000E+00 0.  1.
<mgrwt>
<rscale>  0 0.33200765E+02</rscale>
<asrwt>0</asrwt>
<pdfrwt beam="2">  1        2 0.24409703E-02 0.33200765E+02</pdfrwt>
<pdfrwt beam="1">  1       -2 0.26720648E-02 0.33200765E+02</pdfrwt>
<totfact> 0.12263622E+06</totfact>
</mgrwt>
</event>
<event>
 4    1  0.3704929E-001  0.2210427E+02  0.7818608E-02  0.1706455E+00
         -2   -1    0    0    0  501 -0.00000000000E+00  0.00000000000E+00  0.14902180739E+01  0.14902203420E+01  0.26000000000E-02 0. -1.
          2   -1    0    0  501    0  0.00000000000E+00 -0.00000000000E+00 -0.81967609245E+02  0.81967609287E+02  0.26000000000E-02 0.  1.
        -13    1    1    2    0    0  0.19198710579E+01  0.10233480339E+02 -0.54228208865E+02  0.55218835861E+02  0.10570000000E+00 0.  1.
         13    1    1    2    0    0 -0.19198710579E+01 -0.10233480339E+02 -0.26249182307E+02  0.28238993767E+02  0.10570000000E+00 0. -1.
<mgrwt>
<rscale>  0 0.22104272E+02</rscale>
<asrwt>0</asrwt>
<pdfrwt beam="2">  1        2 0.12610398E-01 0.22104272E+02</pdfrwt>
<pdfrwt beam="1">  1       -2 0.22926456E-03 0.22104272E+02</pdfrwt>
<totfact> 0.40428245E+06</totfact>
</mgrwt>
</event>
<event>
 4    1  0.3704929E-001  0.3687516E+02  0.7818608E-02  0.1532552E+00
          2   -1    0    0  501    0  0.00000000000E+00  0.00000000000E+00  0.40980105411E+01  0.40980113659E+01  0.26000000000E-02 0. -1.
         -2   -1    0    0    0  501 -0.00000000000E+00 -0.00000000000E+00 -0.82953509177E+02  0.82953509218E+02  0.26000000000E-02 0.  1.
        -13    1    1    2    0    0  0.17141912215E+02  0.39961250989E+01 -0.26471984381E+02  0.31789798675E+02  0.10570000000E+00 0. -1.
         13    1    1    2    0    0 -0.17141912215E+02 -0.39961250989E+01 -0.52383514255E+02  0.55261721910E+02  0.10570000000E+00 0.  1.
<mgrwt>
<rscale>  0 0.36875162E+02</rscale>
<asrwt>0</asrwt>
<pdfrwt beam="1">  1        2 0.63046329E-03 0.36875162E+02</pdfrwt>
<pdfrwt beam="2">  1       -2 0.12762077E-01 0.36875162E+02</pdfrwt>
<totfact> 0.76709415E+05</totfact>
</mgrwt>
</event>
<event>
 4    1  0.3704929E-001  0.2450082E+02  0.7818608E-02  0.1668277E+00
          2   -1    0    0  501    0  0.00000000000E+00  0.00000000000E+00  0.39841385747E+02  0.39841385832E+02  0.26000000000E-02 0. -1.
         -2   -1    0    0    0  501 -0.00000000000E+00 -0.00000000000E+00 -0.37667493955E+01  0.37667502929E+01  0.26000000000E-02 0.  1.
        -13    1    1    2    0    0 -0.67658721204E+01 -0.99259933822E+01  0.13766016501E+02  0.18270652779E+02  0.10570000000E+00 0.  1.
         13    1    1    2    0    0  0.67658721204E+01  0.99259933822E+01  0.22308619851E+02  0.25337483346E+02  0.10570000000E+00 0. -1.
<mgrwt>
<rscale>  0 0.24500819E+02</rscale>
<asrwt>0</asrwt>
<pdfrwt beam="1">  1        2 0.61294443E-02 0.24500819E+02</pdfrwt>
<pdfrwt beam="2">  1       -2 0.57949996E-03 0.24500819E+02</pdfrwt>
<totfact> 0.28277909E+06</totfact>
</mgrwt>
</event>
<event>
 4    1  0.3704929E-001  0.3392212E+02  0.7818608E-02  0.1558386E+00
         -2   -1    0    0    0  501 -0.00000000000E+00  0.00000000000E+00  0.23721822864E+02  0.23721823007E+02  0.26000000000E-02 0.  1.
          2   -1    0    0  501    0  0.00000000000E+00 -0.00000000000E+00 -0.12127129131E+02  0.12127129409E+02  0.26000000000E-02 0. -1.
        -13    1    1    2    0    0  0.32762349337E+01 -0.13123755547E+02 -0.50161535066E+01  0.14427045556E+02  0.10570000000E+00 0. -1.
         13    1    1    2    0    0 -0.32762349337E+01  0.13123755547E+02  0.16610847240E+02  0.21421906860E+02  0.10570000000E+00 0.  1.
<mgrwt>
<rscale>  0 0.33922124E+02</rscale>
<asrwt>0</asrwt>
<pdfrwt beam="2">  1        2 0.18657122E-02 0.33922124E+02</pdfrwt>
<pdfrwt beam="1">  1       -2 0.36495112E-02 0.33922124E+02</pdfrwt>
<totfact> 0.11273997E+06</totfact>
</mgrwt>
</event>
<event>
 4    1  0.3704929E-001  0.2806326E+02  0.7818608E-02  0.1620539E+00
          2   -1    0    0  501    0  0.00000000000E+00  0.00000000000E+00  0.67340700962E+02  0.67340701012E+02  0.26000000000E-02 0.  1.
         -2   -1    0    0    0  501 -0.00000000000E+00 -0.00000000000E+00 -0.29237375953E+01  0.29237387513E+01  0.26000000000E-02 0. -1.
        -13    1    1    2    0    0  0.88371209883E+01  0.10134318023E+02  0.22169478738E+02  0.25928672723E+02  0.10570000000E+00 0. -1.
         13    1    1    2    0    0 -0.88371209883E+01 -0.10134318023E+02  0.42247484629E+02  0.44335767041E+02  0.10570000000E+00 0.  1.
<mgrwt>
<rscale>  0 0.28063256E+02</rscale>
<asrwt>0</asrwt>
<pdfrwt beam="1">  1        2 0.10360107E-01 0.28063256E+02</pdfrwt>
<pdfrwt beam="2">  1       -2 0.44980590E-03 0.28063256E+02</pdfrwt>
<totfact> 0.22446713E+06</totfact>
</mgrwt>
</event>
<event>
 4    1  0.3704929E-001  0.3232079E+02  0.7818608E-02  0.1573767E+00
         -2   -1    0    0    0  501 -0.00000000000E+00  0.00000000000E+00  0.54871080994E+02  0.54871081056E+02  0.26000000000E-02 0.  1.
          2   -1    0    0  501    0  0.00000000000E+00 -0.00000000000E+00 -0.47594904411E+01  0.47594911512E+01  0.26000000000E-02 0. -1.
        -13    1    1    2    0    0  0.78978254425E+00  0.15302740601E+02  0.34526320545E+02  0.37774007058E+02  0.10570000000E+00 0. -1.
         13    1    1    2    0    0 -0.78978254425E+00 -0.15302740601E+02  0.15585270008E+02  0.21856565149E+02  0.10570000000E+00 0.  1.
<mgrwt>
<rscale>  0 0.32320793E+02</rscale>
<asrwt>0</asrwt>
<pdfrwt beam="2">  1        2 0.73222939E-03 0.32320793E+02</pdfrwt>
<pdfrwt beam="1">  1       -2 0.84417045E-02 0.32320793E+02</pdfrwt>
<totfact> 0.11288959E+06</totfact>
</mgrwt>
</event>
<event>
 4    1  0.3704929E-001  0.2547302E+02  0.7818608E-02  0.1654299E+00
         -2   -1    0    0    0  501 -0.00000000000E+00  0.00000000000E+00  0.63153976346E+02  0.63153976399E+02  0.26000000000E-02 0. -1.
          2   -1    0    0  501    0  0.00000000000E+00 -0.00000000000E+00 -0.25686204959E+01  0.25686218118E+01  0.26000000000E-02 0.  1.
        -13    1    1    2    0    0 -0.12175125947E+02  0.23720327145E+01  0.37746959343E+02  0.39732912593E+02  0.10570000000E+00 0.  1.
         13    1    1    2    0    0  0.12175125947E+02 -0.23720327145E+01  0.22838396507E+02  0.25989685618E+02  0.10570000000E+00 0. -1.
<mgrwt>
<rscale>  0 0.25473017E+02</rscale>
<asrwt>0</asrwt>
<pdfrwt beam="2">  1        2 0.39517248E-03 0.25473017E+02</pdfrwt>
<pdfrwt beam="1">  1       -2 0.97159966E-02 0.25473017E+02</pdfrwt>
<totfact> 0.19067127E+06</totfact>
</mgrwt>
</event>
<event>
 4    1  0.3704929E-001  0.6407836E+02  0.7818608E-02  0.1381472E+00
          2   -1    0    0  501    0  0.00000000000E+00  0.00000000000E+00  0.14486255560E+03  0.14486255563E+03  0.26000000000E-02 0.  1.
         -2   -1    0    0    0  501 -0.00000000000E+00 -0.00000000000E+00 -0.70860896521E+01  0.70860901291E+01  0.26000000000E-02 0. -1.
        -13    1    1    2    0    0  0.30803093639E+02 -0.71440162762E+01  0.81125208250E+02  0.87069961137E+02  0.10570000000E+00 0.  1.
         13    1    1    2    0    0 -0.30803093639E+02  0.71440162762E+01  0.56651257701E+02  0.64878684619E+02  0.10570000000E+00 0. -1.
<mgrwt>
<rscale>  0 0.64078361E+02</rscale>
<asrwt>0</asrwt>
<pdfrwt beam="1">  1        2 0.22286545E-01 0.64078361E+02</pdfrwt>
<pdfrwt beam="2">  1       -2 0.10901678E-02 0.64078361E+02</pdfrwt>
<totfact> 0.35246685E+05</totfact>
</mgrwt>
</event>
<event>
 4    1  0.3704929E-001  0.2054221E+02  0.7818608E-02  0.1734756E+00
         -2   -1    0    0    0  501 -0.00000000000E+00  0.00000000000E+00  0.76880903426E+01  0.76880907823E+01  0.26000000000E-02 0.  1.
          2   -1    0    0  501    0  0.00000000000E+00 -0.00000000000E+00 -0.13721953775E+02  0.13721954022E+02  0.26000000000E-02 0. -1.
        -13    1    1    2    0    0 -0.87413766753E+01  0.52969601915E+01 -0.40669666223E+01  0.11000947389E+02  0.10570000000E+00 0. -1.
         13    1    1    2    0    0  0.87413766753E+01 -0.52969601915E+01 -0.19668968105E+01  0.10409097415E+02  0.10570000000E+00 0.  1.
<mgrwt>
<rscale>  0 0.20542213E+02</rscale>
<asrwt>0</asrwt>
<pdfrwt beam="2">  1        2 0.21110699E-02 0.20542213E+02</pdfrwt>
<pdfrwt beam="1">  1       -2 0.11827832E-02 0.20542213E+02</pdfrwt>
<totfact> 0.38020170E+06</totfact>
</mgrwt>
</event>
<event>
 4    1  0.3704929E-001  0.4917064E+02  0.7818608E-02  0.1449867E+00
          2   -1    0    0  501    0  0.00000000000E+00  0.00000000000E+00  0.32962515976E+01  0.32962526230E+01  0.26000000000E-02 0. -1.
         -2   -1    0    0    0  501 -0.00000000000E+00 -0.00000000000E+00 -0.18337129358E+03  0.18337129360E+03  0.26000000000E-02 0.  1.
        -13    1    1    2    0    0  0.17155777596E+02 -0.16143183492E+02 -0.11674802343E+03  0.11910094553E+03  0.10570000000E+00 0.  1.
         13    1    1    2    0    0 -0.17155777596E+02  0.16143183492E+02 -0.63327018556E+02  0.67566600698E+02  0.10570000000E+00 0. -1.
<mgrwt>
<rscale>  0 0.49170642E+02</rscale>
<asrwt>0</asrwt>
<pdfrwt beam="1">  1        2 0.50711586E-03 0.49170642E+02</pdfrwt>
<pdfrwt beam="2">  1       -2 0.28210960E-01 0.49170642E+02</pdfrwt>
<totfact> 0.30410753E+05</totfact>
</mgrwt>
</event>
<event>
 4    1  0.3704929E-001  0.3861375E+02  0.7818608E-02  0.1518668E+00
          2   -1    0    0  501    0  0.00000000000E+00  0.00000000000E+00  0.69836212919E+02  0.69836212967E+02  0.26000000000E-02 0. -1.
         -2   -1    0    0    0  501 -0.00000000000E+00 -0.00000000000E+00 -0.53375670444E+01  0.53375676776E+01  0.26000000000E-02 0.  1.
        -13    1    1    2    0    0  0.67992649520E+01  0.11985109620E+02  0.58576078569E+02  0.60175086286E+02  0.10570000000E+00 0. -1.
         13    1    1    2    0    0 -0.67992649520E+01 -0.11985109620E+02  0.59225673055E+01  0.14998694359E+02  0.10570000000E+00 0.  1.
<mgrwt>
<rscale>  0 0.38613754E+02</rscale>
<asrwt>0</asrwt>
<pdfrwt beam="1">  1        2 0.10744033E-01 0.38613754E+02</pdfrwt>
<pdfrwt beam="2">  1       -2 0.82116424E-03 0.38613754E+02</pdfrwt>
<totfact> 0.10495662E+06</totfact>
</mgrwt>
</event>
<event>
 4    1  0.3704929E-001  0.2258420E+02  0.7818608E-02  0.1698340E+00
          2   -1    0    0  501    0  0.00000000000E+00  0.00000000000E+00  0.82379200636E+02  0.82379200677E+02  0.26000000000E-02 0. -1.
         -2   -1    0    0    0  501 -0.00000000000E+00 -0.00000000000E+00 -0.15478591509E+01  0.15478613346E+01  0.26000000000E-02 0.  1.
        -13    1    1    2    0    0  0.30096027644E+01 -0.95922516487E+01  0.59521099352E+02  0.60364239754E+02  0.10570000000E+00 0. -1.
         13    1    1    2    0    0 -0.30096027644E+01  0.95922516487E+01  0.21310242133E+02  0.23562822258E+02  0.10570000000E+00 0.  1.
<mgrwt>
<rscale>  0 0.22584197E+02</rscale>
<asrwt>0</asrwt>
<pdfrwt beam="1">  1        2 0.12673722E-01 0.22584197E+02</pdfrwt>
<pdfrwt beam="2">  1       -2 0.23813238E-03 0.22584197E+02</pdfrwt>
<totfact> 0.38555451E+06</totfact>
</mgrwt>
</event>
<event>
 4    1  0.3704929E-001  0.2210714E+02  0.7818608E-02  0.1706406E+00
         -2   -1    0    0    0  501 -0.00000000000E+00  0.00000000000E+00  0.14473913587E+02  0.14473913821E+02  0.26000000000E-02 0.  1.
          2   -1    0    0  501    0  0.00000000000E+00 -0.00000000000E+00 -0.84414929910E+01  0.84414933914E+01  0.26000000000E-02 0. -1.
        -13    1    1    2    0    0 -0.92460613280E+01  0.59751530908E+01  0.19910254135E+01  0.11187826385E+02  0.10570000000E+00 0. -1.
         13    1    1    2    0    0  0.92460613280E+01 -0.59751530908E+01  0.40413951828E+01  0.11727580827E+02  0.10570000000E+00 0.  1.
<mgrwt>
<rscale>  0 0.22107143E+02</rscale>
<asrwt>0</asrwt>
<pdfrwt beam="2">  1        2 0.12986913E-02 0.22107143E+02</pdfrwt>
<pdfrwt beam="1">  1       -2 0.22267560E-02 0.22107143E+02</pdfrwt>
<totfact> 0.30888337E+06</totfact>
</mgrwt>
</event>
<event>
 4    1  0.3704929E-001  0.2244613E+02  0.7818608E-02  0.1700649E+00
         -2   -1    0    0    0  501 -0.00000000000E+00  0.00000000000E+00  0.30169353016E+01  0.30169364219E+01  0.26000000000E-02 0. -1.
          2   -1    0    0  501    0  0.00000000000E+00 -0.00000000000E+00 -0.41750030294E+02  0.41750030375E+02  0.26000000000E-02 0.  1.
        -13    1    1    2    0    0  0.43978623828E+01 -0.93354714047E+01 -0.28163214926E+02  0.29994500619E+02  0.10570000000E+00 0.  1.
         13    1    1    2    0    0 -0.43978623828E+01  0.93354714047E+01 -0.10569880066E+02  0.14772466178E+02  0.10570000000E+00 0. -1.
<mgrwt>
<rscale>  0 0.22446128E+02</rscale>
<asrwt>0</asrwt>
<pdfrwt beam="2">  1        2 0.64230812E-02 0.22446128E+02</pdfrwt>
<pdfrwt beam="1">  1       -2 0.46414402E-03 0.22446128E+02</pdfrwt>
<totfact> 0.34799131E+06</totfact>
</mgrwt>
</event>
<event>
 4    1  0.3704929E-001  0.3678155E+02  0.7818608E-02  0.1533326E+00
          2   -1    0    0  501    0  0.00000000000E+00  0.00000000000E+00  0.40445985847E+02  0.40445985931E+02  0.26000000000E-02 0. -1.
         -2   -1    0    0    0  501 -0.00000000000E+00 -0.00000000000E+00 -0.83622804638E+01  0.83622808680E+01  0.26000000000E-02 0.  1.
        -13    1    1    2    0    0  0.13025002318E+02 -0.10300792726E+02  0.26528537651E+02  0.31297467926E+02  0.10570000000E+00 0. -1.
         13    1    1    2    0    0 -0.13025002318E+02  0.10300792726E+02  0.55551677322E+01  0.17510798873E+02  0.10570000000E+00 0.  1.
<mgrwt>
<rscale>  0 0.36781555E+02</rscale>
<asrwt>0</asrwt>
<pdfrwt beam="1">  1        2 0.62224594E-02 0.36781555E+02</pdfrwt>
<pdfrwt beam="2">  1       -2 0.12865047E-02 0.36781555E+02</pdfrwt>
<totfact> 0.10725651E+06</totfact>
</mgrwt>
</event>
<event>
 4    1  0.3704929E-001  0.2213964E+02  0.7818608E-02  0.1705848E+00
          2   -1    0    0  501    0  0.00000000000E+00  0.00000000000E+00  0.61648610414E+01  0.61648615896E+01  0.26000000000E-02 0.  1.
         -2   -1    0    0    0  501 -0.00000000000E+00 -0.00000000000E+00 -0.19877320308E+02  0.19877320478E+02  0.26000000000E-02 0. -1.
        -13    1    1    2    0    0  0.85772084227E+01  0.66777567025E+01 -0.43976252685E+01  0.11726517786E+02  0.10570000000E+00 0. -1.
         13    1    1    2    0    0 -0.85772084227E+01 -0.66777567025E+01 -0.93148339977E+01  0.14315664281E+02  0.10570000000E+00 0.  1.
<mgrwt>
<rscale>  0 0.22139641E+02</rscale>
<asrwt>0</asrwt>
<pdfrwt beam="1">  1        2 0.94844022E-03 0.22139641E+02</pdfrwt>
<pdfrwt beam="2">  1       -2 0.30580493E-02 0.22139641E+02</pdfrwt>
<totfact> 0.29988372E+06</totfact>
</mgrwt>
</event>
<event>
 4    1  0.3704929E-001  0.2660153E+02  0.7818608E-02  0.1639010E+00
         -2   -1    0    0    0  501 -0.00000000000E+00  0.00000000000E+00  0.15724441662E+02  0.15724441877E+02  0.26000000000E-02 0.  1.
          2   -1    0    0  501    0  0.00000000000E+00 -0.00000000000E+00 -0.11250659034E+02  0.11250659335E+02  0.26000000000E-02 0. -1.
        -13    1    1    2    0    0 -0.65019402191E+01 -0.99502357319E+01 -0.38148954115E+01  0.12483870282E+02  0.10570000000E+00 0. -1.
         13    1    1    2    0    0  0.65019402191E+01  0.99502357319E+01  0.82886780393E+01  0.14491230930E+02  0.10570000000E+00 0.  1.
<mgrwt>
<rscale>  0 0.26601529E+02</rscale>
<asrwt>0</asrwt>
<pdfrwt beam="2">  1        2 0.17308707E-02 0.26601529E+02</pdfrwt>
<pdfrwt beam="1">  1       -2 0.24191449E-02 0.26601529E+02</pdfrwt>
<totfact> 0.20386127E+06</totfact>
</mgrwt>
</event>
<event>
 4    1  0.3704929E-001  0.2246065E+02  0.7818608E-02  0.1700405E+00
          2   -1    0    0  501    0  0.00000000000E+00  0.00000000000E+00  0.60776336436E+01  0.60776341997E+01  0.26000000000E-02 0. -1.
         -2   -1    0    0    0  501 -0.00000000000E+00 -0.00000000000E+00 -0.20751524067E+02  0.20751524230E+02  0.26000000000E-02 0.  1.
        -13    1    1    2    0    0  0.38917440481E+00 -0.11222931735E+02 -0.72678652472E+01  0.13376796746E+02  0.10570000000E+00 0. -1.
         13    1    1    2    0    0 -0.38917440481E+00  0.11222931735E+02 -0.74060251759E+01  0.13452361683E+02  0.10570000000E+00 0.  1.
<mgrwt>
<rscale>  0 0.22460647E+02</rscale>
<asrwt>0</asrwt>
<pdfrwt beam="1">  1        2 0.93502063E-03 0.22460647E+02</pdfrwt>
<pdfrwt beam="2">  1       -2 0.31925422E-02 0.22460647E+02</pdfrwt>
<totfact> 0.28943117E+06</totfact>
</mgrwt>
</event>
<event>
 4    1  0.3704929E-001  0.2615017E+02  0.7818608E-02  0.1645011E+00
          2   -1    0    0  501    0  0.00000000000E+00  0.00000000000E+00  0.10455094919E+03  0.10455094922E+03  0.26000000000E-02 0.  1.
         -2   -1    0    0    0  501 -0.00000000000E+00 -0.00000000000E+00 -0.16351615685E+01  0.16351636356E+01  0.26000000000E-02 0. -1.
        -13    1    1    2    0    0  0.69381221228E-02  0.12868081469E+02  0.60858107810E+02  0.62203762165E+02  0.10570000000E+00 0.  1.
         13    1    1    2    0    0 -0.69381221228E-02 -0.12868081469E+02  0.42057679811E+02  0.43982350692E+02  0.10570000000E+00 0. -1.
<mgrwt>
<rscale>  0 0.26150167E+02</rscale>
<asrwt>0</asrwt>
<pdfrwt beam="1">  1        2 0.16084761E-01 0.26150167E+02</pdfrwt>
<pdfrwt beam="2">  1       -2 0.25156349E-03 0.26150167E+02</pdfrwt>
<totfact> 0.29099060E+06</totfact>
</mgrwt>
</event>
<event>
 4    1  0.3704929E-001  0.2956974E+02  0.7818608E-02  0.1602894E+00
          2   -1    0    0  501    0  0.00000000000E+00  0.00000000000E+00  0.95972179552E+02  0.95972179587E+02  0.26000000000E-02 0. -1.
         -2   -1    0    0    0  501 -0.00000000000E+00 -0.00000000000E+00 -0.22776633909E+01  0.22776648749E+01  0.26000000000E-02 0.  1.
        -13    1    1    2    0    0  0.10239297610E+02  0.10664792176E+02  0.46798613867E+02  0.49078533394E+02  0.10570000000E+00 0.  1.
         13    1    1    2    0    0 -0.10239297610E+02 -0.10664792176E+02  0.46895902294E+02  0.49171311068E+02  0.10570000000E+00 0. -1.
<mgrwt>
<rscale>  0 0.29569741E+02</rscale>
<asrwt>0</asrwt>
<pdfrwt beam="1">  1        2 0.14764950E-01 0.29569741E+02</pdfrwt>
<pdfrwt beam="2">  1       -2 0.35040989E-03 0.29569741E+02</pdfrwt>
<totfact> 0.21408956E+06</totfact>
</mgrwt>
</event>
<event>
 4    1  0.3704929E-001  0.3183081E+02  0.7818608E-02  0.1578691E+00
          2   -1    0    0  501    0  0.00000000000E+00  0.00000000000E+00  0.33841796224E+01  0.33841806212E+01  0.26000000000E-02 0. -1.
         -2   -1    0    0    0  501 -0.00000000000E+00 -0.00000000000E+00 -0.74848292484E+02  0.74848292530E+02  0.26000000000E-02 0.  1.
        -13    1    1    2    0    0  0.12418227616E+02  0.64545044038E+01 -0.54355311028E+02  0.56128281763E+02  0.10570000000E+00 0.  1.
         13    1    1    2    0    0 -0.12418227616E+02 -0.64545044038E+01 -0.17108801834E+02  0.22104191387E+02  0.10570000000E+00 0. -1.
<mgrwt>
<rscale>  0 0.31830809E+02</rscale>
<asrwt>0</asrwt>
<pdfrwt beam="1">  1        2 0.52064315E-03 0.31830809E+02</pdfrwt>
<pdfrwt beam="2">  1       -2 0.11515121E-01 0.31830809E+02</pdfrwt>
<totfact> 0.11071336E+06</totfact>
</mgrwt>
</event>
<event>
 4    1  0.3704929E-001  0.2889302E+02  0.7818608E-02  0.1610657E+00
         -2   -1    0    0    0  501 -0.00000000000E+00  0.00000000000E+00  0.32105833082E+01  0.32105843609E+01  0.26000000000E-02 0.  1.
          2   -1    0    0  501    0  0.00000000000E+00 -0.00000000000E+00 -0.65004288607E+02  0.65004288659E+02  0.26000000000E-02 0. -1.
        -13    1    1    2    0    0 -0.12300741774E+02  0.63734768731E+01 -0.21231065265E+02  0.25351504105E+02  0.10570000000E+00 0.  1.
         13    1    1    2    0    0  0.12300741774E+02 -0.63734768731E+01 -0.40562640034E+02  0.42863368914E+02  0.10570000000E+00 0. -1.
<mgrwt>
<rscale>  0 0.28893025E+02</rscale>
<asrwt>0</asrwt>
<pdfrwt beam="2">  1        2 0.10000659E-01 0.28893025E+02</pdfrwt>
<pdfrwt beam="1">  1       -2 0.49393603E-03 0.28893025E+02</pdfrwt>
<totfact> 0.20818740E+06</totfact>
</mgrwt>
</event>
<event>
 4    1  0.3704929E-001  0.3937052E+02  0.7818608E-02  0.1512896E+00
         -2   -1    0    0    0  501 -0.00000000000E+00  0.00000000000E+00  0.82578048732E+01  0.82578052825E+01  0.26000000000E-02 0. -1.
          2   -1    0    0  501    0  0.00000000000E+00 -0.00000000000E+00 -0.46926438505E+02  0.46926438577E+02  0.26000000000E-02 0.  1.
        -13    1    1    2    0    0 -0.47841546590E+00  0.18448383265E+02 -0.97325090073E+01  0.20863955294E+02  0.10570000000E+00 0. -1.
         13    1    1    2    0    0  0.47841546590E+00 -0.18448383265E+02 -0.28936124625E+02  0.34320288566E+02  0.10570000000E+00 0.  1.
<mgrwt>
<rscale>  0 0.39370516E+02</rscale>
<asrwt>0</asrwt>
<pdfrwt beam="2">  1        2 0.72194520E-02 0.39370516E+02</pdfrwt>
<pdfrwt beam="1">  1       -2 0.12704316E-02 0.39370516E+02</pdfrwt>
<totfact> 0.92831017E+05</totfact>
</mgrwt>
</event>
<event>
 4    1  0.3704929E-001  0.2046460E+02  0.7818608E-02  0.1736244E+00
         -2   -1    0    0    0  501 -0.00000000000E+00  0.00000000000E+00  0.23245759495E+02  0.23245759640E+02  0.26000000000E-02 0.  1.
          2   -1    0    0  501    0  0.00000000000E+00 -0.00000000000E+00 -0.45040448478E+01  0.45040455982E+01  0.26000000000E-02 0. -1.
        -13    1    1    2    0    0  0.23469243227E+01 -0.99220492360E+01  0.82093910492E+01  0.13090469385E+02  0.10570000000E+00 0. -1.
         13    1    1    2    0    0 -0.23469243227E+01  0.99220492360E+01  0.10532323598E+02  0.14659335854E+02  0.10570000000E+00 0.  1.
<mgrwt>
<rscale>  0 0.20464599E+02</rscale>
<asrwt>0</asrwt>
<pdfrwt beam="2">  1        2 0.69293004E-03 0.20464599E+02</pdfrwt>
<pdfrwt beam="1">  1       -2 0.35762708E-02 0.20464599E+02</pdfrwt>
<totfact> 0.35147938E+06</totfact>
</mgrwt>
</event>
<event>
 4    1  0.3704929E-001  0.2325922E+02  0.7818608E-02  0.1687342E+00
          2   -1    0    0  501    0  0.00000000000E+00  0.00000000000E+00  0.19021696091E+02  0.19021696268E+02  0.26000000000E-02 0. -1.
         -2   -1    0    0    0  501 -0.00000000000E+00 -0.00000000000E+00 -0.71101857251E+01  0.71101862005E+01  0.26000000000E-02 0.  1.
        -13    1    1    2    0    0  0.81942160361E+01  0.81719588475E+01  0.72419322714E+01  0.13652210201E+02  0.10570000000E+00 0.  1.
         13    1    1    2    0    0 -0.81942160361E+01 -0.81719588475E+01  0.46695780941E+01  0.12479672268E+02  0.10570000000E+00 0. -1.
<mgrwt>
<rscale>  0 0.23259218E+02</rscale>
<asrwt>0</asrwt>
<pdfrwt beam="1">  1        2 0.29264149E-02 0.23259218E+02</pdfrwt>
<pdfrwt beam="2">  1       -2 0.10938748E-02 0.23259218E+02</pdfrwt>
<totfact> 0.29367263E+06</totfact>
</mgrwt>
</event>
<event>
 4    1  0.3704929E-001  0.2653601E+02  0.7818608E-02  0.1639872E+00
         -2   -1    0    0    0  501 -0.00000000000E+00  0.00000000000E+00  0.56484519493E+01  0.56484525477E+01  0.26000000000E-02 0. -1.
          2   -1    0    0  501    0  0.00000000000E+00 -0.00000000000E+00 -0.31166060454E+02  0.31166060562E+02  0.26000000000E-02 0.  1.
        -13    1    1    2    0    0  0.83449764452E+01  0.90785163417E+01 -0.59663904141E+01  0.13699163402E+02  0.10570000000E+00 0. -1.
         13    1    1    2    0    0 -0.83449764452E+01 -0.90785163417E+01 -0.19551218090E+02  0.23115349708E+02  0.10570000000E+00 0.  1.
<mgrwt>
<rscale>  0 0.26536014E+02</rscale>
<asrwt>0</asrwt>
<pdfrwt beam="2">  1        2 0.47947785E-02 0.26536014E+02</pdfrwt>
<pdfrwt beam="1">  1       -2 0.86899268E-03 0.26536014E+02</pdfrwt>
<totfact> 0.22738625E+06</totfact>
</mgrwt>
</event>
<event>
 4    1  0.3704929E-001  0.2349208E+02  0.7818608E-02  0.1683656E+00
         -2   -1    0    0    0  501 -0.00000000000E+00  0.00000000000E+00  0.36915234838E+01  0.36915243994E+01  0.26000000000E-02 0.  1.
          2   -1    0    0  501    0  0.00000000000E+00 -0.00000000000E+00 -0.37374667912E+02  0.37374668003E+02  0.26000000000E-02 0. -1.
        -13    1    1    2    0    0  0.95586405578E+01 -0.62301003440E+01 -0.21716368645E+02  0.24531481798E+02  0.10570000000E+00 0. -1.
         13    1    1    2    0    0 -0.95586405578E+01  0.62301003440E+01 -0.11966775784E+02  0.16534710604E+02  0.10570000000E+00 0.  1.
<mgrwt>
<rscale>  0 0.23492082E+02</rscale>
<asrwt>0</asrwt>
<pdfrwt beam="2">  1        2 0.57499487E-02 0.23492082E+02</pdfrwt>
<pdfrwt beam="1">  1       -2 0.56792679E-03 0.23492082E+02</pdfrwt>
<totfact> 0.30891692E+06</totfact>
</mgrwt>
</event>
<event>
 4    1  0.3704929E-001  0.6301457E+02  0.7818608E-02  0.1385599E+00
         -2   -1    0    0    0  501 -0.00000000000E+00  0.00000000000E+00  0.35323474012E+02  0.35323474108E+02  0.26000000000E-02 0.  1.
          2   -1    0    0  501    0  0.00000000000E+00 -0.00000000000E+00 -0.28103378471E+02  0.28103378592E+02  0.26000000000E-02 0. -1.
        -13    1    1    2    0    0 -0.17675621287E+02 -0.21124581827E+02 -0.11787826445E+02  0.29960633672E+02  0.10570000000E+00 0. -1.
         13    1    1    2    0    0  0.17675621287E+02  0.21124581827E+02  0.19007921986E+02  0.33466219027E+02  0.10570000000E+00 0.  1.
<mgrwt>
<rscale>  0 0.63014569E+02</rscale>
<asrwt>0</asrwt>
<pdfrwt beam="2">  1        2 0.43235967E-02 0.63014569E+02</pdfrwt>
<pdfrwt beam="1">  1       -2 0.54343806E-02 0.63014569E+02</pdfrwt>
<totfact> 0.24978844E+05</totfact>
</mgrwt>
</event>
<event>
 4    1  0.3704929E-001  0.2791525E+02  0.7818608E-02  0.1622346E+00
         -2   -1    0    0    0  501 -0.00000000000E+00  0.00000000000E+00  0.40257680181E+02  0.40257680265E+02  0.26000000000E-02 0.  1.
          2   -1    0    0  501    0  0.00000000000E+00 -0.00000000000E+00 -0.48392084653E+01  0.48392091638E+01  0.26000000000E-02 0. -1.
        -13    1    1    2    0    0 -0.46515147200E+01  0.11023763104E+02  0.29318798298E+02  0.31666434095E+02  0.10570000000E+00 0.  1.
         13    1    1    2    0    0  0.46515147200E+01 -0.11023763104E+02  0.60996734172E+01  0.13430455333E+02  0.10570000000E+00 0. -1.
<mgrwt>
<rscale>  0 0.27915252E+02</rscale>
<asrwt>0</asrwt>
<pdfrwt beam="2">  1        2 0.74449368E-03 0.27915252E+02</pdfrwt>
<pdfrwt beam="1">  1       -2 0.61934892E-02 0.27915252E+02</pdfrwt>
<totfact> 0.16550962E+06</totfact>
</mgrwt>
</event>
<event>
 4    1  0.3704929E-001  0.2496197E+02  0.7818608E-02  0.1661549E+00
         -2   -1    0    0    0  501 -0.00000000000E+00  0.00000000000E+00  0.14782844401E+02  0.14782844629E+02  0.26000000000E-02 0. -1.
          2   -1    0    0  501    0  0.00000000000E+00 -0.00000000000E+00 -0.10537549746E+02  0.10537550067E+02  0.26000000000E-02 0.  1.
        -13    1    1    2    0    0 -0.91621479743E+01 -0.64737241683E+01  0.76701549721E+01  0.13590309411E+02  0.10570000000E+00 0. -1.
         13    1    1    2    0    0  0.91621479743E+01  0.64737241683E+01 -0.34248603180E+01  0.11730085285E+02  0.10570000000E+00 0.  1.
<mgrwt>
<rscale>  0 0.24961968E+02</rscale>
<asrwt>0</asrwt>
<pdfrwt beam="2">  1        2 0.16211616E-02 0.24961968E+02</pdfrwt>
<pdfrwt beam="1">  1       -2 0.22742838E-02 0.24961968E+02</pdfrwt>
<totfact> 0.23610733E+06</totfact>
</mgrwt>
</event>
<event>
 4    1  0.3704929E-001  0.6495261E+02  0.7818608E-02  0.1378150E+00
          2   -1    0    0  501    0  0.00000000000E+00  0.00000000000E+00  0.31663061693E+02  0.31663061799E+02  0.26000000000E-02 0.  1.
         -2   -1    0    0    0  501 -0.00000000000E+00 -0.00000000000E+00 -0.33310439722E+02  0.33310439824E+02  0.26000000000E-02 0. -1.
        -13    1    1    2    0    0  0.28439233106E+02  0.40624629865E+01  0.14327328339E+02  0.32102602620E+02  0.10570000000E+00 0.  1.
         13    1    1    2    0    0 -0.28439233106E+02 -0.40624629865E+01 -0.15974706369E+02  0.32870899003E+02  0.10570000000E+00 0. -1.
<mgrwt>
<rscale>  0 0.64952614E+02</rscale>
<asrwt>0</asrwt>
<pdfrwt beam="1">  1        2 0.48712403E-02 0.64952614E+02</pdfrwt>
<pdfrwt beam="2">  1       -2 0.51246830E-02 0.64952614E+02</pdfrwt>
<totfact> 0.23521030E+05</totfact>
</mgrwt>
</event>
<event>
 4    1  0.3704929E-001  0.4680280E+02  0.7818608E-02  0.1463391E+00
         -2   -1    0    0    0  501 -0.00000000000E+00  0.00000000000E+00  0.52824505353E+01  0.52824511752E+01  0.26000000000E-02 0.  1.
          2   -1    0    0  501    0  0.00000000000E+00 -0.00000000000E+00 -0.10366884126E+03  0.10366884129E+03  0.26000000000E-02 0. -1.
        -13    1    1    2    0    0 -0.19005021769E+02  0.11798998831E+02 -0.65187467878E+02  0.68918969571E+02  0.10570000000E+00 0. -1.
         13    1    1    2    0    0  0.19005021769E+02 -0.11798998831E+02 -0.33198922846E+02  0.40032322896E+02  0.10570000000E+00 0.  1.
<mgrwt>
<rscale>  0 0.46802802E+02</rscale>
<asrwt>0</asrwt>
<pdfrwt beam="2">  1        2 0.15949051E-01 0.46802802E+02</pdfrwt>
<pdfrwt beam="1">  1       -2 0.81268483E-03 0.46802802E+02</pdfrwt>
<totfact> 0.71390363E+05</totfact>
</mgrwt>
</event>
<event>
 4    1  0.3704929E-001  0.4366344E+02  0.7818608E-02  0.1482862E+00
          2   -1    0    0  501    0  0.00000000000E+00  0.00000000000E+00  0.22721835332E+01  0.22721850207E+01  0.26000000000E-02 0.  1.
         -2   -1    0    0    0  501 -0.00000000000E+00 -0.00000000000E+00 -0.20976463802E+03  0.20976463804E+03  0.26000000000E-02 0. -1.
        -13    1    1    2    0    0 -0.27842318613E+01 -0.21644485235E+02 -0.10076430853E+03  0.10310040123E+03  0.10570000000E+00 0.  1.
         13    1    1    2    0    0  0.27842318613E+01  0.21644485235E+02 -0.10672814596E+03  0.10893642183E+03  0.10570000000E+00 0. -1.
<mgrwt>
<rscale>  0 0.43663436E+02</rscale>
<asrwt>0</asrwt>
<pdfrwt beam="1">  1        2 0.34956698E-03 0.43663436E+02</pdfrwt>
<pdfrwt beam="2">  1       -2 0.32271468E-01 0.43663436E+02</pdfrwt>
<totfact> 0.38473816E+05</totfact>
</mgrwt>
</event>
<event>
 4    1  0.3704929E-001  0.4257605E+02  0.7818608E-02  0.1490067E+00
         -2   -1    0    0    0  501 -0.00000000000E+00  0.00000000000E+00  0.12475607685E+03  0.12475607687E+03  0.26000000000E-02 0. -1.
          2   -1    0    0  501    0  0.00000000000E+00 -0.00000000000E+00 -0.36325282912E+01  0.36325292217E+01  0.26000000000E-02 0.  1.
        -13    1    1    2    0    0  0.15492879068E+02 -0.13834431282E+02  0.46498982980E+02  0.50927275416E+02  0.10570000000E+00 0.  1.
         13    1    1    2    0    0 -0.15492879068E+02  0.13834431282E+02  0.74624565577E+02  0.77461330680E+02  0.10570000000E+00 0. -1.
<mgrwt>
<rscale>  0 0.42576051E+02</rscale>
<asrwt>0</asrwt>
<pdfrwt beam="2">  1        2 0.55885054E-03 0.42576051E+02</pdfrwt>
<pdfrwt beam="1">  1       -2 0.19193244E-01 0.42576051E+02</pdfrwt>
<totfact> 0.49124647E+05</totfact>
</mgrwt>
</event>
<event>
 4    1  0.3704929E-001  0.3295122E+02  0.7818608E-02  0.1567585E+00
          2   -1    0    0  501    0  0.00000000000E+00  0.00000000000E+00  0.10870620777E+02  0.10870621088E+02  0.26000000000E-02 0.  1.
         -2   -1    0    0    0  501 -0.00000000000E+00 -0.00000000000E+00 -0.24970584111E+02  0.24970584246E+02  0.26000000000E-02 0. -1.
        -13    1    1    2    0    0 -0.10067398676E+02  0.21352932295E+00  0.71334763515E+01  0.12340817162E+02  0.10570000000E+00 0.  1.
         13    1    1    2    0    0  0.10067398676E+02 -0.21352932295E+00 -0.21233439686E+02  0.23500388172E+02  0.10570000000E+00 0. -1.
<mgrwt>
<rscale>  0 0.32951222E+02</rscale>
<asrwt>0</asrwt>
<pdfrwt beam="1">  1        2 0.16724032E-02 0.32951222E+02</pdfrwt>
<pdfrwt beam="2">  1       -2 0.38416283E-02 0.32951222E+02</pdfrwt>
<totfact> 0.11980030E+06</totfact>
</mgrwt>
</event>
<event>
 4    1  0.3704929E-001  0.2182465E+02  0.7818608E-02  0.1711302E+00
          2   -1    0    0  501    0  0.00000000000E+00  0.00000000000E+00  0.18486867982E+02  0.18486868165E+02  0.26000000000E-02 0.  1.
         -2   -1    0    0    0  501 -0.00000000000E+00 -0.00000000000E+00 -0.64412646518E+01  0.64412651766E+01  0.26000000000E-02 0. -1.
        -13    1    1    2    0    0 -0.59103259887E+01 -0.88643087000E+01  0.33295985702E+01  0.11162675358E+02  0.10570000000E+00 0. -1.
         13    1    1    2    0    0  0.59103259887E+01  0.88643087000E+01  0.87160047598E+01  0.13765457983E+02  0.10570000000E+00 0.  1.
<mgrwt>
<rscale>  0 0.21824648E+02</rscale>
<asrwt>0</asrwt>
<pdfrwt beam="1">  1        2 0.28441335E-02 0.21824648E+02</pdfrwt>
<pdfrwt beam="2">  1       -2 0.99096386E-03 0.21824648E+02</pdfrwt>
<totfact> 0.33927314E+06</totfact>
</mgrwt>
</event>
<event>
 4    1  0.3704929E-001  0.2236338E+02  0.7818608E-02  0.1702042E+00
         -2   -1    0    0    0  501 -0.00000000000E+00  0.00000000000E+00  0.77970318411E+02  0.77970318454E+02  0.26000000000E-02 0. -1.
          2   -1    0    0  501    0  0.00000000000E+00 -0.00000000000E+00 -0.16035602525E+01  0.16035623603E+01  0.26000000000E-02 0.  1.
        -13    1    1    2    0    0  0.62892839522E+01 -0.79289401511E+01  0.21269342392E+02  0.23554602158E+02  0.10570000000E+00 0.  1.
         13    1    1    2    0    0 -0.62892839522E+01  0.79289401511E+01  0.55097415766E+02  0.56019278656E+02  0.10570000000E+00 0. -1.
<mgrwt>
<rscale>  0 0.22363380E+02</rscale>
<asrwt>0</asrwt>
<pdfrwt beam="2">  1        2 0.24670179E-03 0.22363380E+02</pdfrwt>
<pdfrwt beam="1">  1       -2 0.11995431E-01 0.22363380E+02</pdfrwt>
<totfact> 0.24563567E+06</totfact>
</mgrwt>
</event>
<event>
 4    1  0.3704929E-001  0.3018941E+02  0.7818608E-02  0.1596004E+00
         -2   -1    0    0    0  501 -0.00000000000E+00  0.00000000000E+00  0.69197563447E+01  0.69197568331E+01  0.26000000000E-02 0. -1.
          2   -1    0    0  501    0  0.00000000000E+00 -0.00000000000E+00 -0.32927477716E+02  0.32927477818E+02  0.26000000000E-02 0.  1.
        -13    1    1    2    0    0 -0.14334468613E+02 -0.38057422689E+01 -0.92991036176E+01  0.17505575261E+02  0.10570000000E+00 0. -1.
         13    1    1    2    0    0  0.14334468613E+02  0.38057422689E+01 -0.16708617753E+02  0.22341659391E+02  0.10570000000E+00 0.  1.
<mgrwt>
<rscale>  0 0.30189411E+02</rscale>
<asrwt>0</asrwt>
<pdfrwt beam="2">  1        2 0.50657658E-02 0.30189411E+02</pdfrwt>
<pdfrwt beam="1">  1       -2 0.10645780E-02 0.30189411E+02</pdfrwt>
<totfact> 0.16849836E+06</totfact>
</mgrwt>
</event>
<event>
 4    1  0.3704929E-001  0.4512395E+02  0.7818608E-02  0.1473569E+00
         -2   -1    0    0    0  501 -0.00000000000E+00  0.00000000000E+00  0.20102586115E+02  0.20102586283E+02  0.26000000000E-02 0. -1.
          2   -1    0    0  501    0  0.00000000000E+00 -0.00000000000E+00 -0.25322252120E+02  0.25322252254E+02  0.26000000000E-02 0.  1.
        -13    1    1    2    0    0 -0.29030486436E+01 -0.10224001468E+02  0.17424471091E+02  0.20410322456E+02  0.10570000000E+00 0. -1.
         13    1    1    2    0    0  0.29030486436E+01  0.10224001468E+02 -0.22644137096E+02  0.25014516081E+02  0.10570000000E+00 0.  1.
<mgrwt>
<rscale>  0 0.45123952E+02</rscale>
<asrwt>0</asrwt>
<pdfrwt beam="2">  1        2 0.38957311E-02 0.45123952E+02</pdfrwt>
<pdfrwt beam="1">  1       -2 0.30927056E-02 0.45123952E+02</pdfrwt>
<totfact> 0.59737765E+05</totfact>
</mgrwt>
</event>
<event>
 4    1  0.3704929E-001  0.2923306E+02  0.7818608E-02  0.1606724E+00
          2   -1    0    0  501    0  0.00000000000E+00  0.00000000000E+00  0.30975870847E+02  0.30975870957E+02  0.26000000000E-02 0.  1.
         -2   -1    0    0    0  501 -0.00000000000E+00 -0.00000000000E+00 -0.68970767733E+01  0.68970772633E+01  0.26000000000E-02 0. -1.
        -13    1    1    2    0    0 -0.11746814906E+02 -0.44994603763E+01  0.23965394252E+01  0.12805755652E+02  0.10570000000E+00 0. -1.
         13    1    1    2    0    0  0.11746814906E+02  0.44994603763E+01  0.21682254649E+02  0.25067192568E+02  0.10570000000E+00 0.  1.
<mgrwt>
<rscale>  0 0.29233061E+02</rscale>
<asrwt>0</asrwt>
<pdfrwt beam="1">  1        2 0.47655185E-02 0.29233061E+02</pdfrwt>
<pdfrwt beam="2">  1       -2 0.10610888E-02 0.29233061E+02</pdfrwt>
<totfact> 0.18060421E+06</totfact>
</mgrwt>
</event>
<event>
 4    1  0.3704929E-001  0.2976205E+02  0.7818608E-02  0.1600734E+00
          2   -1    0    0  501    0  0.00000000000E+00  0.00000000000E+00  0.22601869185E+01  0.22601884139E+01  0.26000000000E-02 0.  1.
         -2   -1    0    0    0  501 -0.00000000000E+00 -0.00000000000E+00 -0.97976311042E+02  0.97976311076E+02  0.26000000000E-02 0. -1.
        -13    1    1    2    0    0  0.10017698844E+02  0.79374463737E+01 -0.73524328825E+02  0.74627042329E+02  0.10570000000E+00 0.  1.
         13    1    1    2    0    0 -0.10017698844E+02 -0.79374463737E+01 -0.22191795298E+02  0.25609457162E+02  0.10570000000E+00 0. -1.
<mgrwt>
<rscale>  0 0.29762047E+02</rscale>
<asrwt>0</asrwt>
<pdfrwt beam="1">  1        2 0.34772126E-03 0.29762047E+02</pdfrwt>
<pdfrwt beam="2">  1       -2 0.15073275E-01 0.29762047E+02</pdfrwt>
<totfact> 0.12210736E+06</totfact>
</mgrwt>
</event>
<event>
 4    1  0.3704929E-001  0.5587119E+02  0.7818608E-02  0.1416023E+00
         -2   -1    0    0    0  501 -0.00000000000E+00  0.00000000000E+00  0.55840266567E+01  0.55840272620E+01  0.26000000000E-02 0.  1.
          2   -1    0    0  501    0  0.00000000000E+00 -0.00000000000E+00 -0.13975530415E+03  0.13975530417E+03  0.26000000000E-02 0. -1.
        -13    1    1    2    0    0 -0.13053740027E+02 -0.20993090585E+02 -0.33240737189E+02  0.41425448246E+02  0.10570000000E+00 0.  1.
         13    1    1    2    0    0  0.13053740027E+02  0.20993090585E+02 -0.10093054030E+03  0.10391388319E+03  0.10570000000E+00 0. -1.
<mgrwt>
<rscale>  0 0.55871187E+02</rscale>
<asrwt>0</asrwt>
<pdfrwt beam="2">  1        2 0.21500813E-01 0.55871187E+02</pdfrwt>
<pdfrwt beam="1">  1       -2 0.85908118E-03 0.55871187E+02</pdfrwt>
<totfact> 0.49607698E+05</totfact>
</mgrwt>
</event>
<event>
 4    1  0.3704929E-001  0.2530986E+02  0.7818608E-02  0.1656591E+00
          2   -1    0    0  501    0  0.00000000000E+00  0.00000000000E+00  0.46918454396E+02  0.46918454468E+02  0.26000000000E-02 0. -1.
         -2   -1    0    0    0  501 -0.00000000000E+00 -0.00000000000E+00 -0.34133099728E+01  0.34133109630E+01  0.26000000000E-02 0.  1.
        -13    1    1    2    0    0 -0.10032322401E+02  0.19461317247E+01  0.36594302763E+02  0.37994592887E+02  0.10570000000E+00 0. -1.
         13    1    1    2    0    0  0.10032322401E+02 -0.19461317247E+01  0.69108416601E+01  0.12337172544E+02  0.10570000000E+00 0.  1.
<mgrwt>
<rscale>  0 0.25309860E+02</rscale>
<asrwt>0</asrwt>
<pdfrwt beam="1">  1        2 0.72182234E-02 0.25309860E+02</pdfrwt>
<pdfrwt beam="2">  1       -2 0.52512473E-03 0.25309860E+02</pdfrwt>
<totfact> 0.26851052E+06</totfact>
</mgrwt>
</event>
<event>
 4    1  0.3704929E-001  0.2237186E+02  0.7818608E-02  0.1701899E+00
          2   -1    0    0  501    0  0.00000000000E+00  0.00000000000E+00  0.53085666449E+02  0.53085666513E+02  0.26000000000E-02 0. -1.
         -2   -1    0    0    0  501 -0.00000000000E+00 -0.00000000000E+00 -0.23570397670E+01  0.23570412010E+01  0.26000000000E-02 0.  1.
        -13    1    1    2    0    0  0.10035203745E+02 -0.27452245974E+01  0.35543890087E+02  0.37035400191E+02  0.10570000000E+00 0.  1.
         13    1    1    2    0    0 -0.10035203745E+02  0.27452245974E+01  0.15184736595E+02  0.18407307522E+02  0.10570000000E+00 0. -1.
<mgrwt>
<rscale>  0 0.22371863E+02</rscale>
<asrwt>0</asrwt>
<pdfrwt beam="1">  1        2 0.81670265E-02 0.22371863E+02</pdfrwt>
<pdfrwt beam="2">  1       -2 0.36262158E-03 0.22371863E+02</pdfrwt>
<totfact> 0.36338297E+06</totfact>
</mgrwt>
</event>
<event>
 4    1  0.3704929E-001  0.2295711E+02  0.7818608E-02  0.1692206E+00
         -2   -1    0    0    0  501 -0.00000000000E+00  0.00000000000E+00  0.72183933919E+01  0.72183938601E+01  0.26000000000E-02 0. -1.
          2   -1    0    0  501    0  0.00000000000E+00 -0.00000000000E+00 -0.18252987987E+02  0.18252988172E+02  0.26000000000E-02 0.  1.
        -13    1    1    2    0    0  0.97259234980E+01  0.60632585858E+01 -0.62096514015E+01  0.13035629466E+02  0.10570000000E+00 0. -1.
         13    1    1    2    0    0 -0.97259234980E+01 -0.60632585858E+01 -0.48249431935E+01  0.12435752566E+02  0.10570000000E+00 0.  1.
<mgrwt>
<rscale>  0 0.22957113E+02</rscale>
<asrwt>0</asrwt>
<pdfrwt beam="2">  1        2 0.28081520E-02 0.22957113E+02</pdfrwt>
<pdfrwt beam="1">  1       -2 0.11105221E-02 0.22957113E+02</pdfrwt>
<totfact> 0.30156701E+06</totfact>
</mgrwt>
</event>
<event>
 4    1  0.3704929E-001  0.4074674E+02  0.7818608E-02  0.1502787E+00
          2   -1    0    0  501    0  0.00000000000E+00  0.00000000000E+00  0.62158044000E+02  0.62158044055E+02  0.26000000000E-02 0. -1.
         -2   -1    0    0    0  501 -0.00000000000E+00 -0.00000000000E+00 -0.66777225390E+01  0.66777230452E+01  0.26000000000E-02 0.  1.
        -13    1    1    2    0    0  0.13997241755E+02  0.13455820271E+02  0.38165165910E+02  0.42820239809E+02  0.10570000000E+00 0. -1.
         13    1    1    2    0    0 -0.13997241755E+02 -0.13455820271E+02  0.17315155551E+02  0.26015527290E+02  0.10570000000E+00 0.  1.
<mgrwt>
<rscale>  0 0.40746739E+02</rscale>
<asrwt>0</asrwt>
<pdfrwt beam="1">  1        2 0.95627763E-02 0.40746739E+02</pdfrwt>
<pdfrwt beam="2">  1       -2 0.10273419E-02 0.40746739E+02</pdfrwt>
<totfact> 0.89749425E+05</totfact>
</mgrwt>
</event>
<event>
 4    1  0.3704929E-001  0.4299952E+02  0.7818608E-02  0.1487231E+00
         -2   -1    0    0    0  501 -0.00000000000E+00  0.00000000000E+00  0.99429100785E+01  0.99429104185E+01  0.26000000000E-02 0.  1.
          2   -1    0    0  501    0  0.00000000000E+00 -0.00000000000E+00 -0.46489363927E+02  0.46489363999E+02  0.26000000000E-02 0. -1.
        -13    1    1    2    0    0  0.27835414011E+01  0.21318450629E+02 -0.18355858958E+02  0.28269651051E+02  0.10570000000E+00 0.  1.
         13    1    1    2    0    0 -0.27835414011E+01 -0.21318450629E+02 -0.18190594890E+02  0.28162623367E+02  0.10570000000E+00 0. -1.
<mgrwt>
<rscale>  0 0.42999515E+02</rscale>
<asrwt>0</asrwt>
<pdfrwt beam="2">  1        2 0.71522098E-02 0.42999515E+02</pdfrwt>
<pdfrwt beam="1">  1       -2 0.15296785E-02 0.42999515E+02</pdfrwt>
<totfact> 0.74338701E+05</totfact>
</mgrwt>
</event>
<event>
 4    1  0.3704929E-001  0.2805384E+02  0.7818608E-02  0.1620654E+00
         -2   -1    0    0    0  501 -0.00000000000E+00  0.00000000000E+00  0.84822592712E+01  0.84822596696E+01  0.26000000000E-02 0. -1.
          2   -1    0    0  501    0  0.00000000000E+00 -0.00000000000E+00 -0.23195994488E+02  0.23195994634E+02  0.26000000000E-02 0.  1.
        -13    1    1    2    0    0  0.18397178996E+01 -0.11153831977E+02  0.20195825499E+01  0.11484006962E+02  0.10570000000E+00 0.  1.
         13    1    1    2    0    0 -0.18397178996E+01  0.11153831977E+02 -0.16733317767E+02  0.20194247342E+02  0.10570000000E+00 0. -1.
<mgrwt>
<rscale>  0 0.28053837E+02</rscale>
<asrwt>0</asrwt>
<pdfrwt beam="2">  1        2 0.35686145E-02 0.28053837E+02</pdfrwt>
<pdfrwt beam="1">  1       -2 0.13049630E-02 0.28053837E+02</pdfrwt>
<totfact> 0.19265670E+06</totfact>
</mgrwt>
</event>
<event>
 4    1  0.3704929E-001  0.7891359E+02  0.7818608E-02  0.1332163E+00
         -2   -1    0    0    0  501 -0.00000000000E+00  0.00000000000E+00  0.14931639464E+03  0.14931639466E+03  0.26000000000E-02 0.  1.
          2   -1    0    0  501    0  0.00000000000E+00 -0.00000000000E+00 -0.10426442424E+02  0.10426442748E+02  0.26000000000E-02 0. -1.
        -13    1    1    2    0    0  0.36373577530E+02 -0.13850313023E+02  0.82557426675E+02  0.91272165444E+02  0.10570000000E+00 0. -1.
         13    1    1    2    0    0 -0.36373577530E+02  0.13850313023E+02  0.56332525542E+02  0.68470671967E+02  0.10570000000E+00 0.  1.
<mgrwt>
<rscale>  0 0.78913594E+02</rscale>
<asrwt>0</asrwt>
<pdfrwt beam="2">  1        2 0.16040682E-02 0.78913594E+02</pdfrwt>
<pdfrwt beam="1">  1       -2 0.22971752E-01 0.78913594E+02</pdfrwt>
<totfact> 0.10079292E+05</totfact>
</mgrwt>
</event>
<event>
 4    1  0.3704929E-001  0.5015201E+02  0.7818608E-02  0.1444523E+00
          2   -1    0    0  501    0  0.00000000000E+00  0.00000000000E+00  0.22455901696E+02  0.22455901846E+02  0.26000000000E-02 0. -1.
         -2   -1    0    0    0  501 -0.00000000000E+00 -0.00000000000E+00 -0.28001813300E+02  0.28001813420E+02  0.26000000000E-02 0.  1.
        -13    1    1    2    0    0 -0.50143352437E+01 -0.21209445763E+02  0.97046846029E+01  0.23857414429E+02  0.10570000000E+00 0. -1.
         13    1    1    2    0    0  0.50143352437E+01  0.21209445763E+02 -0.15250596207E+02  0.26600300838E+02  0.10570000000E+00 0.  1.
<mgrwt>
<rscale>  0 0.50152008E+02</rscale>
<asrwt>0</asrwt>
<pdfrwt beam="1">  1        2 0.34547541E-02 0.50152008E+02</pdfrwt>
<pdfrwt beam="2">  1       -2 0.43079713E-02 0.50152008E+02</pdfrwt>
<totfact> 0.44481581E+05</totfact>
</mgrwt>
</event>
<event>
 4    1  0.3704929E-001  0.4123659E+02  0.7818608E-02  0.1499304E+00
         -2   -1    0    0    0  501 -0.00000000000E+00  0.00000000000E+00  0.41356134387E+02  0.41356134469E+02  0.26000000000E-02 0. -1.
          2   -1    0    0  501    0  0.00000000000E+00 -0.00000000000E+00 -0.10279345140E+02  0.10279345469E+02  0.26000000000E-02 0.  1.
        -13    1    1    2    0    0 -0.13772345948E+02 -0.13328369105E+02  0.25056573147E+02  0.31546251224E+02  0.10570000000E+00 0. -1.
         13    1    1    2    0    0  0.13772345948E+02  0.13328369105E+02  0.60202161004E+01  0.20089228714E+02  0.10570000000E+00 0.  1.
<mgrwt>
<rscale>  0 0.41236585E+02</rscale>
<asrwt>0</asrwt>
<pdfrwt beam="2">  1        2 0.15814378E-02 0.41236585E+02</pdfrwt>
<pdfrwt beam="1">  1       -2 0.63624822E-02 0.41236585E+02</pdfrwt>
<totfact> 0.66525574E+05</totfact>
</mgrwt>
</event>
<event>
 4    1  0.3704929E-001  0.5559026E+02  0.7818608E-02  0.1417328E+00
         -2   -1    0    0    0  501 -0.00000000000E+00  0.00000000000E+00  0.76459167995E+02  0.76459168040E+02  0.26000000000E-02 0. -1.
          2   -1    0    0  501    0  0.00000000000E+00 -0.00000000000E+00 -0.10104338068E+02  0.10104338403E+02  0.26000000000E-02 0.  1.
        -13    1    1    2    0    0  0.82366010330E+01  0.25367688840E+02  0.45358915964E+02  0.52619422874E+02  0.10570000000E+00 0.  1.
         13    1    1    2    0    0 -0.82366010330E+01 -0.25367688840E+02  0.20995913963E+02  0.33944083568E+02  0.10570000000E+00 0. -1.
<mgrwt>
<rscale>  0 0.55590262E+02</rscale>
<asrwt>0</asrwt>
<pdfrwt beam="2">  1        2 0.15545137E-02 0.55590262E+02</pdfrwt>
<pdfrwt beam="1">  1       -2 0.11762948E-01 0.55590262E+02</pdfrwt>
<totfact> 0.29022994E+05</totfact>
</mgrwt>
</event>
<event>
 4    1  0.3704929E-001  0.2227130E+02  0.7818608E-02  0.1703602E+00
          2   -1    0    0  501    0  0.00000000000E+00  0.00000000000E+00  0.87055377045E+01  0.87055380928E+01  0.26000000000E-02 0.  1.
         -2   -1    0    0    0  501 -0.00000000000E+00 -0.00000000000E+00 -0.14244114053E+02  0.14244114291E+02  0.26000000000E-02 0. -1.
        -13    1    1    2    0    0 -0.90959907201E+01  0.55732164757E+01  0.52071926833E+00  0.10680829093E+02  0.10570000000E+00 0. -1.
         13    1    1    2    0    0  0.90959907201E+01 -0.55732164757E+01 -0.60592956171E+01  0.12268823290E+02  0.10570000000E+00 0.  1.
<mgrwt>
<rscale>  0 0.22271298E+02</rscale>
<asrwt>0</asrwt>
<pdfrwt beam="1">  1        2 0.13393135E-02 0.22271298E+02</pdfrwt>
<pdfrwt beam="2">  1       -2 0.21914022E-02 0.22271298E+02</pdfrwt>
<totfact> 0.30432293E+06</totfact>
</mgrwt>
</event>
<event>
 4    1  0.3704929E-001  0.6356044E+02  0.7818608E-02  0.1383470E+00
         -2   -1    0    0    0  501 -0.00000000000E+00  0.00000000000E+00  0.58355663332E+01  0.58355669124E+01  0.26000000000E-02 0.  1.
          2   -1    0    0  501    0  0.00000000000E+00 -0.00000000000E+00 -0.17307355020E+03  0.17307355022E+03  0.26000000000E-02 0. -1.
        -13    1    1    2    0    0 -0.35258877250E+01 -0.31565753323E+02 -0.80610463826E+02  0.86642291739E+02  0.10570000000E+00 0. -1.
         13    1    1    2    0    0  0.35258877250E+01  0.31565753323E+02 -0.86627520036E+02  0.92266825388E+02  0.10570000000E+00 0.  1.
<mgrwt>
<rscale>  0 0.63560435E+02</rscale>
<asrwt>0</asrwt>
<pdfrwt beam="2">  1        2 0.26626696E-01 0.63560435E+02</pdfrwt>
<pdfrwt beam="1">  1       -2 0.89777962E-03 0.63560435E+02</pdfrwt>
<totfact> 0.38114990E+05</totfact>
</mgrwt>
</event>
<event>
 4    1  0.3704929E-001  0.2181731E+02  0.7818608E-02  0.1711431E+00
         -2   -1    0    0    0  501 -0.00000000000E+00  0.00000000000E+00  0.33466280250E+01  0.33466290350E+01  0.26000000000E-02 0. -1.
          2   -1    0    0  501    0  0.00000000000E+00 -0.00000000000E+00 -0.35557784758E+02  0.35557784853E+02  0.26000000000E-02 0.  1.
        -13    1    1    2    0    0 -0.10473642408E+02  0.27957340326E+01 -0.18270678683E+02  0.21244815511E+02  0.10570000000E+00 0.  1.
         13    1    1    2    0    0  0.10473642408E+02 -0.27957340326E+01 -0.13940478050E+02  0.17659598376E+02  0.10570000000E+00 0. -1.
<mgrwt>
<rscale>  0 0.21817305E+02</rscale>
<asrwt>0</asrwt>
<pdfrwt beam="2">  1        2 0.54704282E-02 0.21817305E+02</pdfrwt>
<pdfrwt beam="1">  1       -2 0.51486596E-03 0.21817305E+02</pdfrwt>
<totfact> 0.36351401E+06</totfact>
</mgrwt>
</event>
<event>
 4    1  0.3704929E-001  0.2039035E+02  0.7818608E-02  0.1737675E+00
          2   -1    0    0  501    0  0.00000000000E+00  0.00000000000E+00  0.45285002364E+01  0.45285009828E+01  0.26000000000E-02 0.  1.
         -2   -1    0    0    0  501 -0.00000000000E+00 -0.00000000000E+00 -0.22952766109E+02  0.22952766256E+02  0.26000000000E-02 0. -1.
        -13    1    1    2    0    0 -0.10096227359E+02 -0.14096871849E+01 -0.93429537047E+01  0.13828339787E+02  0.10570000000E+00 0.  1.
         13    1    1    2    0    0  0.10096227359E+02  0.14096871849E+01 -0.90813121680E+01  0.13652927452E+02  0.10570000000E+00 0. -1.
<mgrwt>
<rscale>  0 0.20390353E+02</rscale>
<asrwt>0</asrwt>
<pdfrwt beam="1">  1        2 0.69669243E-03 0.20390353E+02</pdfrwt>
<pdfrwt beam="2">  1       -2 0.35311948E-02 0.20390353E+02</pdfrwt>
<totfact> 0.35468355E+06</totfact>
</mgrwt>
</event>
<event>
 4    1  0.3704929E-001  0.5020349E+02  0.7818608E-02  0.1444247E+00
          2   -1    0    0  501    0  0.00000000000E+00  0.00000000000E+00  0.15931564301E+03  0.15931564303E+03  0.26000000000E-02 0. -1.
         -2   -1    0    0    0  501 -0.00000000000E+00 -0.00000000000E+00 -0.39550254428E+01  0.39550262975E+01  0.26000000000E-02 0.  1.
        -13    1    1    2    0    0  0.82331197275E+01 -0.23706878747E+02  0.79419418857E+02  0.83290189245E+02  0.10570000000E+00 0. -1.
         13    1    1    2    0    0 -0.82331197275E+01  0.23706878747E+02  0.75941198706E+02  0.79980480079E+02  0.10570000000E+00 0.  1.
<mgrwt>
<rscale>  0 0.50203486E+02</rscale>
<asrwt>0</asrwt>
<pdfrwt beam="1">  1        2 0.24510095E-01 0.50203486E+02</pdfrwt>
<pdfrwt beam="2">  1       -2 0.60846561E-03 0.50203486E+02</pdfrwt>
<totfact> 0.67722422E+05</totfact>
</mgrwt>
</event>
<event>
 4    1  0.3704929E-001  0.3301667E+02  0.7818608E-02  0.1566953E+00
          2   -1    0    0  501    0  0.00000000000E+00  0.00000000000E+00  0.10605338273E+03  0.10605338276E+03  0.26000000000E-02 0. -1.
         -2   -1    0    0    0  501 -0.00000000000E+00 -0.00000000000E+00 -0.25696965560E+01  0.25696978713E+01  0.26000000000E-02 0.  1.
        -13    1    1    2    0    0 -0.11892611518E+02 -0.81572201307E+01  0.78172110363E+02  0.79491285434E+02  0.10570000000E+00 0. -1.
         13    1    1    2    0    0  0.11892611518E+02  0.81572201307E+01  0.25311575814E+02  0.29131795202E+02  0.10570000000E+00 0.  1.
<mgrwt>
<rscale>  0 0.33016668E+02</rscale>
<asrwt>0</asrwt>
<pdfrwt beam="1">  1        2 0.16315905E-01 0.33016668E+02</pdfrwt>
<pdfrwt beam="2">  1       -2 0.39533804E-03 0.33016668E+02</pdfrwt>
<totfact> 0.16883252E+06</totfact>
</mgrwt>
</event>
<event>
 4    1  0.3704929E-001  0.2992317E+02  0.7818608E-02  0.1598939E+00
         -2   -1    0    0    0  501 -0.00000000000E+00  0.00000000000E+00  0.25343150163E+02  0.25343150296E+02  0.26000000000E-02 0.  1.
          2   -1    0    0  501    0  0.00000000000E+00 -0.00000000000E+00 -0.88327228094E+01  0.88327231921E+01  0.26000000000E-02 0. -1.
        -13    1    1    2    0    0  0.10623011636E+02  0.30495369815E+01 -0.32620875803E+01  0.11523907319E+02  0.10570000000E+00 0. -1.
         13    1    1    2    0    0 -0.10623011636E+02 -0.30495369815E+01  0.19772514934E+02  0.22651966169E+02  0.10570000000E+00 0.  1.
<mgrwt>
<rscale>  0 0.29923170E+02</rscale>
<asrwt>0</asrwt>
<pdfrwt beam="2">  1        2 0.13588805E-02 0.29923170E+02</pdfrwt>
<pdfrwt beam="1">  1       -2 0.38989462E-02 0.29923170E+02</pdfrwt>
<totfact> 0.14912776E+06</totfact>
</mgrwt>
</event>
<event>
 4    1  0.3704929E-001  0.2659337E+02  0.7818608E-02  0.1639117E+00
         -2   -1    0    0    0  501 -0.00000000000E+00  0.00000000000E+00  0.13608814568E+02  0.13608814817E+02  0.26000000000E-02 0.  1.
          2   -1    0    0  501    0  0.00000000000E+00 -0.00000000000E+00 -0.12991711164E+02  0.12991711424E+02  0.26000000000E-02 0. -1.
        -13    1    1    2    0    0  0.64392592591E+01 -0.80272816469E+01 -0.81132939644E+01  0.13104885421E+02  0.10570000000E+00 0. -1.
         13    1    1    2    0    0 -0.64392592591E+01  0.80272816469E+01  0.87303973687E+01  0.13495640820E+02  0.10570000000E+00 0.  1.
<mgrwt>
<rscale>  0 0.26593367E+02</rscale>
<asrwt>0</asrwt>
<pdfrwt beam="2">  1        2 0.19987248E-02 0.26593367E+02</pdfrwt>
<pdfrwt beam="1">  1       -2 0.20936638E-02 0.26593367E+02</pdfrwt>
<totfact> 0.20674732E+06</totfact>
</mgrwt>
</event>
<event>
 4    1  0.3704929E-001  0.2838971E+02  0.7818608E-02  0.1616602E+00
          2   -1    0    0  501    0  0.00000000000E+00  0.00000000000E+00  0.20353918199E+01  0.20353934806E+01  0.26000000000E-02 0.  1.
         -2   -1    0    0    0  501 -0.00000000000E+00 -0.00000000000E+00 -0.98995115459E+02  0.98995115493E+02  0.26000000000E-02 0. -1.
        -13    1    1    2    0    0  0.10238875702E+02 -0.95530821928E+01 -0.56739428014E+02  0.58442021003E+02  0.10570000000E+00 0. -1.
         13    1    1    2    0    0 -0.10238875702E+02  0.95530821928E+01 -0.40220295625E+02  0.42588487971E+02  0.10570000000E+00 0.  1.
<mgrwt>
<rscale>  0 0.28389712E+02</rscale>
<asrwt>0</asrwt>
<pdfrwt beam="1">  1        2 0.31313741E-03 0.28389712E+02</pdfrwt>
<pdfrwt beam="2">  1       -2 0.15230014E-01 0.28389712E+02</pdfrwt>
<totfact> 0.13582421E+06</totfact>
</mgrwt>
</event>
<event>
 4    1  0.3704929E-001  0.2606299E+02  0.7818608E-02  0.1646187E+00
         -2   -1    0    0    0  501 -0.00000000000E+00  0.00000000000E+00  0.21990294819E+01  0.21990310189E+01  0.26000000000E-02 0. -1.
          2   -1    0    0  501    0  0.00000000000E+00 -0.00000000000E+00 -0.77224891270E+02  0.77224891313E+02  0.26000000000E-02 0.  1.
        -13    1    1    2    0    0 -0.12875467104E+02 -0.10974929052E+01 -0.32389556275E+02  0.34872290892E+02  0.10570000000E+00 0. -1.
         13    1    1    2    0    0  0.12875467104E+02  0.10974929052E+01 -0.42636305512E+02  0.44551631441E+02  0.10570000000E+00 0.  1.
<mgrwt>
<rscale>  0 0.26062991E+02</rscale>
<asrwt>0</asrwt>
<pdfrwt beam="2">  1        2 0.11880751E-01 0.26062991E+02</pdfrwt>
<pdfrwt beam="1">  1       -2 0.33831241E-03 0.26062991E+02</pdfrwt>
<totfact> 0.27407611E+06</totfact>
</mgrwt>
</event>
<event>
 4    1  0.3704929E-001  0.5217203E+02  0.7818608E-02  0.1433966E+00
         -2   -1    0    0    0  501 -0.00000000000E+00  0.00000000000E+00  0.75648977107E+01  0.75648981575E+01  0.26000000000E-02 0. -1.
          2   -1    0    0  501    0  0.00000000000E+00 -0.00000000000E+00 -0.89952325447E+02  0.89952325484E+02  0.26000000000E-02 0.  1.
        -13    1    1    2    0    0  0.12980607287E+02  0.13655876273E+02 -0.74717906190E+01  0.20268644500E+02  0.10570000000E+00 0. -1.
         13    1    1    2    0    0 -0.12980607287E+02 -0.13655876273E+02 -0.74915637117E+02  0.77248579142E+02  0.10570000000E+00 0.  1.
<mgrwt>
<rscale>  0 0.52172029E+02</rscale>
<asrwt>0</asrwt>
<pdfrwt beam="2">  1        2 0.13838819E-01 0.52172029E+02</pdfrwt>
<pdfrwt beam="1">  1       -2 0.11638305E-02 0.52172029E+02</pdfrwt>
<totfact> 0.52308221E+05</totfact>
</mgrwt>
</event>
<event>
 4    1  0.3704929E-001  0.3882711E+02  0.7818608E-02  0.1517024E+00
         -2   -1    0    0    0  501 -0.00000000000E+00  0.00000000000E+00  0.13481143308E+02  0.13481143558E+02  0.26000000000E-02 0.  1.
          2   -1    0    0  501    0  0.00000000000E+00 -0.00000000000E+00 -0.27956537309E+02  0.27956537430E+02  0.26000000000E-02 0. -1.
        -13    1    1    2    0    0 -0.14284960969E+02 -0.96557376753E+01  0.22829521933E+01  0.17392999256E+02  0.10570000000E+00 0.  1.
         13    1    1    2    0    0  0.14284960969E+02  0.96557376753E+01 -0.16758346195E+02  0.24044681732E+02  0.10570000000E+00 0. -1.
<mgrwt>
<rscale>  0 0.38827109E+02</rscale>
<asrwt>0</asrwt>
<pdfrwt beam="2">  1        2 0.43010057E-02 0.38827109E+02</pdfrwt>
<pdfrwt beam="1">  1       -2 0.20740221E-02 0.38827109E+02</pdfrwt>
<totfact> 0.88860297E+05</totfact>
</mgrwt>
</event>
<event>
 4    1  0.3704929E-001  0.5000574E+02  0.7818608E-02  0.1445311E+00
          2   -1    0    0  501    0  0.00000000000E+00  0.00000000000E+00  0.43813376474E+02  0.43813376551E+02  0.26000000000E-02 0.  1.
         -2   -1    0    0    0  501 -0.00000000000E+00 -0.00000000000E+00 -0.14268323587E+02  0.14268323824E+02  0.26000000000E-02 0. -1.
        -13    1    1    2    0    0  0.79649468165E+01 -0.83149262164E+01  0.40550357017E+02  0.42153540806E+02  0.10570000000E+00 0.  1.
         13    1    1    2    0    0 -0.79649468165E+01  0.83149262164E+01 -0.11005304130E+02  0.15928159569E+02  0.10570000000E+00 0. -1.
<mgrwt>
<rscale>  0 0.50005737E+02</rscale>
<asrwt>0</asrwt>
<pdfrwt beam="1">  1        2 0.67405195E-02 0.50005737E+02</pdfrwt>
<pdfrwt beam="2">  1       -2 0.21951267E-02 0.50005737E+02</pdfrwt>
<totfact> 0.50045439E+05</totfact>
</mgrwt>
</event>
<event>
 4    1  0.3704929E-001  0.2681465E+02  0.7818608E-02  0.1636227E+00
          2   -1    0    0  501    0  0.00000000000E+00  0.00000000000E+00  0.13418222782E+02  0.13418223034E+02  0.26000000000E-02 0. -1.
         -2   -1    0    0    0  501 -0.00000000000E+00 -0.00000000000E+00 -0.13396434668E+02  0.13396434920E+02  0.26000000000E-02 0.  1.
        -13    1    1    2    0    0 -0.12829096413E+02 -0.38935072222E+01  0.27786538633E-02  0.13407322383E+02  0.10570000000E+00 0.  1.
         13    1    1    2    0    0  0.12829096413E+02  0.38935072222E+01  0.19009460236E-01  0.13407335571E+02  0.10570000000E+00 0. -1.
<mgrwt>
<rscale>  0 0.26814649E+02</rscale>
<asrwt>0</asrwt>
<pdfrwt beam="1">  1        2 0.20643420E-02 0.26814649E+02</pdfrwt>
<pdfrwt beam="2">  1       -2 0.20609900E-02 0.26814649E+02</pdfrwt>
<totfact> 0.20328195E+06</totfact>
</mgrwt>
</event>
<event>
 4    1  0.3704929E-001  0.2322282E+02  0.7818608E-02  0.1687924E+00
         -2   -1    0    0    0  501 -0.00000000000E+00  0.00000000000E+00  0.14655427931E+01  0.14655450994E+01  0.26000000000E-02 0.  1.
          2   -1    0    0  501    0  0.00000000000E+00 -0.00000000000E+00 -0.91996414751E+02  0.91996414787E+02  0.26000000000E-02 0. -1.
        -13    1    1    2    0    0 -0.89388098846E+01 -0.74075058308E+01 -0.46071907453E+02  0.47512159429E+02  0.10570000000E+00 0. -1.
         13    1    1    2    0    0  0.89388098846E+01  0.74075058308E+01 -0.44458964504E+02  0.45949800458E+02  0.10570000000E+00 0.  1.
<mgrwt>
<rscale>  0 0.23222816E+02</rscale>
<asrwt>0</asrwt>
<pdfrwt beam="2">  1        2 0.14153290E-01 0.23222816E+02</pdfrwt>
<pdfrwt beam="1">  1       -2 0.22546837E-03 0.23222816E+02</pdfrwt>
<totfact> 0.37067204E+06</totfact>
</mgrwt>
</event>
<event>
 4    1  0.3704929E-001  0.8750424E+02  0.7818608E-02  0.1309011E+00
          2   -1    0    0  501    0  0.00000000000E+00  0.00000000000E+00  0.87959632372E+02  0.87959632410E+02  0.26000000000E-02 0. -1.
         -2   -1    0    0    0  501 -0.00000000000E+00 -0.00000000000E+00 -0.21762800635E+02  0.21762800791E+02  0.26000000000E-02 0.  1.
        -13    1    1    2    0    0  0.15368243554E+02  0.19069570304E+01  0.84407965295E+02  0.85816869978E+02  0.10570000000E+00 0. -1.
         13    1    1    2    0    0 -0.15368243554E+02 -0.19069570304E+01 -0.18211133559E+02  0.23905563223E+02  0.10570000000E+00 0.  1.
<mgrwt>
<rscale>  0 0.87504239E+02</rscale>
<asrwt>0</asrwt>
<pdfrwt beam="1">  1        2 0.13532251E-01 0.87504239E+02</pdfrwt>
<pdfrwt beam="2">  1       -2 0.33481232E-02 0.87504239E+02</pdfrwt>
<totfact> 0.13222568E+05</totfact>
</mgrwt>
</event>
<event>
 4    1  0.3704929E-001  0.2941166E+02  0.7818608E-02  0.1604685E+00
          2   -1    0    0  501    0  0.00000000000E+00  0.00000000000E+00  0.72452958500E+02  0.72452958547E+02  0.26000000000E-02 0.  1.
         -2   -1    0    0    0  501 -0.00000000000E+00 -0.00000000000E+00 -0.29848521460E+01  0.29848532784E+01  0.26000000000E-02 0. -1.
        -13    1    1    2    0    0 -0.12248357138E+02  0.77740278127E+01  0.40907132053E+02  0.43403483574E+02  0.10570000000E+00 0. -1.
         13    1    1    2    0    0  0.12248357138E+02 -0.77740278127E+01  0.28560974301E+02  0.32034328251E+02  0.10570000000E+00 0.  1.
<mgrwt>
<rscale>  0 0.29411658E+02</rscale>
<asrwt>0</asrwt>
<pdfrwt beam="1">  1        2 0.11146608E-01 0.29411658E+02</pdfrwt>
<pdfrwt beam="2">  1       -2 0.45920817E-03 0.29411658E+02</pdfrwt>
<totfact> 0.20390890E+06</totfact>
</mgrwt>
</event>
<event>
 4    1  0.3704929E-001  0.3471355E+02  0.7818608E-02  0.1551159E+00
          2   -1    0    0  501    0  0.00000000000E+00  0.00000000000E+00  0.18175122925E+02  0.18175123111E+02  0.26000000000E-02 0.  1.
         -2   -1    0    0    0  501 -0.00000000000E+00 -0.00000000000E+00 -0.16575277680E+02  0.16575277883E+02  0.26000000000E-02 0. -1.
        -13    1    1    2    0    0  0.17987017638E+01 -0.15045766840E+02  0.92727186210E+01  0.17765272611E+02  0.10570000000E+00 0.  1.
         13    1    1    2    0    0 -0.17987017638E+01  0.15045766840E+02 -0.76728733759E+01  0.16985128383E+02  0.10570000000E+00 0. -1.
<mgrwt>
<rscale>  0 0.34713554E+02</rscale>
<asrwt>0</asrwt>
<pdfrwt beam="1">  1        2 0.27961728E-02 0.34713554E+02</pdfrwt>
<pdfrwt beam="2">  1       -2 0.25500428E-02 0.34713554E+02</pdfrwt>
<totfact> 0.11146020E+06</totfact>
</mgrwt>
</event>
<event>
 4    1  0.3704929E-001  0.2101401E+02  0.7818608E-02  0.1725884E+00
          2   -1    0    0  501    0  0.00000000000E+00  0.00000000000E+00  0.13694856431E+01  0.13694881112E+01  0.26000000000E-02 0.  1.
         -2   -1    0    0    0  501 -0.00000000000E+00 -0.00000000000E+00 -0.80612034258E+02  0.80612034300E+02  0.26000000000E-02 0. -1.
        -13    1    1    2    0    0  0.92954579448E+01  0.42573840330E+01 -0.30181227727E+02  0.31866103257E+02  0.10570000000E+00 0.  1.
         13    1    1    2    0    0 -0.92954579448E+01 -0.42573840330E+01 -0.49061320888E+02  0.50115419154E+02  0.10570000000E+00 0. -1.
<mgrwt>
<rscale>  0 0.21014007E+02</rscale>
<asrwt>0</asrwt>
<pdfrwt beam="1">  1        2 0.21069036E-03 0.21014007E+02</pdfrwt>
<pdfrwt beam="2">  1       -2 0.12401848E-01 0.21014007E+02</pdfrwt>
<totfact> 0.28001099E+06</totfact>
</mgrwt>
</event>
<event>
 4    1  0.3704929E-001  0.2181102E+02  0.7818608E-02  0.1711541E+00
          2   -1    0    0  501    0  0.00000000000E+00  0.00000000000E+00  0.53917688909E+01  0.53917695178E+01  0.26000000000E-02 0. -1.
         -2   -1    0    0    0  501 -0.00000000000E+00 -0.00000000000E+00 -0.22057723692E+02  0.22057723846E+02  0.26000000000E-02 0.  1.
        -13    1    1    2    0    0  0.35227481417E+01 -0.97483956972E+01 -0.12596727110E+02  0.16313481526E+02  0.10570000000E+00 0. -1.
         13    1    1    2    0    0 -0.35227481417E+01  0.97483956972E+01 -0.40692276916E+01  0.11136011837E+02  0.10570000000E+00 0.  1.
<mgrwt>
<rscale>  0 0.21811021E+02</rscale>
<asrwt>0</asrwt>
<pdfrwt beam="1">  1        2 0.82950298E-03 0.21811021E+02</pdfrwt>
<pdfrwt beam="2">  1       -2 0.33934960E-02 0.21811021E+02</pdfrwt>
<totfact> 0.30708380E+06</totfact>
</mgrwt>
</event>
<event>
 4    1  0.3704929E-001  0.4597987E+02  0.7818608E-02  0.1468316E+00
          2   -1    0    0  501    0  0.00000000000E+00  0.00000000000E+00  0.31204490946E+02  0.31204491055E+02  0.26000000000E-02 0.  1.
         -2   -1    0    0    0  501 -0.00000000000E+00 -0.00000000000E+00 -0.16937855961E+02  0.16937856160E+02  0.26000000000E-02 0. -1.
        -13    1    1    2    0    0  0.89301061181E+01 -0.10739079929E+02  0.26252783105E+02  0.29737088395E+02  0.10570000000E+00 0.  1.
         13    1    1    2    0    0 -0.89301061181E+01  0.10739079929E+02 -0.11986148119E+02  0.18405258820E+02  0.10570000000E+00 0. -1.
<mgrwt>
<rscale>  0 0.45979873E+02</rscale>
<asrwt>0</asrwt>
<pdfrwt beam="1">  1        2 0.48006909E-02 0.45979873E+02</pdfrwt>
<pdfrwt beam="2">  1       -2 0.26058240E-02 0.45979873E+02</pdfrwt>
<totfact> 0.58721166E+05</totfact>
</mgrwt>
</event>
<event>
 4    1  0.3704929E-001  0.5632891E+02  0.7818608E-02  0.1413917E+00
         -2   -1    0    0    0  501 -0.00000000000E+00  0.00000000000E+00  0.12567969576E+03  0.12567969579E+03  0.26000000000E-02 0. -1.
          2   -1    0    0  501    0  0.00000000000E+00 -0.00000000000E+00 -0.63115715594E+01  0.63115720950E+01  0.26000000000E-02 0.  1.
        -13    1    1    2    0    0 -0.20949408795E+02  0.18735115881E+02  0.55399764794E+02  0.62121070561E+02  0.10570000000E+00 0. -1.
         13    1    1    2    0    0  0.20949408795E+02 -0.18735115881E+02  0.63968359405E+02  0.69870197319E+02  0.10570000000E+00 0.  1.
<mgrwt>
<rscale>  0 0.56328907E+02</rscale>
<asrwt>0</asrwt>
<pdfrwt beam="2">  1        2 0.97101125E-03 0.56328907E+02</pdfrwt>
<pdfrwt beam="1">  1       -2 0.19335334E-01 0.56328907E+02</pdfrwt>
<totfact> 0.24739838E+05</totfact>
</mgrwt>
</event>
<event>
 4    1  0.3704929E-001  0.2724861E+02  0.7818608E-02  0.1630658E+00
         -2   -1    0    0    0  501 -0.00000000000E+00  0.00000000000E+00  0.20180746425E+01  0.20180763174E+01  0.26000000000E-02 0. -1.
          2   -1    0    0  501    0  0.00000000000E+00 -0.00000000000E+00 -0.91979521903E+02  0.91979521940E+02  0.26000000000E-02 0.  1.
        -13    1    1    2    0    0  0.10671514498E+02 -0.80159531233E+01 -0.35550087959E+02  0.37973104331E+02  0.10570000000E+00 0.  1.
         13    1    1    2    0    0 -0.10671514498E+02  0.80159531233E+01 -0.54411359302E+02  0.56024493926E+02  0.10570000000E+00 0. -1.
<mgrwt>
<rscale>  0 0.27248605E+02</rscale>
<asrwt>0</asrwt>
<pdfrwt beam="2">  1        2 0.14150693E-01 0.27248605E+02</pdfrwt>
<pdfrwt beam="1">  1       -2 0.31047322E-03 0.27248605E+02</pdfrwt>
<totfact> 0.25670085E+06</totfact>
</mgrwt>
</event>
<event>
 4    1  0.3704929E-001  0.5627175E+02  0.7818608E-02  0.1414179E+00
         -2   -1    0    0    0  501 -0.00000000000E+00  0.00000000000E+00  0.31660012152E+01  0.31660022828E+01  0.26000000000E-02 0. -1.
          2   -1    0    0  501    0  0.00000000000E+00 -0.00000000000E+00 -0.25004010638E+03  0.25004010639E+03  0.26000000000E-02 0.  1.
        -13    1    1    2    0    0 -0.27499823335E+02  0.38353710525E+01 -0.14389258703E+03  0.14654705091E+03  0.10570000000E+00 0.  1.
         13    1    1    2    0    0  0.27499823335E+02 -0.38353710525E+01 -0.10298151813E+03  0.10665905777E+03  0.10570000000E+00 0. -1.
<mgrwt>
<rscale>  0 0.56271748E+02</rscale>
<asrwt>0</asrwt>
<pdfrwt beam="2">  1        2 0.38467693E-01 0.56271748E+02</pdfrwt>
<pdfrwt beam="1">  1       -2 0.48707739E-03 0.56271748E+02</pdfrwt>
<totfact> 0.58993570E+05</totfact>
</mgrwt>
</event>
<event>
 4    1  0.3704929E-001  0.2089806E+02  0.7818608E-02  0.1728037E+00
          2   -1    0    0  501    0  0.00000000000E+00  0.00000000000E+00  0.19830586851E+01  0.19830603895E+01  0.26000000000E-02 0.  1.
         -2   -1    0    0    0  501 -0.00000000000E+00 -0.00000000000E+00 -0.55057444675E+02  0.55057444736E+02  0.26000000000E-02 0. -1.
        -13    1    1    2    0    0  0.73063155731E+01  0.71161363569E+01 -0.32730959610E+02  0.34283356507E+02  0.10570000000E+00 0.  1.
         13    1    1    2    0    0 -0.73063155731E+01 -0.71161363569E+01 -0.20343426380E+02  0.22757148619E+02  0.10570000000E+00 0. -1.
<mgrwt>
<rscale>  0 0.20898057E+02</rscale>
<asrwt>0</asrwt>
<pdfrwt beam="1">  1        2 0.30508613E-03 0.20898057E+02</pdfrwt>
<pdfrwt beam="2">  1       -2 0.84703751E-02 0.20898057E+02</pdfrwt>
<totfact> 0.30344937E+06</totfact>
</mgrwt>
</event>
<event>
 4    1  0.3704929E-001  0.2194370E+02  0.7818608E-02  0.1709228E+00
          2   -1    0    0  501    0  0.00000000000E+00  0.00000000000E+00  0.39420629560E+02  0.39420629646E+02  0.26000000000E-02 0. -1.
         -2   -1    0    0    0  501 -0.00000000000E+00 -0.00000000000E+00 -0.30537670961E+01  0.30537682030E+01  0.26000000000E-02 0.  1.
        -13    1    1    2    0    0  0.87883461674E+01  0.60569247352E+01  0.23098850525E+02  0.25445813676E+02  0.10570000000E+00 0. -1.
         13    1    1    2    0    0 -0.87883461674E+01 -0.60569247352E+01  0.13268011940E+02  0.17028584173E+02  0.10570000000E+00 0.  1.
<mgrwt>
<rscale>  0 0.21943696E+02</rscale>
<asrwt>0</asrwt>
<pdfrwt beam="1">  1        2 0.60647119E-02 0.21943696E+02</pdfrwt>
<pdfrwt beam="2">  1       -2 0.46981045E-03 0.21943696E+02</pdfrwt>
<totfact> 0.36355440E+06</totfact>
</mgrwt>
</event>
<event>
 4    1  0.3704929E-001  0.2324173E+02  0.7818608E-02  0.1687621E+00
         -2   -1    0    0    0  501 -0.00000000000E+00  0.00000000000E+00  0.74389215885E+01  0.74389220429E+01  0.26000000000E-02 0.  1.
          2   -1    0    0  501    0  0.00000000000E+00 -0.00000000000E+00 -0.18153770957E+02  0.18153771143E+02  0.26000000000E-02 0. -1.
        -13    1    1    2    0    0 -0.10242572932E+02 -0.40736748485E+01 -0.13073095476E+01  0.11100691771E+02  0.10570000000E+00 0.  1.
         13    1    1    2    0    0  0.10242572932E+02  0.40736748485E+01 -0.94075398211E+01  0.14492001415E+02  0.10570000000E+00 0. -1.
<mgrwt>
<rscale>  0 0.23241729E+02</rscale>
<asrwt>0</asrwt>
<pdfrwt beam="2">  1        2 0.27928879E-02 0.23241729E+02</pdfrwt>
<pdfrwt beam="1">  1       -2 0.11444495E-02 0.23241729E+02</pdfrwt>
<totfact> 0.29292742E+06</totfact>
</mgrwt>
</event>
<event>
 4    1  0.3704929E-001  0.3479562E+02  0.7818608E-02  0.1550423E+00
          2   -1    0    0  501    0  0.00000000000E+00  0.00000000000E+00  0.50699273155E+02  0.50699273221E+02  0.26000000000E-02 0. -1.
         -2   -1    0    0    0  501 -0.00000000000E+00 -0.00000000000E+00 -0.59701787312E+01  0.59701792973E+01  0.26000000000E-02 0.  1.
        -13    1    1    2    0    0  0.16755679136E+02 -0.30025828282E+01  0.28215025568E+02  0.32952498043E+02  0.10570000000E+00 0. -1.
         13    1    1    2    0    0 -0.16755679136E+02  0.30025828282E+01  0.16514068855E+02  0.23716954476E+02  0.10570000000E+00 0.  1.
<mgrwt>
<rscale>  0 0.34795617E+02</rscale>
<asrwt>0</asrwt>
<pdfrwt beam="1">  1        2 0.77998884E-02 0.34795617E+02</pdfrwt>
<pdfrwt beam="2">  1       -2 0.91848906E-03 0.34795617E+02</pdfrwt>
<totfact> 0.12749039E+06</totfact>
</mgrwt>
</event>
<event>
 4    1  0.3704929E-001  0.1039230E+03  0.7818608E-02  0.1272256E+00
          2   -1    0    0  501    0  0.00000000000E+00  0.00000000000E+00  0.23185646244E+03  0.23185646245E+03  0.26000000000E-02 0.  1.
         -2   -1    0    0    0  501 -0.00000000000E+00 -0.00000000000E+00 -0.11645124141E+02  0.11645124431E+02  0.26000000000E-02 0. -1.
        -13    1    1    2    0    0 -0.39391230969E+02  0.32290480137E+01  0.31066869605E+02  0.50271834936E+02  0.10570000000E+00 0. -1.
         13    1    1    2    0    0  0.39391230969E+02 -0.32290480137E+01  0.18914446869E+03  0.19322975195E+03  0.10570000000E+00 0.  1.
<mgrwt>
<rscale>  0 0.10392300E+03</rscale>
<asrwt>0</asrwt>
<pdfrwt beam="1">  1        2 0.35670223E-01 0.10392300E+03</pdfrwt>
<pdfrwt beam="2">  1       -2 0.17915577E-02 0.10392300E+03</pdfrwt>
<totfact> 0.11459736E+05</totfact>
</mgrwt>
</event>
<event>
 4    1  0.3704929E-001  0.2729721E+02  0.7818608E-02  0.1630042E+00
         -2   -1    0    0    0  501 -0.00000000000E+00  0.00000000000E+00  0.46550337904E+01  0.46550345165E+01  0.26000000000E-02 0.  1.
          2   -1    0    0  501    0  0.00000000000E+00 -0.00000000000E+00 -0.40017829616E+02  0.40017829701E+02  0.26000000000E-02 0. -1.
        -13    1    1    2    0    0  0.11639439408E+02 -0.62538854284E+01 -0.12087038049E+02  0.17907967332E+02  0.10570000000E+00 0. -1.
         13    1    1    2    0    0 -0.11639439408E+02  0.62538854284E+01 -0.23275757777E+02  0.26764896885E+02  0.10570000000E+00 0.  1.
<mgrwt>
<rscale>  0 0.27297206E+02</rscale>
<asrwt>0</asrwt>
<pdfrwt beam="2">  1        2 0.61565890E-02 0.27297206E+02</pdfrwt>
<pdfrwt beam="1">  1       -2 0.71615913E-03 0.27297206E+02</pdfrwt>
<totfact> 0.21981831E+06</totfact>
</mgrwt>
</event>
<event>
 4    1  0.3704929E-001  0.4942151E+02  0.7818608E-02  0.1448487E+00
          2   -1    0    0  501    0  0.00000000000E+00  0.00000000000E+00  0.90186428359E+01  0.90186432107E+01  0.26000000000E-02 0.  1.
         -2   -1    0    0    0  501 -0.00000000000E+00 -0.00000000000E+00 -0.67706585237E+02  0.67706585287E+02  0.26000000000E-02 0. -1.
        -13    1    1    2    0    0 -0.10765039704E+01 -0.24384147415E+02 -0.23358444501E+02  0.33784221286E+02  0.10570000000E+00 0.  1.
         13    1    1    2    0    0  0.10765039704E+01  0.24384147415E+02 -0.35329497900E+02  0.42941007211E+02  0.10570000000E+00 0. -1.
<mgrwt>
<rscale>  0 0.49421515E+02</rscale>
<asrwt>0</asrwt>
<pdfrwt beam="1">  1        2 0.13874836E-02 0.49421515E+02</pdfrwt>
<pdfrwt beam="2">  1       -2 0.10416397E-01 0.49421515E+02</pdfrwt>
<totfact> 0.39627513E+05</totfact>
</mgrwt>
</event>
<event>
 4    1  0.3704929E-001  0.4412051E+02  0.7818608E-02  0.1479908E+00
          2   -1    0    0  501    0  0.00000000000E+00  0.00000000000E+00  0.58772662761E+02  0.58772662819E+02  0.26000000000E-02 0.  1.
         -2   -1    0    0    0  501 -0.00000000000E+00 -0.00000000000E+00 -0.82802921222E+01  0.82802925304E+01  0.26000000000E-02 0. -1.
        -13    1    1    2    0    0 -0.75100108325E+01 -0.14762505143E+02  0.31017548962E+01  0.16851227752E+02  0.10570000000E+00 0. -1.
         13    1    1    2    0    0  0.75100108325E+01  0.14762505143E+02  0.47390615743E+02  0.50201727598E+02  0.10570000000E+00 0.  1.
<mgrwt>
<rscale>  0 0.44120509E+02</rscale>
<asrwt>0</asrwt>
<pdfrwt beam="1">  1        2 0.90419479E-02 0.44120509E+02</pdfrwt>
<pdfrwt beam="2">  1       -2 0.12738912E-02 0.44120509E+02</pdfrwt>
<totfact> 0.72757651E+05</totfact>
</mgrwt>
</event>
<event>
 4    1  0.3704929E-001  0.2158921E+02  0.7818608E-02  0.1715455E+00
          2   -1    0    0  501    0  0.00000000000E+00  0.00000000000E+00  0.20281120738E+02  0.20281120905E+02  0.26000000000E-02 0. -1.
         -2   -1    0    0    0  501 -0.00000000000E+00 -0.00000000000E+00 -0.57454158985E+01  0.57454164868E+01  0.26000000000E-02 0.  1.
        -13    1    1    2    0    0 -0.31854434903E+00 -0.10781934911E+02  0.77511499208E+01  0.13283188191E+02  0.10570000000E+00 0.  1.
         13    1    1    2    0    0  0.31854434903E+00  0.10781934911E+02  0.67845549190E+01  0.12743349201E+02  0.10570000000E+00 0. -1.
<mgrwt>
<rscale>  0 0.21589209E+02</rscale>
<asrwt>0</asrwt>
<pdfrwt beam="1">  1        2 0.31201725E-02 0.21589209E+02</pdfrwt>
<pdfrwt beam="2">  1       -2 0.88391019E-03 0.21589209E+02</pdfrwt>
<totfact> 0.35073420E+06</totfact>
</mgrwt>
</event>
<event>
 4    1  0.3704929E-001  0.2136617E+02  0.7818608E-02  0.1719450E+00
         -2   -1    0    0    0  501 -0.00000000000E+00  0.00000000000E+00  0.82598965193E+02  0.82598965234E+02  0.26000000000E-02 0.  1.
          2   -1    0    0  501    0  0.00000000000E+00 -0.00000000000E+00 -0.13817152328E+01  0.13817176791E+01  0.26000000000E-02 0. -1.
        -13    1    1    2    0    0  0.49725335399E+01 -0.92112100183E+01  0.48987877305E+02  0.50093869637E+02  0.10570000000E+00 0. -1.
         13    1    1    2    0    0 -0.49725335399E+01  0.92112100183E+01  0.32229372654E+02  0.33886813276E+02  0.10570000000E+00 0.  1.
<mgrwt>
<rscale>  0 0.21366174E+02</rscale>
<asrwt>0</asrwt>
<pdfrwt beam="2">  1        2 0.21257174E-03 0.21366174E+02</pdfrwt>
<pdfrwt beam="1">  1       -2 0.12707535E-01 0.21366174E+02</pdfrwt>
<totfact> 0.26857182E+06</totfact>
</mgrwt>
</event>
<event>
 4    1  0.3704929E-001  0.2548147E+02  0.7818608E-02  0.1654181E+00
          2   -1    0    0  501    0  0.00000000000E+00  0.00000000000E+00  0.52682975384E+01  0.52682981800E+01  0.26000000000E-02 0. -1.
         -2   -1    0    0    0  501 -0.00000000000E+00 -0.00000000000E+00 -0.30811907925E+02  0.30811908035E+02  0.26000000000E-02 0.  1.
        -13    1    1    2    0    0 -0.84181639558E+01  0.54504222530E+01 -0.16458618389E+01  0.10163297733E+02  0.10570000000E+00 0. -1.
         13    1    1    2    0    0  0.84181639558E+01 -0.54504222530E+01 -0.23897748548E+02  0.25916908482E+02  0.10570000000E+00 0.  1.
<mgrwt>
<rscale>  0 0.25481469E+02</rscale>
<asrwt>0</asrwt>
<pdfrwt beam="1">  1        2 0.81050739E-03 0.25481469E+02</pdfrwt>
<pdfrwt beam="2">  1       -2 0.47402935E-02 0.25481469E+02</pdfrwt>
<totfact> 0.21014180E+06</totfact>
</mgrwt>
</event>
<event>
 4    1  0.3704929E-001  0.6092737E+02  0.7818608E-02  0.1393981E+00
         -2   -1    0    0    0  501 -0.00000000000E+00  0.00000000000E+00  0.69984789081E+01  0.69984793910E+01  0.26000000000E-02 0. -1.
          2   -1    0    0  501    0  0.00000000000E+00 -0.00000000000E+00 -0.13260537607E+03  0.13260537610E+03  0.26000000000E-02 0.  1.
        -13    1    1    2    0    0 -0.17534447010E+02  0.20441461737E+02 -0.95426721462E+02  0.99154326842E+02  0.10570000000E+00 0.  1.
         13    1    1    2    0    0  0.17534447010E+02 -0.20441461737E+02 -0.30180175703E+02  0.40449528648E+02  0.10570000000E+00 0. -1.
<mgrwt>
<rscale>  0 0.60927365E+02</rscale>
<asrwt>0</asrwt>
<pdfrwt beam="2">  1        2 0.20400825E-01 0.60927365E+02</pdfrwt>
<pdfrwt beam="1">  1       -2 0.10766892E-02 0.60927365E+02</pdfrwt>
<totfact> 0.39086576E+05</totfact>
</mgrwt>
</event>
<event>
 4    1  0.3704929E-001  0.3051967E+02  0.7818608E-02  0.1592414E+00
          2   -1    0    0  501    0  0.00000000000E+00  0.00000000000E+00  0.30110036412E+01  0.30110047638E+01  0.26000000000E-02 0. -1.
         -2   -1    0    0    0  501 -0.00000000000E+00 -0.00000000000E+00 -0.77337188368E+02  0.77337188412E+02  0.26000000000E-02 0.  1.
        -13    1    1    2    0    0  0.60593990451E+01 -0.13750766590E+02 -0.30172113771E+02  0.33707084130E+02  0.10570000000E+00 0. -1.
         13    1    1    2    0    0 -0.60593990451E+01  0.13750766590E+02 -0.44154070956E+02  0.46641109046E+02  0.10570000000E+00 0.  1.
<mgrwt>
<rscale>  0 0.30519673E+02</rscale>
<asrwt>0</asrwt>
<pdfrwt beam="1">  1        2 0.46323148E-03 0.30519673E+02</pdfrwt>
<pdfrwt beam="2">  1       -2 0.11898028E-01 0.30519673E+02</pdfrwt>
<totfact> 0.12130980E+06</totfact>
</mgrwt>
</event>
<event>
 4    1  0.3704929E-001  0.2779299E+02  0.7818608E-02  0.1623849E+00
          2   -1    0    0  501    0  0.00000000000E+00  0.00000000000E+00  0.36852213397E+01  0.36852222569E+01  0.26000000000E-02 0.  1.
         -2   -1    0    0    0  501 -0.00000000000E+00 -0.00000000000E+00 -0.52401895067E+02  0.52401895131E+02  0.26000000000E-02 0. -1.
        -13    1    1    2    0    0  0.58087639163E+01 -0.11926476963E+02 -0.16008748781E+02  0.20791195276E+02  0.10570000000E+00 0.  1.
         13    1    1    2    0    0 -0.58087639163E+01  0.11926476963E+02 -0.32707924946E+02  0.35295922112E+02  0.10570000000E+00 0. -1.
<mgrwt>
<rscale>  0 0.27792993E+02</rscale>
<asrwt>0</asrwt>
<pdfrwt beam="1">  1        2 0.56695724E-03 0.27792993E+02</pdfrwt>
<pdfrwt beam="2">  1       -2 0.80618296E-02 0.27792993E+02</pdfrwt>
<totfact> 0.16111184E+06</totfact>
</mgrwt>
</event>
<event>
 4    1  0.3704929E-001  0.3936005E+02  0.7818608E-02  0.1512974E+00
          2   -1    0    0  501    0  0.00000000000E+00  0.00000000000E+00  0.39906182858E+01  0.39906191328E+01  0.26000000000E-02 0.  1.
         -2   -1    0    0    0  501 -0.00000000000E+00 -0.00000000000E+00 -0.97053454923E+02  0.97053454957E+02  0.26000000000E-02 0. -1.
        -13    1    1    2    0    0 -0.17004953621E+02 -0.51682558039E+01 -0.24837229721E+02  0.30541422174E+02  0.10570000000E+00 0.  1.
         13    1    1    2    0    0  0.17004953621E+02  0.51682558039E+01 -0.68225606916E+02  0.70502651916E+02  0.10570000000E+00 0. -1.
<mgrwt>
<rscale>  0 0.39360048E+02</rscale>
<asrwt>0</asrwt>
<pdfrwt beam="1">  1        2 0.61394142E-03 0.39360048E+02</pdfrwt>
<pdfrwt beam="2">  1       -2 0.14931299E-01 0.39360048E+02</pdfrwt>
<totfact> 0.63378028E+05</totfact>
</mgrwt>
</event>
<event>
 4    1  0.3704929E-001  0.5636252E+02  0.7818608E-02  0.1413763E+00
          2   -1    0    0  501    0  0.00000000000E+00  0.00000000000E+00  0.18834020980E+02  0.18834021160E+02  0.26000000000E-02 0. -1.
         -2   -1    0    0    0  501 -0.00000000000E+00 -0.00000000000E+00 -0.42167492402E+02  0.42167492482E+02  0.26000000000E-02 0.  1.
        -13    1    1    2    0    0  0.22363737992E+02  0.38847175357E+01  0.64095449116E+01  0.23586463189E+02  0.10570000000E+00 0. -1.
         13    1    1    2    0    0 -0.22363737992E+02 -0.38847175357E+01 -0.29743016333E+02  0.37415050453E+02  0.10570000000E+00 0.  1.
<mgrwt>
<rscale>  0 0.56362521E+02</rscale>
<asrwt>0</asrwt>
<pdfrwt beam="1">  1        2 0.28975417E-02 0.56362521E+02</pdfrwt>
<pdfrwt beam="2">  1       -2 0.64873065E-02 0.56362521E+02</pdfrwt>
<totfact> 0.31524460E+05</totfact>
</mgrwt>
</event>
<event>
 4    1  0.3704929E-001  0.7894519E+02  0.7818608E-02  0.1332072E+00
         -2   -1    0    0    0  501 -0.00000000000E+00  0.00000000000E+00  0.13570685747E+02  0.13570685996E+02  0.26000000000E-02 0.  1.
          2   -1    0    0  501    0  0.00000000000E+00 -0.00000000000E+00 -0.11481258748E+03  0.11481258751E+03  0.26000000000E-02 0. -1.
        -13    1    1    2    0    0 -0.24517792733E+02  0.30925612812E+02 -0.49405401057E+02  0.63233065040E+02  0.10570000000E+00 0. -1.
         13    1    1    2    0    0  0.24517792733E+02 -0.30925612812E+02 -0.51836500678E+02  0.65150208467E+02  0.10570000000E+00 0.  1.
<mgrwt>
<rscale>  0 0.78945185E+02</rscale>
<asrwt>0</asrwt>
<pdfrwt beam="2">  1        2 0.17663474E-01 0.78945185E+02</pdfrwt>
<pdfrwt beam="1">  1       -2 0.20877979E-02 0.78945185E+02</pdfrwt>
<totfact> 0.18919664E+05</totfact>
</mgrwt>
</event>
<event>
 4    1  0.3704929E-001  0.3163476E+02  0.7818608E-02  0.1580691E+00
          2   -1    0    0  501    0  0.00000000000E+00  0.00000000000E+00  0.88114416729E+02  0.88114416767E+02  0.26000000000E-02 0. -1.
         -2   -1    0    0    0  501 -0.00000000000E+00 -0.00000000000E+00 -0.28393699030E+01  0.28393710934E+01  0.26000000000E-02 0.  1.
        -13    1    1    2    0    0 -0.37519115658E+01  0.15187891862E+02  0.49336870188E+02  0.51757963948E+02  0.10570000000E+00 0. -1.
         13    1    1    2    0    0  0.37519115658E+01 -0.15187891862E+02  0.35938176638E+02  0.39195823912E+02  0.10570000000E+00 0.  1.
<mgrwt>
<rscale>  0 0.31634758E+02</rscale>
<asrwt>0</asrwt>
<pdfrwt beam="1">  1        2 0.13556066E-01 0.31634758E+02</pdfrwt>
<pdfrwt beam="2">  1       -2 0.43682618E-03 0.31634758E+02</pdfrwt>
<totfact> 0.17887097E+06</totfact>
</mgrwt>
</event>
<event>
 4    1  0.3704929E-001  0.2261568E+02  0.7818608E-02  0.1697817E+00
          2   -1    0    0  501    0  0.00000000000E+00  0.00000000000E+00  0.30840896001E+02  0.30840896111E+02  0.26000000000E-02 0. -1.
         -2   -1    0    0    0  501 -0.00000000000E+00 -0.00000000000E+00 -0.41460280058E+01  0.41460288211E+01  0.26000000000E-02 0.  1.
        -13    1    1    2    0    0 -0.79461804696E+01  0.61405344983E+01  0.21387197468E+02  0.23627766209E+02  0.10570000000E+00 0.  1.
         13    1    1    2    0    0  0.79461804696E+01 -0.61405344983E+01  0.53076705271E+01  0.11359158723E+02  0.10570000000E+00 0. -1.
<mgrwt>
<rscale>  0 0.22615679E+02</rscale>
<asrwt>0</asrwt>
<pdfrwt beam="1">  1        2 0.47447532E-02 0.22615679E+02</pdfrwt>
<pdfrwt beam="2">  1       -2 0.63785055E-03 0.22615679E+02</pdfrwt>
<totfact> 0.32922773E+06</totfact>
</mgrwt>
</event>
<event>
 4    1  0.3704929E-001  0.3881315E+02  0.7818608E-02  0.1517132E+00
          2   -1    0    0  501    0  0.00000000000E+00  0.00000000000E+00  0.34128105249E+02  0.34128105348E+02  0.26000000000E-02 0. -1.
         -2   -1    0    0    0  501 -0.00000000000E+00 -0.00000000000E+00 -0.11035338731E+02  0.11035339037E+02  0.26000000000E-02 0.  1.
        -13    1    1    2    0    0  0.99889125112E+01  0.15665071672E+02  0.18070002071E+02  0.25917349228E+02  0.10570000000E+00 0. -1.
         13    1    1    2    0    0 -0.99889125112E+01 -0.15665071672E+02  0.50227644464E+01  0.19246095157E+02  0.10570000000E+00 0.  1.
<mgrwt>
<rscale>  0 0.38813153E+02</rscale>
<asrwt>0</asrwt>
<pdfrwt beam="1">  1        2 0.52504777E-02 0.38813153E+02</pdfrwt>
<pdfrwt beam="2">  1       -2 0.16977445E-02 0.38813153E+02</pdfrwt>
<totfact> 0.91480451E+05</totfact>
</mgrwt>
</event>
<event>
 4    1  0.3704929E-001  0.6280803E+02  0.7818608E-02  0.1386412E+00
         -2   -1    0    0    0  501 -0.00000000000E+00  0.00000000000E+00  0.15121667290E+02  0.15121667514E+02  0.26000000000E-02 0. -1.
          2   -1    0    0  501    0  0.00000000000E+00 -0.00000000000E+00 -0.65218476557E+02  0.65218476609E+02  0.26000000000E-02 0.  1.
        -13    1    1    2    0    0 -0.21657788302E+02 -0.47869879283E+01 -0.53485169854E+02  0.57902069171E+02  0.10570000000E+00 0.  1.
         13    1    1    2    0    0  0.21657788302E+02  0.47869879283E+01  0.33883605873E+01  0.22438074951E+02  0.10570000000E+00 0. -1.
<mgrwt>
<rscale>  0 0.62808029E+02</rscale>
<asrwt>0</asrwt>
<pdfrwt beam="2">  1        2 0.10033612E-01 0.62808029E+02</pdfrwt>
<pdfrwt beam="1">  1       -2 0.23264104E-02 0.62808029E+02</pdfrwt>
<totfact> 0.29922527E+05</totfact>
</mgrwt>
</event>
<event>
 4    1  0.3704929E-001  0.3544630E+02  0.7818608E-02  0.1544673E+00
          2   -1    0    0  501    0  0.00000000000E+00  0.00000000000E+00  0.68391415077E+02  0.68391415127E+02  0.26000000000E-02 0.  1.
         -2   -1    0    0    0  501 -0.00000000000E+00 -0.00000000000E+00 -0.45928282664E+01  0.45928290024E+01  0.26000000000E-02 0. -1.
        -13    1    1    2    0    0  0.11180570393E+02 -0.18051087695E+01  0.38305922041E+01  0.11956093890E+02  0.10570000000E+00 0. -1.
         13    1    1    2    0    0 -0.11180570393E+02  0.18051087695E+01  0.59967994607E+02  0.61028150239E+02  0.10570000000E+00 0.  1.
<mgrwt>
<rscale>  0 0.35446300E+02</rscale>
<asrwt>0</asrwt>
<pdfrwt beam="1">  1        2 0.10521756E-01 0.35446300E+02</pdfrwt>
<pdfrwt beam="2">  1       -2 0.70658907E-03 0.35446300E+02</pdfrwt>
<totfact> 0.12885629E+06</totfact>
</mgrwt>
</event>
<event>
 4    1  0.3704929E-001  0.2339030E+02  0.7818608E-02  0.1685260E+00
          2   -1    0    0  501    0  0.00000000000E+00  0.00000000000E+00  0.30740873617E+01  0.30740884612E+01  0.26000000000E-02 0. -1.
         -2   -1    0    0    0  501 -0.00000000000E+00 -0.00000000000E+00 -0.44493380145E+02  0.44493380221E+02  0.26000000000E-02 0.  1.
        -13    1    1    2    0    0  0.96076474368E+01  0.63351658873E+01 -0.24938531900E+02  0.27466029234E+02  0.10570000000E+00 0. -1.
         13    1    1    2    0    0 -0.96076474368E+01 -0.63351658873E+01 -0.16480760884E+02  0.20101439448E+02  0.10570000000E+00 0.  1.
<mgrwt>
<rscale>  0 0.23390303E+02</rscale>
<asrwt>0</asrwt>
<pdfrwt beam="1">  1        2 0.47293664E-03 0.23390303E+02</pdfrwt>
<pdfrwt beam="2">  1       -2 0.68451350E-02 0.23390303E+02</pdfrwt>
<totfact> 0.24364652E+06</totfact>
</mgrwt>
</event>
<event>
 4    1  0.3704929E-001  0.3967591E+02  0.7818608E-02  0.1510610E+00
         -2   -1    0    0    0  501 -0.00000000000E+00  0.00000000000E+00  0.85033669522E+01  0.85033673496E+01  0.26000000000E-02 0.  1.
          2   -1    0    0  501    0  0.00000000000E+00 -0.00000000000E+00 -0.46281010523E+02  0.46281010596E+02  0.26000000000E-02 0. -1.
        -13    1    1    2    0    0 -0.16093824067E+02 -0.73169019807E+01 -0.64627967679E+01  0.18823579422E+02  0.10570000000E+00 0. -1.
         13    1    1    2    0    0  0.16093824067E+02  0.73169019807E+01 -0.31314846803E+02  0.35960798524E+02  0.10570000000E+00 0.  1.
<mgrwt>
<rscale>  0 0.39675908E+02</rscale>
<asrwt>0</asrwt>
<pdfrwt beam="2">  1        2 0.71201554E-02 0.39675908E+02</pdfrwt>
<pdfrwt beam="1">  1       -2 0.13082104E-02 0.39675908E+02</pdfrwt>
<totfact> 0.90850219E+05</totfact>
</mgrwt>
</event>
<event>
 4    1  0.3704929E-001  0.4247259E+02  0.7818608E-02  0.1490766E+00
         -2   -1    0    0    0  501 -0.00000000000E+00  0.00000000000E+00  0.29387474933E+01  0.29387486434E+01  0.26000000000E-02 0.  1.
          2   -1    0    0  501    0  0.00000000000E+00 -0.00000000000E+00 -0.15345998314E+03  0.15345998316E+03  0.26000000000E-02 0. -1.
        -13    1    1    2    0    0  0.18522055396E+02  0.62553150203E+01 -0.10579824049E+03  0.10758937849E+03  0.10570000000E+00 0. -1.
         13    1    1    2    0    0 -0.18522055396E+02 -0.62553150203E+01 -0.44722995158E+02  0.48809353309E+02  0.10570000000E+00 0.  1.
<mgrwt>
<rscale>  0 0.42472590E+02</rscale>
<asrwt>0</asrwt>
<pdfrwt beam="2">  1        2 0.23609222E-01 0.42472590E+02</pdfrwt>
<pdfrwt beam="1">  1       -2 0.45211521E-03 0.42472590E+02</pdfrwt>
<totfact> 0.10149381E+06</totfact>
</mgrwt>
</event>
<event>
 4    1  0.3704929E-001  0.2893178E+02  0.7818608E-02  0.1610206E+00
          2   -1    0    0  501    0  0.00000000000E+00  0.00000000000E+00  0.51102433470E+01  0.51102440084E+01  0.26000000000E-02 0. -1.
         -2   -1    0    0    0  501 -0.00000000000E+00 -0.00000000000E+00 -0.40949505065E+02  0.40949505148E+02  0.26000000000E-02 0.  1.
        -13    1    1    2    0    0 -0.69610477265E+01  0.77775472283E+01 -0.19752988676E+01  0.10623530696E+02  0.10570000000E+00 0. -1.
         13    1    1    2    0    0  0.69610477265E+01 -0.77775472283E+01 -0.33863962851E+02  0.35436218460E+02  0.10570000000E+00 0.  1.
<mgrwt>
<rscale>  0 0.28931779E+02</rscale>
<asrwt>0</asrwt>
<pdfrwt beam="1">  1        2 0.78619137E-03 0.28931779E+02</pdfrwt>
<pdfrwt beam="2">  1       -2 0.62999237E-02 0.28931779E+02</pdfrwt>
<totfact> 0.15217433E+06</totfact>
</mgrwt>
</event>
<event>
 4    1  0.3704929E-001  0.2361405E+02  0.7818608E-02  0.1681746E+00
         -2   -1    0    0    0  501 -0.00000000000E+00  0.00000000000E+00  0.70086614909E+02  0.70086614957E+02  0.26000000000E-02 0.  1.
          2   -1    0    0  501    0  0.00000000000E+00 -0.00000000000E+00 -0.19890501260E+01  0.19890518253E+01  0.26000000000E-02 0. -1.
        -13    1    1    2    0    0  0.20677956326E+01 -0.10128462721E+02  0.51458077696E+02  0.52486250281E+02  0.10570000000E+00 0. -1.
         13    1    1    2    0    0 -0.20677956326E+01  0.10128462721E+02  0.16639487087E+02  0.19589416502E+02  0.10570000000E+00 0.  1.
<mgrwt>
<rscale>  0 0.23614051E+02</rscale>
<asrwt>0</asrwt>
<pdfrwt beam="2">  1        2 0.30600785E-03 0.23614051E+02</pdfrwt>
<pdfrwt beam="1">  1       -2 0.10782556E-01 0.23614051E+02</pdfrwt>
<totfact> 0.22204015E+06</totfact>
</mgrwt>
</event>
<event>
 4    1  0.3704929E-001  0.3069106E+02  0.7818608E-02  0.1590573E+00
          2   -1    0    0  501    0  0.00000000000E+00  0.00000000000E+00  0.33827787484E+02  0.33827787584E+02  0.26000000000E-02 0. -1.
         -2   -1    0    0    0  501 -0.00000000000E+00 -0.00000000000E+00 -0.69612971944E+01  0.69612976799E+01  0.26000000000E-02 0.  1.
        -13    1    1    2    0    0 -0.56228965186E+01 -0.13822007572E+02  0.86766723723E+01  0.17261537433E+02  0.10570000000E+00 0.  1.
         13    1    1    2    0    0  0.56228965186E+01  0.13822007572E+02  0.18189817917E+02  0.23527547831E+02  0.10570000000E+00 0. -1.
<mgrwt>
<rscale>  0 0.30691060E+02</rscale>
<asrwt>0</asrwt>
<pdfrwt beam="1">  1        2 0.52042749E-02 0.30691060E+02</pdfrwt>
<pdfrwt beam="2">  1       -2 0.10709689E-02 0.30691060E+02</pdfrwt>
<totfact> 0.16252378E+06</totfact>
</mgrwt>
</event>
<event>
 4    1  0.3704929E-001  0.3579819E+02  0.7818608E-02  0.1541625E+00
          2   -1    0    0  501    0  0.00000000000E+00  0.00000000000E+00  0.28971156943E+01  0.28971168610E+01  0.26000000000E-02 0. -1.
         -2   -1    0    0    0  501 -0.00000000000E+00 -0.00000000000E+00 -0.11058498888E+03  0.11058498891E+03  0.26000000000E-02 0.  1.
        -13    1    1    2    0    0  0.12531586605E+02 -0.12679579652E+02 -0.48777802007E+02  0.51933587823E+02  0.10570000000E+00 0. -1.
         13    1    1    2    0    0 -0.12531586605E+02  0.12679579652E+02 -0.58910071181E+02  0.61548517952E+02  0.10570000000E+00 0.  1.
<mgrwt>
<rscale>  0 0.35798188E+02</rscale>
<asrwt>0</asrwt>
<pdfrwt beam="1">  1        2 0.44571028E-03 0.35798188E+02</pdfrwt>
<pdfrwt beam="2">  1       -2 0.17013072E-01 0.35798188E+02</pdfrwt>
<totfact> 0.76869687E+05</totfact>
</mgrwt>
</event>
<event>
 4    1  0.3704929E-001  0.4118746E+02  0.7818608E-02  0.1499651E+00
          2   -1    0    0  501    0  0.00000000000E+00  0.00000000000E+00  0.53647466061E+02  0.53647466124E+02  0.26000000000E-02 0. -1.
         -2   -1    0    0    0  501 -0.00000000000E+00 -0.00000000000E+00 -0.79053428392E+01  0.79053432668E+01  0.26000000000E-02 0.  1.
        -13    1    1    2    0    0  0.10690829805E+01  0.14671023428E+02  0.13328251283E+01  0.14770560658E+02  0.10570000000E+00 0.  1.
         13    1    1    2    0    0 -0.10690829805E+01 -0.14671023428E+02  0.44409298093E+02  0.46782248733E+02  0.10570000000E+00 0. -1.
<mgrwt>
<rscale>  0 0.41187456E+02</rscale>
<asrwt>0</asrwt>
<pdfrwt beam="1">  1        2 0.82534563E-02 0.41187456E+02</pdfrwt>
<pdfrwt beam="2">  1       -2 0.12162066E-02 0.41187456E+02</pdfrwt>
<totfact> 0.84956128E+05</totfact>
</mgrwt>
</event>
<event>
 4    1  0.3704929E-001  0.2759638E+02  0.7818608E-02  0.1626286E+00
         -2   -1    0    0    0  501 -0.00000000000E+00  0.00000000000E+00  0.49126377208E+01  0.49126384088E+01  0.26000000000E-02 0. -1.
          2   -1    0    0  501    0  0.00000000000E+00 -0.00000000000E+00 -0.38755144669E+02  0.38755144757E+02  0.26000000000E-02 0.  1.
        -13    1    1    2    0    0 -0.29925541461E+01 -0.13355209662E+02 -0.19690102219E+02  0.23979747774E+02  0.10570000000E+00 0.  1.
         13    1    1    2    0    0  0.29925541461E+01  0.13355209662E+02 -0.14152404730E+02  0.19688035391E+02  0.10570000000E+00 0. -1.
<mgrwt>
<rscale>  0 0.27596377E+02</rscale>
<asrwt>0</asrwt>
<pdfrwt beam="2">  1        2 0.59623298E-02 0.27596377E+02</pdfrwt>
<pdfrwt beam="1">  1       -2 0.75579050E-03 0.27596377E+02</pdfrwt>
<totfact> 0.21328336E+06</totfact>
</mgrwt>
</event>
<event>
 4    1  0.3704929E-001  0.2778678E+02  0.7818608E-02  0.1623926E+00
          2   -1    0    0  501    0  0.00000000000E+00  0.00000000000E+00  0.94694077625E+02  0.94694077660E+02  0.26000000000E-02 0. -1.
         -2   -1    0    0    0  501 -0.00000000000E+00 -0.00000000000E+00 -0.20384185735E+01  0.20384202316E+01  0.26000000000E-02 0.  1.
        -13    1    1    2    0    0  0.30597415414E+00 -0.12807040470E+02  0.65042920223E+02  0.66292582914E+02  0.10570000000E+00 0. -1.
         13    1    1    2    0    0 -0.30597415414E+00  0.12807040470E+02  0.27612738829E+02  0.30439914978E+02  0.10570000000E+00 0.  1.
<mgrwt>
<rscale>  0 0.27786777E+02</rscale>
<asrwt>0</asrwt>
<pdfrwt beam="1">  1        2 0.14568319E-01 0.27786777E+02</pdfrwt>
<pdfrwt beam="2">  1       -2 0.31360300E-03 0.27786777E+02</pdfrwt>
<totfact> 0.24690738E+06</totfact>
</mgrwt>
</event>
<event>
 4    1  0.3704929E-001  0.2119282E+02  0.7818608E-02  0.1722598E+00
          2   -1    0    0  501    0  0.00000000000E+00  0.00000000000E+00  0.18925482707E+01  0.18925500567E+01  0.26000000000E-02 0. -1.
         -2   -1    0    0    0  501 -0.00000000000E+00 -0.00000000000E+00 -0.59329437359E+02  0.59329437416E+02  0.26000000000E-02 0.  1.
        -13    1    1    2    0    0  0.22242516683E+01 -0.98746345624E+01 -0.19667201579E+02  0.22119351113E+02  0.10570000000E+00 0. -1.
         13    1    1    2    0    0 -0.22242516683E+01  0.98746345624E+01 -0.37769687509E+02  0.39102636359E+02  0.10570000000E+00 0.  1.
<mgrwt>
<rscale>  0 0.21192818E+02</rscale>
<asrwt>0</asrwt>
<pdfrwt beam="1">  1        2 0.29116146E-03 0.21192818E+02</pdfrwt>
<pdfrwt beam="2">  1       -2 0.91276045E-02 0.21192818E+02</pdfrwt>
<totfact> 0.29075181E+06</totfact>
</mgrwt>
</event>
<event>
 4    1  0.3704929E-001  0.2075663E+02  0.7818608E-02  0.1730687E+00
          2   -1    0    0  501    0  0.00000000000E+00  0.00000000000E+00  0.22740066786E+01  0.22740081650E+01  0.26000000000E-02 0.  1.
         -2   -1    0    0    0  501 -0.00000000000E+00 -0.00000000000E+00 -0.47365445767E+02  0.47365445838E+02  0.26000000000E-02 0. -1.
        -13    1    1    2    0    0 -0.37756342262E+01  0.96647319045E+01 -0.22997893705E+02  0.25230472527E+02  0.10570000000E+00 0.  1.
         13    1    1    2    0    0  0.37756342262E+01 -0.96647319045E+01 -0.22093545383E+02  0.24408981476E+02  0.10570000000E+00 0. -1.
<mgrwt>
<rscale>  0 0.20756626E+02</rscale>
<asrwt>0</asrwt>
<pdfrwt beam="1">  1        2 0.34984734E-03 0.20756626E+02</pdfrwt>
<pdfrwt beam="2">  1       -2 0.72869911E-02 0.20756626E+02</pdfrwt>
<totfact> 0.31487329E+06</totfact>
</mgrwt>
</event>
<event>
 4    1  0.3704929E-001  0.3181564E+02  0.7818608E-02  0.1578845E+00
         -2   -1    0    0    0  501 -0.00000000000E+00  0.00000000000E+00  0.32958792548E+01  0.32958802803E+01  0.26000000000E-02 0. -1.
          2   -1    0    0  501    0  0.00000000000E+00 -0.00000000000E+00 -0.76780335445E+02  0.76780335489E+02  0.26000000000E-02 0.  1.
        -13    1    1    2    0    0  0.55572706815E+01  0.14821125754E+02 -0.40720620989E+02  0.43689005164E+02  0.10570000000E+00 0. -1.
         13    1    1    2    0    0 -0.55572706815E+01 -0.14821125754E+02 -0.32763835202E+02  0.36387210606E+02  0.10570000000E+00 0.  1.
<mgrwt>
<rscale>  0 0.31815641E+02</rscale>
<asrwt>0</asrwt>
<pdfrwt beam="2">  1        2 0.11812358E-01 0.31815641E+02</pdfrwt>
<pdfrwt beam="1">  1       -2 0.50705848E-03 0.31815641E+02</pdfrwt>
<totfact> 0.17121022E+06</totfact>
</mgrwt>
</event>
<event>
 4    1  0.3704929E-001  0.2657338E+02  0.7818608E-02  0.1639380E+00
          2   -1    0    0  501    0  0.00000000000E+00  0.00000000000E+00  0.68980023265E+01  0.68980028165E+01  0.26000000000E-02 0. -1.
         -2   -1    0    0    0  501 -0.00000000000E+00 -0.00000000000E+00 -0.25592350858E+02  0.25592350990E+02  0.26000000000E-02 0.  1.
        -13    1    1    2    0    0  0.51144130144E+01  0.11698698801E+02 -0.13840891693E+02  0.18830778780E+02  0.10570000000E+00 0.  1.
         13    1    1    2    0    0 -0.51144130144E+01 -0.11698698801E+02 -0.48534568383E+01  0.13659575026E+02  0.10570000000E+00 0. -1.
<mgrwt>
<rscale>  0 0.26573378E+02</rscale>
<asrwt>0</asrwt>
<pdfrwt beam="1">  1        2 0.10612312E-02 0.26573378E+02</pdfrwt>
<pdfrwt beam="2">  1       -2 0.39372847E-02 0.26573378E+02</pdfrwt>
<totfact> 0.19497347E+06</totfact>
</mgrwt>
</event>
<event>
 4    1  0.3704929E-001  0.2607230E+02  0.7818608E-02  0.1646061E+00
          2   -1    0    0  501    0  0.00000000000E+00  0.00000000000E+00  0.14805000226E+02  0.14805000454E+02  0.26000000000E-02 0.  1.
         -2   -1    0    0    0  501 -0.00000000000E+00 -0.00000000000E+00 -0.11478633121E+02  0.11478633415E+02  0.26000000000E-02 0. -1.
        -13    1    1    2    0    0 -0.77198043779E+01 -0.10211678617E+02 -0.81770733741E+00  0.12827843841E+02  0.10570000000E+00 0. -1.
         13    1    1    2    0    0  0.77198043779E+01  0.10211678617E+02  0.41440744423E+01  0.13455790029E+02  0.10570000000E+00 0.  1.
<mgrwt>
<rscale>  0 0.26072297E+02</rscale>
<asrwt>0</asrwt>
<pdfrwt beam="1">  1        2 0.22776924E-02 0.26072297E+02</pdfrwt>
<pdfrwt beam="2">  1       -2 0.17659436E-02 0.26072297E+02</pdfrwt>
<totfact> 0.21940435E+06</totfact>
</mgrwt>
</event>
<event>
 4    1  0.3704929E-001  0.5943219E+02  0.7818608E-02  0.1400230E+00
          2   -1    0    0  501    0  0.00000000000E+00  0.00000000000E+00  0.55928211101E+01  0.55928217145E+01  0.26000000000E-02 0. -1.
         -2   -1    0    0    0  501 -0.00000000000E+00 -0.00000000000E+00 -0.15788923830E+03  0.15788923832E+03  0.26000000000E-02 0.  1.
        -13    1    1    2    0    0 -0.63245152190E+00 -0.28516922918E+02 -0.53229429958E+02  0.60390382295E+02  0.10570000000E+00 0. -1.
         13    1    1    2    0    0  0.63245152190E+00  0.28516922918E+02 -0.99066987233E+02  0.10309167774E+03  0.10570000000E+00 0.  1.
<mgrwt>
<rscale>  0 0.59432190E+02</rscale>
<asrwt>0</asrwt>
<pdfrwt beam="1">  1        2 0.86043419E-03 0.59432190E+02</pdfrwt>
<pdfrwt beam="2">  1       -2 0.24290649E-01 0.59432190E+02</pdfrwt>
<totfact> 0.20116952E+05</totfact>
</mgrwt>
</event>
<event>
 4    1  0.3704929E-001  0.6707837E+02  0.7818608E-02  0.1370320E+00
         -2   -1    0    0    0  501 -0.00000000000E+00  0.00000000000E+00  0.94655932434E+02  0.94655932470E+02  0.26000000000E-02 0. -1.
          2   -1    0    0  501    0  0.00000000000E+00 -0.00000000000E+00 -0.11883851113E+02  0.11883851397E+02  0.26000000000E-02 0.  1.
        -13    1    1    2    0    0  0.32986935480E+02 -0.22286993225E+01  0.50337117374E+02  0.60224094605E+02  0.10570000000E+00 0.  1.
         13    1    1    2    0    0 -0.32986935480E+02  0.22286993225E+01  0.32434963947E+02  0.46315689262E+02  0.10570000000E+00 0. -1.
<mgrwt>
<rscale>  0 0.67078373E+02</rscale>
<asrwt>0</asrwt>
<pdfrwt beam="2">  1        2 0.18282848E-02 0.67078373E+02</pdfrwt>
<pdfrwt beam="1">  1       -2 0.14562452E-01 0.67078373E+02</pdfrwt>
<totfact> 0.17372701E+05</totfact>
</mgrwt>
</event>
<event>
 4    1  0.3704929E-001  0.2478027E+02  0.7818608E-02  0.1664178E+00
          2   -1    0    0  501    0  0.00000000000E+00  0.00000000000E+00  0.47532736983E+01  0.47532744094E+01  0.26000000000E-02 0. -1.
         -2   -1    0    0    0  501 -0.00000000000E+00 -0.00000000000E+00 -0.32296778748E+02  0.32296778852E+02  0.26000000000E-02 0.  1.
        -13    1    1    2    0    0  0.93261284468E+01  0.49893456848E+01 -0.23419080132E+02  0.25696978984E+02  0.10570000000E+00 0.  1.
         13    1    1    2    0    0 -0.93261284468E+01 -0.49893456848E+01 -0.41244249170E+01  0.11353074278E+02  0.10570000000E+00 0. -1.
<mgrwt>
<rscale>  0 0.24780270E+02</rscale>
<asrwt>0</asrwt>
<pdfrwt beam="1">  1        2 0.73127296E-03 0.24780270E+02</pdfrwt>
<pdfrwt beam="2">  1       -2 0.49687351E-02 0.24780270E+02</pdfrwt>
<totfact> 0.22260184E+06</totfact>
</mgrwt>
</event>
<event>
 4    1  0.3704929E-001  0.2879276E+02  0.7818608E-02  0.1611830E+00
          2   -1    0    0  501    0  0.00000000000E+00  0.00000000000E+00  0.10259123185E+02  0.10259123515E+02  0.26000000000E-02 0. -1.
         -2   -1    0    0    0  501 -0.00000000000E+00 -0.00000000000E+00 -0.20202094048E+02  0.20202094215E+02  0.26000000000E-02 0.  1.
        -13    1    1    2    0    0 -0.24847200427E+01 -0.12300020542E+02  0.24928741688E+01  0.12794136670E+02  0.10570000000E+00 0. -1.
         13    1    1    2    0    0  0.24847200427E+01  0.12300020542E+02 -0.12435845031E+02  0.17667081059E+02  0.10570000000E+00 0.  1.
<mgrwt>
<rscale>  0 0.28792762E+02</rscale>
<asrwt>0</asrwt>
<pdfrwt beam="1">  1        2 0.15783267E-02 0.28792762E+02</pdfrwt>
<pdfrwt beam="2">  1       -2 0.31080145E-02 0.28792762E+02</pdfrwt>
<totfact> 0.16663777E+06</totfact>
</mgrwt>
</event>
<event>
 4    1  0.3704929E-001  0.3878812E+02  0.7818608E-02  0.1517324E+00
          2   -1    0    0  501    0  0.00000000000E+00  0.00000000000E+00  0.12884272346E+02  0.12884272608E+02  0.26000000000E-02 0. -1.
         -2   -1    0    0    0  501 -0.00000000000E+00 -0.00000000000E+00 -0.29192915888E+02  0.29192916004E+02  0.26000000000E-02 0.  1.
        -13    1    1    2    0    0 -0.38276542970E+01  0.15331978712E+02 -0.20350332440E+02  0.25765630431E+02  0.10570000000E+00 0.  1.
         13    1    1    2    0    0  0.38276542970E+01 -0.15331978712E+02  0.40416888972E+01  0.16311558180E+02  0.10570000000E+00 0. -1.
<mgrwt>
<rscale>  0 0.38788116E+02</rscale>
<asrwt>0</asrwt>
<pdfrwt beam="1">  1        2 0.19821958E-02 0.38788116E+02</pdfrwt>
<pdfrwt beam="2">  1       -2 0.44912179E-02 0.38788116E+02</pdfrwt>
<totfact> 0.80607617E+05</totfact>
</mgrwt>
</event>
<event>
 4    1  0.3704929E-001  0.3182695E+02  0.7818608E-02  0.1578730E+00
         -2   -1    0    0    0  501 -0.00000000000E+00  0.00000000000E+00  0.23347731917E+01  0.23347746394E+01  0.26000000000E-02 0. -1.
          2   -1    0    0  501    0  0.00000000000E+00 -0.00000000000E+00 -0.10846393345E+03  0.10846393348E+03  0.26000000000E-02 0.  1.
        -13    1    1    2    0    0 -0.94957153404E+01  0.11021061551E+02 -0.75516895925E+02  0.76905429914E+02  0.10570000000E+00 0.  1.
         13    1    1    2    0    0  0.94957153404E+01 -0.11021061551E+02 -0.30612264334E+02  0.33893278207E+02  0.10570000000E+00 0. -1.
<mgrwt>
<rscale>  0 0.31826955E+02</rscale>
<asrwt>0</asrwt>
<pdfrwt beam="2">  1        2 0.16686755E-01 0.31826955E+02</pdfrwt>
<pdfrwt beam="1">  1       -2 0.35919607E-03 0.31826955E+02</pdfrwt>
<totfact> 0.18531208E+06</totfact>
</mgrwt>
</event>
<event>
 4    1  0.3704929E-001  0.3150562E+02  0.7818608E-02  0.1582018E+00
         -2   -1    0    0    0  501 -0.00000000000E+00  0.00000000000E+00  0.27402832013E+01  0.27402844347E+01  0.26000000000E-02 0. -1.
          2   -1    0    0  501    0  0.00000000000E+00 -0.00000000000E+00 -0.90556692663E+02  0.90556692701E+02  0.26000000000E-02 0.  1.
        -13    1    1    2    0    0  0.13579581188E+02  0.30945490586E+01 -0.65701017352E+02  0.67161120543E+02  0.10570000000E+00 0.  1.
         13    1    1    2    0    0 -0.13579581188E+02 -0.30945490586E+01 -0.22115392111E+02  0.26135856592E+02  0.10570000000E+00 0. -1.
<mgrwt>
<rscale>  0 0.31505621E+02</rscale>
<asrwt>0</asrwt>
<pdfrwt beam="2">  1        2 0.13931797E-01 0.31505621E+02</pdfrwt>
<pdfrwt beam="1">  1       -2 0.42158220E-03 0.31505621E+02</pdfrwt>
<totfact> 0.18175569E+06</totfact>
</mgrwt>
</event>
<event>
 4    1  0.3704929E-001  0.2696354E+02  0.7818608E-02  0.1634302E+00
         -2   -1    0    0    0  501 -0.00000000000E+00  0.00000000000E+00  0.15379114623E+02  0.15379114843E+02  0.26000000000E-02 0.  1.
          2   -1    0    0  501    0  0.00000000000E+00 -0.00000000000E+00 -0.11818504352E+02  0.11818504638E+02  0.26000000000E-02 0. -1.
        -13    1    1    2    0    0 -0.79610018419E+01 -0.86818055998E+01 -0.48337272432E+01  0.12732925444E+02  0.10570000000E+00 0. -1.
         13    1    1    2    0    0  0.79610018419E+01  0.86818055998E+01  0.83943375147E+01  0.14464694038E+02  0.10570000000E+00 0.  1.
<mgrwt>
<rscale>  0 0.26963541E+02</rscale>
<asrwt>0</asrwt>
<pdfrwt beam="2">  1        2 0.18182315E-02 0.26963541E+02</pdfrwt>
<pdfrwt beam="1">  1       -2 0.23660177E-02 0.26963541E+02</pdfrwt>
<totfact> 0.19822393E+06</totfact>
</mgrwt>
</event>
<event>
 4    1  0.3704929E-001  0.2947254E+02  0.7818608E-02  0.1603993E+00
          2   -1    0    0  501    0  0.00000000000E+00  0.00000000000E+00  0.15820776063E+02  0.15820776277E+02  0.26000000000E-02 0. -1.
         -2   -1    0    0    0  501 -0.00000000000E+00 -0.00000000000E+00 -0.13726107241E+02  0.13726107488E+02  0.26000000000E-02 0.  1.
        -13    1    1    2    0    0 -0.10396661245E+02  0.10442870924E+02  0.99837455903E+00  0.14769970969E+02  0.10570000000E+00 0. -1.
         13    1    1    2    0    0  0.10396661245E+02 -0.10442870924E+02  0.10962942629E+01  0.14776912796E+02  0.10570000000E+00 0.  1.
<mgrwt>
<rscale>  0 0.29472542E+02</rscale>
<asrwt>0</asrwt>
<pdfrwt beam="1">  1        2 0.24339656E-02 0.29472542E+02</pdfrwt>
<pdfrwt beam="2">  1       -2 0.21117088E-02 0.29472542E+02</pdfrwt>
<totfact> 0.16438712E+06</totfact>
</mgrwt>
</event>
<event>
 4    1  0.3704929E-001  0.3433346E+02  0.7818608E-02  0.1554600E+00
          2   -1    0    0  501    0  0.00000000000E+00  0.00000000000E+00  0.95804737272E+02  0.95804737307E+02  0.26000000000E-02 0. -1.
         -2   -1    0    0    0  501 -0.00000000000E+00 -0.00000000000E+00 -0.30760131936E+01  0.30760142924E+01  0.26000000000E-02 0.  1.
        -13    1    1    2    0    0 -0.15443582634E+02 -0.46073712541E+01  0.29337332975E+02  0.33472711169E+02  0.10570000000E+00 0.  1.
         13    1    1    2    0    0  0.15443582634E+02  0.46073712541E+01  0.63391391103E+02  0.65408040430E+02  0.10570000000E+00 0. -1.
<mgrwt>
<rscale>  0 0.34333464E+02</rscale>
<asrwt>0</asrwt>
<pdfrwt beam="1">  1        2 0.14739191E-01 0.34333464E+02</pdfrwt>
<pdfrwt beam="2">  1       -2 0.47323286E-03 0.34333464E+02</pdfrwt>
<totfact> 0.14993318E+06</totfact>
</mgrwt>
</event>
<event>
 4    1  0.3704929E-001  0.2841384E+02  0.7818608E-02  0.1616314E+00
          2   -1    0    0  501    0  0.00000000000E+00  0.00000000000E+00  0.49156277405E+01  0.49156284281E+01  0.26000000000E-02 0.  1.
         -2   -1    0    0    0  501 -0.00000000000E+00 -0.00000000000E+00 -0.41060165945E+02  0.41060166027E+02  0.26000000000E-02 0. -1.
        -13    1    1    2    0    0 -0.11890234649E+02  0.24823680531E+01 -0.29994055184E+02  0.32360382415E+02  0.10570000000E+00 0. -1.
         13    1    1    2    0    0  0.11890234649E+02 -0.24823680531E+01 -0.61504830204E+01  0.13615412041E+02  0.10570000000E+00 0.  1.
<mgrwt>
<rscale>  0 0.28413835E+02</rscale>
<asrwt>0</asrwt>
<pdfrwt beam="1">  1        2 0.75625051E-03 0.28413835E+02</pdfrwt>
<pdfrwt beam="2">  1       -2 0.63169484E-02 0.28413835E+02</pdfrwt>
<totfact> 0.15854073E+06</totfact>
</mgrwt>
</event>
<event>
 4    1  0.3704929E-001  0.2766356E+02  0.7818608E-02  0.1625450E+00
          2   -1    0    0  501    0  0.00000000000E+00  0.00000000000E+00  0.68751579124E+01  0.68751584040E+01  0.26000000000E-02 0.  1.
         -2   -1    0    0    0  501 -0.00000000000E+00 -0.00000000000E+00 -0.27827446061E+02  0.27827446182E+02  0.26000000000E-02 0. -1.
        -13    1    1    2    0    0 -0.11145550065E+02  0.72531854090E+01 -0.57034628759E+01  0.14469714790E+02  0.10570000000E+00 0.  1.
         13    1    1    2    0    0  0.11145550065E+02 -0.72531854090E+01 -0.15248825273E+02  0.20232889797E+02  0.10570000000E+00 0. -1.
<mgrwt>
<rscale>  0 0.27663557E+02</rscale>
<asrwt>0</asrwt>
<pdfrwt beam="1">  1        2 0.10577167E-02 0.27663557E+02</pdfrwt>
<pdfrwt beam="2">  1       -2 0.42811456E-02 0.27663557E+02</pdfrwt>
<totfact> 0.17646778E+06</totfact>
</mgrwt>
</event>
<event>
 4    1  0.3704929E-001  0.5592902E+02  0.7818608E-02  0.1415756E+00
          2   -1    0    0  501    0  0.00000000000E+00  0.00000000000E+00  0.61745348826E+01  0.61745354301E+01  0.26000000000E-02 0. -1.
         -2   -1    0    0    0  501 -0.00000000000E+00 -0.00000000000E+00 -0.12665145752E+03  0.12665145754E+03  0.26000000000E-02 0.  1.
        -13    1    1    2    0    0  0.10543993008E+02 -0.24292352583E+02 -0.38902827394E+02  0.47060974643E+02  0.10570000000E+00 0. -1.
         13    1    1    2    0    0 -0.10543993008E+02  0.24292352583E+02 -0.81574095240E+02  0.85765018330E+02  0.10570000000E+00 0.  1.
<mgrwt>
<rscale>  0 0.55929022E+02</rscale>
<asrwt>0</asrwt>
<pdfrwt beam="1">  1        2 0.94992858E-03 0.55929022E+02</pdfrwt>
<pdfrwt beam="2">  1       -2 0.19484838E-01 0.55929022E+02</pdfrwt>
<totfact> 0.25120861E+05</totfact>
</mgrwt>
</event>
<event>
 4    1  0.3704929E-001  0.2429944E+02  0.7818608E-02  0.1671273E+00
          2   -1    0    0  501    0  0.00000000000E+00  0.00000000000E+00  0.54360442201E+02  0.54360442263E+02  0.26000000000E-02 0. -1.
         -2   -1    0    0    0  501 -0.00000000000E+00 -0.00000000000E+00 -0.27154978308E+01  0.27154990755E+01  0.26000000000E-02 0.  1.
        -13    1    1    2    0    0 -0.11086036648E+02 -0.44486281278E+01  0.31029328299E+02  0.33249374249E+02  0.10570000000E+00 0. -1.
         13    1    1    2    0    0  0.11086036648E+02  0.44486281278E+01  0.20615616071E+02  0.23826567090E+02  0.10570000000E+00 0.  1.
<mgrwt>
<rscale>  0 0.24299440E+02</rscale>
<asrwt>0</asrwt>
<pdfrwt beam="1">  1        2 0.83631445E-02 0.24299440E+02</pdfrwt>
<pdfrwt beam="2">  1       -2 0.41776902E-03 0.24299440E+02</pdfrwt>
<totfact> 0.30200205E+06</totfact>
</mgrwt>
</event>
<event>
 4    1  0.3704929E-001  0.8547368E+02  0.7818608E-02  0.1314198E+00
         -2   -1    0    0    0  501 -0.00000000000E+00  0.00000000000E+00  0.19408298569E+02  0.19408298743E+02  0.26000000000E-02 0.  1.
          2   -1    0    0  501    0  0.00000000000E+00 -0.00000000000E+00 -0.94106017420E+02  0.94106017456E+02  0.26000000000E-02 0. -1.
        -13    1    1    2    0    0 -0.17161397368E+02 -0.73597857769E+01  0.13703777980E+02  0.23162139575E+02  0.10570000000E+00 0.  1.
         13    1    1    2    0    0  0.17161397368E+02  0.73597857769E+01 -0.88401496831E+02  0.90352176624E+02  0.10570000000E+00 0. -1.
<mgrwt>
<rscale>  0 0.85473685E+02</rscale>
<asrwt>0</asrwt>
<pdfrwt beam="2">  1        2 0.14477849E-01 0.85473685E+02</pdfrwt>
<pdfrwt beam="1">  1       -2 0.29858922E-02 0.85473685E+02</pdfrwt>
<totfact> 0.14380779E+05</totfact>
</mgrwt>
</event>
<event>
 4    1  0.3704929E-001  0.2232123E+02  0.7818608E-02  0.1702755E+00
         -2   -1    0    0    0  501 -0.00000000000E+00  0.00000000000E+00  0.11532535561E+02  0.11532535854E+02  0.26000000000E-02 0. -1.
          2   -1    0    0  501    0  0.00000000000E+00 -0.00000000000E+00 -0.10800687444E+02  0.10800687757E+02  0.26000000000E-02 0.  1.
        -13    1    1    2    0    0 -0.34508973290E+01  0.10604632346E+02 -0.60012049897E-01  0.11152654101E+02  0.10570000000E+00 0.  1.
         13    1    1    2    0    0  0.34508973290E+01 -0.10604632346E+02  0.79186016692E+00  0.11180569511E+02  0.10570000000E+00 0. -1.
<mgrwt>
<rscale>  0 0.22321229E+02</rscale>
<asrwt>0</asrwt>
<pdfrwt beam="2">  1        2 0.16616443E-02 0.22321229E+02</pdfrwt>
<pdfrwt beam="1">  1       -2 0.17742363E-02 0.22321229E+02</pdfrwt>
<totfact> 0.30800938E+06</totfact>
</mgrwt>
</event>
<event>
 4    1  0.3704929E-001  0.2157451E+02  0.7818608E-02  0.1715716E+00
          2   -1    0    0  501    0  0.00000000000E+00  0.00000000000E+00  0.26058464736E+02  0.26058464865E+02  0.26000000000E-02 0. -1.
         -2   -1    0    0    0  501 -0.00000000000E+00 -0.00000000000E+00 -0.44655302450E+01  0.44655310019E+01  0.26000000000E-02 0.  1.
        -13    1    1    2    0    0  0.72413747897E+01  0.74193047286E+01  0.65827539194E+01  0.12281181261E+02  0.10570000000E+00 0.  1.
         13    1    1    2    0    0 -0.72413747897E+01 -0.74193047286E+01  0.15010180571E+02  0.18242814607E+02  0.10570000000E+00 0. -1.
<mgrwt>
<rscale>  0 0.21574511E+02</rscale>
<asrwt>0</asrwt>
<pdfrwt beam="1">  1        2 0.40089946E-02 0.21574511E+02</pdfrwt>
<pdfrwt beam="2">  1       -2 0.68700473E-03 0.21574511E+02</pdfrwt>
<totfact> 0.35996685E+06</totfact>
</mgrwt>
</event>
<event>
 4    1  0.3704929E-001  0.5122805E+02  0.7818608E-02  0.1438828E+00
         -2   -1    0    0    0  501 -0.00000000000E+00  0.00000000000E+00  0.50326108076E+01  0.50326114792E+01  0.26000000000E-02 0.  1.
          2   -1    0    0  501    0  0.00000000000E+00 -0.00000000000E+00 -0.13036536527E+03  0.13036536529E+03  0.26000000000E-02 0. -1.
        -13    1    1    2    0    0 -0.18231736567E+02  0.70549713630E+01 -0.10640840906E+03  0.10818932262E+03  0.10570000000E+00 0. -1.
         13    1    1    2    0    0  0.18231736567E+02 -0.70549713630E+01 -0.18924345402E+02  0.27208654148E+02  0.10570000000E+00 0.  1.
<mgrwt>
<rscale>  0 0.51228047E+02</rscale>
<asrwt>0</asrwt>
<pdfrwt beam="2">  1        2 0.20056207E-01 0.51228047E+02</pdfrwt>
<pdfrwt beam="1">  1       -2 0.77424797E-03 0.51228047E+02</pdfrwt>
<totfact> 0.60582858E+05</totfact>
</mgrwt>
</event>
<event>
 4    1  0.3704929E-001  0.4248613E+02  0.7818608E-02  0.1490674E+00
         -2   -1    0    0    0  501 -0.00000000000E+00  0.00000000000E+00  0.21110196000E+02  0.21110196160E+02  0.26000000000E-02 0. -1.
          2   -1    0    0  501    0  0.00000000000E+00 -0.00000000000E+00 -0.21376770961E+02  0.21376771119E+02  0.26000000000E-02 0.  1.
        -13    1    1    2    0    0  0.46656922720E+01 -0.10246123092E+02 -0.18147662614E+02  0.21356510802E+02  0.10570000000E+00 0.  1.
         13    1    1    2    0    0 -0.46656922720E+01  0.10246123092E+02  0.17881087653E+02  0.21130456477E+02  0.10570000000E+00 0. -1.
<mgrwt>
<rscale>  0 0.42486131E+02</rscale>
<asrwt>0</asrwt>
<pdfrwt beam="2">  1        2 0.32887340E-02 0.42486131E+02</pdfrwt>
<pdfrwt beam="1">  1       -2 0.32477225E-02 0.42486131E+02</pdfrwt>
<totfact> 0.68143059E+05</totfact>
</mgrwt>
</event>
<event>
 4    1  0.3704929E-001  0.5314195E+02  0.7818608E-02  0.1429096E+00
          2   -1    0    0  501    0  0.00000000000E+00  0.00000000000E+00  0.65969129502E+01  0.65969134626E+01  0.26000000000E-02 0. -1.
         -2   -1    0    0    0  501 -0.00000000000E+00 -0.00000000000E+00 -0.10702229911E+03  0.10702229914E+03  0.26000000000E-02 0.  1.
        -13    1    1    2    0    0 -0.16311193959E+02 -0.12970684563E+02 -0.14970038024E+02  0.25659441095E+02  0.10570000000E+00 0. -1.
         13    1    1    2    0    0  0.16311193959E+02  0.12970684563E+02 -0.85455348136E+02  0.87959771510E+02  0.10570000000E+00 0.  1.
<mgrwt>
<rscale>  0 0.53141954E+02</rscale>
<asrwt>0</asrwt>
<pdfrwt beam="1">  1        2 0.10149098E-02 0.53141954E+02</pdfrwt>
<pdfrwt beam="2">  1       -2 0.16464968E-01 0.53141954E+02</pdfrwt>
<totfact> 0.29878784E+05</totfact>
</mgrwt>
</event>
<event>
 4    1  0.3704929E-001  0.7137097E+02  0.7818608E-02  0.1355492E+00
         -2   -1    0    0    0  501 -0.00000000000E+00  0.00000000000E+00  0.11286412479E+02  0.11286412779E+02  0.26000000000E-02 0. -1.
          2   -1    0    0  501    0  0.00000000000E+00 -0.00000000000E+00 -0.11283069531E+03  0.11283069534E+03  0.26000000000E-02 0.  1.
        -13    1    1    2    0    0 -0.28947843097E+02  0.57229480159E+01 -0.15873557276E+02  0.33506876116E+02  0.10570000000E+00 0. -1.
         13    1    1    2    0    0  0.28947843097E+02 -0.57229480159E+01 -0.85670725554E+02  0.90610232002E+02  0.10570000000E+00 0.  1.
<mgrwt>
<rscale>  0 0.71370969E+02</rscale>
<asrwt>0</asrwt>
<pdfrwt beam="2">  1        2 0.17358568E-01 0.71370969E+02</pdfrwt>
<pdfrwt beam="1">  1       -2 0.17363712E-02 0.71370969E+02</pdfrwt>
<totfact> 0.24627135E+05</totfact>
</mgrwt>
</event>
<event>
 4    1  0.3704929E-001  0.7148865E+02  0.7818608E-02  0.1355103E+00
          2   -1    0    0  501    0  0.00000000000E+00  0.00000000000E+00  0.57441795708E+02  0.57441795766E+02  0.26000000000E-02 0. -1.
         -2   -1    0    0    0  501 -0.00000000000E+00 -0.00000000000E+00 -0.22242632747E+02  0.22242632899E+02  0.26000000000E-02 0.  1.
        -13    1    1    2    0    0  0.19005528495E+02 -0.25967946584E+02  0.34943006713E+02  0.47503360447E+02  0.10570000000E+00 0. -1.
         13    1    1    2    0    0 -0.19005528495E+02  0.25967946584E+02  0.25615624749E+00  0.32181068218E+02  0.10570000000E+00 0.  1.
<mgrwt>
<rscale>  0 0.71488650E+02</rscale>
<asrwt>0</asrwt>
<pdfrwt beam="1">  1        2 0.88371991E-02 0.71488650E+02</pdfrwt>
<pdfrwt beam="2">  1       -2 0.34219436E-02 0.71488650E+02</pdfrwt>
<totfact> 0.20549313E+05</totfact>
</mgrwt>
</event>
<event>
 4    1  0.3704929E-001  0.2326907E+02  0.7818608E-02  0.1687185E+00
          2   -1    0    0  501    0  0.00000000000E+00  0.00000000000E+00  0.67714324264E+01  0.67714329255E+01  0.26000000000E-02 0. -1.
         -2   -1    0    0    0  501 -0.00000000000E+00 -0.00000000000E+00 -0.19990217998E+02  0.19990218167E+02  0.26000000000E-02 0.  1.
        -13    1    1    2    0    0  0.41998856951E+01 -0.10469169888E+02 -0.33344088664E+01  0.11763163391E+02  0.10570000000E+00 0.  1.
         13    1    1    2    0    0 -0.41998856951E+01  0.10469169888E+02 -0.98843767054E+01  0.14998487702E+02  0.10570000000E+00 0. -1.
<mgrwt>
<rscale>  0 0.23269071E+02</rscale>
<asrwt>0</asrwt>
<pdfrwt beam="1">  1        2 0.10417589E-02 0.23269071E+02</pdfrwt>
<pdfrwt beam="2">  1       -2 0.30754182E-02 0.23269071E+02</pdfrwt>
<totfact> 0.26858318E+06</totfact>
</mgrwt>
</event>
<event>
 4    1  0.3704929E-001  0.2525935E+02  0.7818608E-02  0.1657304E+00
          2   -1    0    0  501    0  0.00000000000E+00  0.00000000000E+00  0.57115134220E+02  0.57115134279E+02  0.26000000000E-02 0.  1.
         -2   -1    0    0    0  501 -0.00000000000E+00 -0.00000000000E+00 -0.27927571823E+01  0.27927583926E+01  0.26000000000E-02 0. -1.
        -13    1    1    2    0    0 -0.18052500761E+01 -0.10829359461E+02  0.12356767926E+02  0.16529816703E+02  0.10570000000E+00 0. -1.
         13    1    1    2    0    0  0.18052500761E+01  0.10829359461E+02  0.41965609111E+02  0.43378075969E+02  0.10570000000E+00 0.  1.
<mgrwt>
<rscale>  0 0.25259354E+02</rscale>
<asrwt>0</asrwt>
<pdfrwt beam="1">  1        2 0.87869432E-02 0.25259354E+02</pdfrwt>
<pdfrwt beam="2">  1       -2 0.42965508E-03 0.25259354E+02</pdfrwt>
<totfact> 0.27845718E+06</totfact>
</mgrwt>
</event>
<event>
 4    1  0.3704929E-001  0.4271178E+02  0.7818608E-02  0.1489154E+00
          2   -1    0    0  501    0  0.00000000000E+00  0.00000000000E+00  0.21153987983E+02  0.21153988142E+02  0.26000000000E-02 0. -1.
         -2   -1    0    0    0  501 -0.00000000000E+00 -0.00000000000E+00 -0.21559722695E+02  0.21559722852E+02  0.26000000000E-02 0.  1.
        -13    1    1    2    0    0 -0.92997763720E+01  0.15401763945E+02  0.11302553975E+02  0.21247566262E+02  0.10570000000E+00 0. -1.
         13    1    1    2    0    0  0.92997763720E+01 -0.15401763945E+02 -0.11708288688E+02  0.21466144733E+02  0.10570000000E+00 0.  1.
<mgrwt>
<rscale>  0 0.42711784E+02</rscale>
<asrwt>0</asrwt>
<pdfrwt beam="1">  1        2 0.32544597E-02 0.42711784E+02</pdfrwt>
<pdfrwt beam="2">  1       -2 0.33168804E-02 0.42711784E+02</pdfrwt>
<totfact> 0.67123003E+05</totfact>
</mgrwt>
</event>
<event>
 4    1  0.3704929E-001  0.6736405E+02  0.7818608E-02  0.1369293E+00
         -2   -1    0    0    0  501 -0.00000000000E+00  0.00000000000E+00  0.76358298065E+02  0.76358298110E+02  0.26000000000E-02 0.  1.
          2   -1    0    0  501    0  0.00000000000E+00 -0.00000000000E+00 -0.14857309420E+02  0.14857309647E+02  0.26000000000E-02 0. -1.
        -13    1    1    2    0    0 -0.12831688645E+02  0.73537028006E+01 -0.10225235366E+02  0.17980427947E+02  0.10570000000E+00 0. -1.
         13    1    1    2    0    0  0.12831688645E+02 -0.73537028006E+01  0.71726224012E+02  0.73235179810E+02  0.10570000000E+00 0.  1.
<mgrwt>
<rscale>  0 0.67364052E+02</rscale>
<asrwt>0</asrwt>
<pdfrwt beam="2">  1        2 0.22857400E-02 0.67364052E+02</pdfrwt>
<pdfrwt beam="1">  1       -2 0.11747430E-01 0.67364052E+02</pdfrwt>
<totfact> 0.18129480E+05</totfact>
</mgrwt>
</event>
<event>
 4    1  0.3704929E-001  0.2244047E+02  0.7818608E-02  0.1700744E+00
         -2   -1    0    0    0  501 -0.00000000000E+00  0.00000000000E+00  0.26233198511E+01  0.26233211395E+01  0.26000000000E-02 0. -1.
          2   -1    0    0  501    0  0.00000000000E+00 -0.00000000000E+00 -0.47990218597E+02  0.47990218667E+02  0.26000000000E-02 0.  1.
        -13    1    1    2    0    0  0.37972515860E-01  0.11047574975E+02 -0.27098734635E+02  0.29264363073E+02  0.10570000000E+00 0.  1.
         13    1    1    2    0    0 -0.37972515860E-01 -0.11047574975E+02 -0.18268164111E+02  0.21349176734E+02  0.10570000000E+00 0. -1.
<mgrwt>
<rscale>  0 0.22440475E+02</rscale>
<asrwt>0</asrwt>
<pdfrwt beam="2">  1        2 0.73831100E-02 0.22440475E+02</pdfrwt>
<pdfrwt beam="1">  1       -2 0.40358781E-03 0.22440475E+02</pdfrwt>
<totfact> 0.35525464E+06</totfact>
</mgrwt>
</event>
<event>
 4    1  0.3704929E-001  0.2118851E+02  0.7818608E-02  0.1722676E+00
          2   -1    0    0  501    0  0.00000000000E+00  0.00000000000E+00  0.24027354216E+01  0.24027368283E+01  0.26000000000E-02 0. -1.
         -2   -1    0    0    0  501 -0.00000000000E+00 -0.00000000000E+00 -0.46712664498E+02  0.46712664571E+02  0.26000000000E-02 0.  1.
        -13    1    1    2    0    0 -0.55820426889E+01  0.85889814390E+01 -0.15893203441E+02  0.18908593043E+02  0.10570000000E+00 0. -1.
         13    1    1    2    0    0  0.55820426889E+01 -0.85889814390E+01 -0.28416725635E+02  0.30206808356E+02  0.10570000000E+00 0.  1.
<mgrwt>
<rscale>  0 0.21188507E+02</rscale>
<asrwt>0</asrwt>
<pdfrwt beam="1">  1        2 0.36965175E-03 0.21188507E+02</pdfrwt>
<pdfrwt beam="2">  1       -2 0.71865632E-02 0.21188507E+02</pdfrwt>
<totfact> 0.30148222E+06</totfact>
</mgrwt>
</event>
<event>
 4    1  0.3704929E-001  0.6731755E+02  0.7818608E-02  0.1369460E+00
         -2   -1    0    0    0  501 -0.00000000000E+00  0.00000000000E+00  0.48876505624E+02  0.48876505693E+02  0.26000000000E-02 0.  1.
          2   -1    0    0  501    0  0.00000000000E+00 -0.00000000000E+00 -0.23179095545E+02  0.23179095691E+02  0.26000000000E-02 0. -1.
        -13    1    1    2    0    0 -0.30880750040E+02  0.10269331912E+02  0.36519903632E+01  0.32747948135E+02  0.10570000000E+00 0. -1.
         13    1    1    2    0    0  0.30880750040E+02 -0.10269331912E+02  0.22045419716E+02  0.39307653249E+02  0.10570000000E+00 0.  1.
<mgrwt>
<rscale>  0 0.67317552E+02</rscale>
<asrwt>0</asrwt>
<pdfrwt beam="2">  1        2 0.35660147E-02 0.67317552E+02</pdfrwt>
<pdfrwt beam="1">  1       -2 0.75194624E-02 0.67317552E+02</pdfrwt>
<totfact> 0.20013514E+05</totfact>
</mgrwt>
</event>
<event>
 4    1  0.3704929E-001  0.2697686E+02  0.7818608E-02  0.1634130E+00
          2   -1    0    0  501    0  0.00000000000E+00  0.00000000000E+00  0.18221755974E+02  0.18221756159E+02  0.26000000000E-02 0. -1.
         -2   -1    0    0    0  501 -0.00000000000E+00 -0.00000000000E+00 -0.99846449334E+01  0.99846452719E+01  0.26000000000E-02 0.  1.
        -13    1    1    2    0    0 -0.17963021013E+01 -0.13157057045E+02  0.65910197113E+01  0.14825234050E+02  0.10570000000E+00 0. -1.
         13    1    1    2    0    0  0.17963021013E+01  0.13157057045E+02  0.16460913289E+01  0.13381167381E+02  0.10570000000E+00 0.  1.
<mgrwt>
<rscale>  0 0.26976862E+02</rscale>
<asrwt>0</asrwt>
<pdfrwt beam="1">  1        2 0.28033471E-02 0.26976862E+02</pdfrwt>
<pdfrwt beam="2">  1       -2 0.15360993E-02 0.26976862E+02</pdfrwt>
<totfact> 0.20630975E+06</totfact>
</mgrwt>
</event>
<event>
 4    1  0.3704929E-001  0.2869811E+02  0.7818608E-02  0.1612942E+00
          2   -1    0    0  501    0  0.00000000000E+00  0.00000000000E+00  0.22929522053E+01  0.22929536794E+01  0.26000000000E-02 0.  1.
         -2   -1    0    0    0  501 -0.00000000000E+00 -0.00000000000E+00 -0.89794853920E+02  0.89794853957E+02  0.26000000000E-02 0. -1.
        -13    1    1    2    0    0 -0.13044626693E+02 -0.22544826408E+01 -0.25989119272E+02  0.29166598543E+02  0.10570000000E+00 0.  1.
         13    1    1    2    0    0  0.13044626693E+02  0.22544826408E+01 -0.61512782442E+02  0.62921209094E+02  0.10570000000E+00 0. -1.
<mgrwt>
<rscale>  0 0.28698110E+02</rscale>
<asrwt>0</asrwt>
<pdfrwt beam="1">  1        2 0.35276206E-03 0.28698110E+02</pdfrwt>
<pdfrwt beam="2">  1       -2 0.13814590E-01 0.28698110E+02</pdfrwt>
<totfact> 0.13551699E+06</totfact>
</mgrwt>
</event>
<event>
 4    1  0.3704929E-001  0.2809862E+02  0.7818608E-02  0.1620110E+00
         -2   -1    0    0    0  501 -0.00000000000E+00  0.00000000000E+00  0.30103383891E+02  0.30103384004E+02  0.26000000000E-02 0.  1.
          2   -1    0    0  501    0  0.00000000000E+00 -0.00000000000E+00 -0.65568386709E+01  0.65568391864E+01  0.26000000000E-02 0. -1.
        -13    1    1    2    0    0  0.10705028350E+02  0.90763039942E+01  0.10953339915E+02  0.17803475896E+02  0.10570000000E+00 0. -1.
         13    1    1    2    0    0 -0.10705028350E+02 -0.90763039942E+01  0.12593205305E+02  0.18856747294E+02  0.10570000000E+00 0.  1.
<mgrwt>
<rscale>  0 0.28098615E+02</rscale>
<asrwt>0</asrwt>
<pdfrwt beam="2">  1        2 0.10087444E-02 0.28098615E+02</pdfrwt>
<pdfrwt beam="1">  1       -2 0.46312900E-02 0.28098615E+02</pdfrwt>
<totfact> 0.16885834E+06</totfact>
</mgrwt>
</event>
<event>
 4    1  0.3704929E-001  0.3088672E+02  0.7818608E-02  0.1588489E+00
          2   -1    0    0  501    0  0.00000000000E+00  0.00000000000E+00  0.51072142441E+02  0.51072142507E+02  0.26000000000E-02 0. -1.
         -2   -1    0    0    0  501 -0.00000000000E+00 -0.00000000000E+00 -0.46698124418E+01  0.46698131656E+01  0.26000000000E-02 0.  1.
        -13    1    1    2    0    0 -0.35594617957E+01 -0.12588843665E+02  0.38010606258E+02  0.40199081006E+02  0.10570000000E+00 0. -1.
         13    1    1    2    0    0  0.35594617957E+01  0.12588843665E+02  0.83917237413E+01  0.15542874667E+02  0.10570000000E+00 0.  1.
<mgrwt>
<rscale>  0 0.30886719E+02</rscale>
<asrwt>0</asrwt>
<pdfrwt beam="1">  1        2 0.78572527E-02 0.30886719E+02</pdfrwt>
<pdfrwt beam="2">  1       -2 0.71843274E-03 0.30886719E+02</pdfrwt>
<totfact> 0.17019799E+06</totfact>
</mgrwt>
</event>
<event>
 4    1  0.3704929E-001  0.2424047E+02  0.7818608E-02  0.1672157E+00
         -2   -1    0    0    0  501 -0.00000000000E+00  0.00000000000E+00  0.18704837654E+02  0.18704837835E+02  0.26000000000E-02 0.  1.
          2   -1    0    0  501    0  0.00000000000E+00 -0.00000000000E+00 -0.78535887070E+01  0.78535891373E+01  0.26000000000E-02 0. -1.
        -13    1    1    2    0    0 -0.23057583865E+01 -0.11098705869E+02  0.10124194040E+02  0.15198956252E+02  0.10570000000E+00 0.  1.
         13    1    1    2    0    0  0.23057583865E+01  0.11098705869E+02  0.72705490748E+00  0.11359470720E+02  0.10570000000E+00 0. -1.
<mgrwt>
<rscale>  0 0.24240471E+02</rscale>
<asrwt>0</asrwt>
<pdfrwt beam="2">  1        2 0.12082445E-02 0.24240471E+02</pdfrwt>
<pdfrwt beam="1">  1       -2 0.28776674E-02 0.24240471E+02</pdfrwt>
<totfact> 0.24679229E+06</totfact>
</mgrwt>
</event>
<event>
 4    1  0.3704929E-001  0.4017912E+02  0.7818608E-02  0.1506897E+00
          2   -1    0    0  501    0  0.00000000000E+00  0.00000000000E+00  0.65323401260E+02  0.65323401311E+02  0.26000000000E-02 0. -1.
         -2   -1    0    0    0  501 -0.00000000000E+00 -0.00000000000E+00 -0.61783425974E+01  0.61783431445E+01  0.26000000000E-02 0.  1.
        -13    1    1    2    0    0 -0.84625292892E+01  0.57571585913E+01  0.60334986219E+02  0.61197067018E+02  0.10570000000E+00 0. -1.
         13    1    1    2    0    0  0.84625292892E+01 -0.57571585913E+01 -0.11899275573E+01  0.10304677438E+02  0.10570000000E+00 0.  1.
<mgrwt>
<rscale>  0 0.40179118E+02</rscale>
<asrwt>0</asrwt>
<pdfrwt beam="1">  1        2 0.10049754E-01 0.40179118E+02</pdfrwt>
<pdfrwt beam="2">  1       -2 0.95051434E-03 0.40179118E+02</pdfrwt>
<totfact> 0.93855422E+05</totfact>
</mgrwt>
</event>
<event>
 4    1  0.3704929E-001  0.5724589E+02  0.7818608E-02  0.1409767E+00
          2   -1    0    0  501    0  0.00000000000E+00  0.00000000000E+00  0.41501815013E+02  0.41501815094E+02  0.26000000000E-02 0. -1.
         -2   -1    0    0    0  501 -0.00000000000E+00 -0.00000000000E+00 -0.19740652152E+02  0.19740652323E+02  0.26000000000E-02 0.  1.
        -13    1    1    2    0    0  0.60097579854E+01 -0.27805717374E+02  0.14261367088E+02  0.31822521482E+02  0.10570000000E+00 0. -1.
         13    1    1    2    0    0 -0.60097579854E+01  0.27805717374E+02  0.74997957732E+01  0.29419945936E+02  0.10570000000E+00 0.  1.
<mgrwt>
<rscale>  0 0.57245887E+02</rscale>
<asrwt>0</asrwt>
<pdfrwt beam="1">  1        2 0.63848946E-02 0.57245887E+02</pdfrwt>
<pdfrwt beam="2">  1       -2 0.30370235E-02 0.57245887E+02</pdfrwt>
<totfact> 0.34792357E+05</totfact>
</mgrwt>
</event>
<event>
 4    1  0.3704929E-001  0.2394385E+02  0.7818608E-02  0.1676652E+00
          2   -1    0    0  501    0  0.00000000000E+00  0.00000000000E+00  0.38401526285E+02  0.38401526373E+02  0.26000000000E-02 0.  1.
         -2   -1    0    0    0  501 -0.00000000000E+00 -0.00000000000E+00 -0.37323246395E+01  0.37323255451E+01  0.26000000000E-02 0. -1.
        -13    1    1    2    0    0 -0.54088175621E+00  0.11345536077E+02  0.10679776022E+02  0.15591104205E+02  0.10570000000E+00 0. -1.
         13    1    1    2    0    0  0.54088175621E+00 -0.11345536077E+02  0.23989425623E+02  0.26542747713E+02  0.10570000000E+00 0.  1.
<mgrwt>
<rscale>  0 0.23943850E+02</rscale>
<asrwt>0</asrwt>
<pdfrwt beam="1">  1        2 0.59079269E-02 0.23943850E+02</pdfrwt>
<pdfrwt beam="2">  1       -2 0.57420390E-03 0.23943850E+02</pdfrwt>
<totfact> 0.29672229E+06</totfact>
</mgrwt>
</event>
<event>
 4    1  0.3704929E-001  0.3528947E+02  0.7818608E-02  0.1546045E+00
         -2   -1    0    0    0  501 -0.00000000000E+00  0.00000000000E+00  0.12420646290E+02  0.12420646562E+02  0.26000000000E-02 0. -1.
          2   -1    0    0  501    0  0.00000000000E+00 -0.00000000000E+00 -0.25066060481E+02  0.25066060615E+02  0.26000000000E-02 0.  1.
        -13    1    1    2    0    0  0.14082455455E+02 -0.73536343825E+00 -0.17588167561E+02  0.22543538357E+02  0.10570000000E+00 0. -1.
         13    1    1    2    0    0 -0.14082455455E+02  0.73536343825E+00  0.49427533712E+01  0.14943168820E+02  0.10570000000E+00 0.  1.
<mgrwt>
<rscale>  0 0.35289470E+02</rscale>
<asrwt>0</asrwt>
<pdfrwt beam="2">  1        2 0.38563170E-02 0.35289470E+02</pdfrwt>
<pdfrwt beam="1">  1       -2 0.19108687E-02 0.35289470E+02</pdfrwt>
<totfact> 0.11120915E+06</totfact>
</mgrwt>
</event>
<event>
 4    1  0.3704929E-001  0.3665483E+02  0.7818608E-02  0.1534378E+00
         -2   -1    0    0    0  501 -0.00000000000E+00  0.00000000000E+00  0.49391262178E+02  0.49391262247E+02  0.26000000000E-02 0.  1.
          2   -1    0    0  501    0  0.00000000000E+00 -0.00000000000E+00 -0.68006781048E+01  0.68006786018E+01  0.26000000000E-02 0. -1.
        -13    1    1    2    0    0  0.13639846835E+02  0.27746959020E+01  0.30185488216E+01  0.14243144614E+02  0.10570000000E+00 0. -1.
         13    1    1    2    0    0 -0.13639846835E+02 -0.27746959020E+01  0.39572035252E+02  0.41948796234E+02  0.10570000000E+00 0.  1.
<mgrwt>
<rscale>  0 0.36654827E+02</rscale>
<asrwt>0</asrwt>
<pdfrwt beam="2">  1        2 0.10462582E-02 0.36654827E+02</pdfrwt>
<pdfrwt beam="1">  1       -2 0.75986558E-02 0.36654827E+02</pdfrwt>
<totfact> 0.85494909E+05</totfact>
</mgrwt>
</event>
<event>
 4    1  0.3704929E-001  0.4581413E+02  0.7818608E-02  0.1469322E+00
         -2   -1    0    0    0  501 -0.00000000000E+00  0.00000000000E+00  0.62918863959E+01  0.62918869331E+01  0.26000000000E-02 0. -1.
          2   -1    0    0  501    0  0.00000000000E+00 -0.00000000000E+00 -0.83398450811E+02  0.83398450851E+02  0.26000000000E-02 0.  1.
        -13    1    1    2    0    0  0.21835451626E+01 -0.20770839781E+02 -0.56973024569E+02  0.60680576429E+02  0.10570000000E+00 0.  1.
         13    1    1    2    0    0 -0.21835451626E+01  0.20770839781E+02 -0.20133539846E+02  0.29009761356E+02  0.10570000000E+00 0. -1.
<mgrwt>
<rscale>  0 0.45814129E+02</rscale>
<asrwt>0</asrwt>
<pdfrwt beam="2">  1        2 0.12830530E-01 0.45814129E+02</pdfrwt>
<pdfrwt beam="1">  1       -2 0.96798263E-03 0.45814129E+02</pdfrwt>
<totfact> 0.71361074E+05</totfact>
</mgrwt>
</event>
<event>
 4    1  0.3704929E-001  0.3030720E+02  0.7818608E-02  0.1594718E+00
          2   -1    0    0  501    0  0.00000000000E+00  0.00000000000E+00  0.71617131475E+02  0.71617131523E+02  0.26000000000E-02 0. -1.
         -2   -1    0    0    0  501 -0.00000000000E+00 -0.00000000000E+00 -0.32063765913E+01  0.32063776455E+01  0.26000000000E-02 0.  1.
        -13    1    1    2    0    0  0.14770003506E+02  0.72355180455E+00  0.42372649406E+02  0.44879049912E+02  0.10570000000E+00 0. -1.
         13    1    1    2    0    0 -0.14770003506E+02 -0.72355180455E+00  0.26038105478E+02  0.29944459256E+02  0.10570000000E+00 0.  1.
<mgrwt>
<rscale>  0 0.30307196E+02</rscale>
<asrwt>0</asrwt>
<pdfrwt beam="1">  1        2 0.11018020E-01 0.30307196E+02</pdfrwt>
<pdfrwt beam="2">  1       -2 0.49328880E-03 0.30307196E+02</pdfrwt>
<totfact> 0.18947346E+06</totfact>
</mgrwt>
</event>
<event>
 4    1  0.3704929E-001  0.3765416E+02  0.7818608E-02  0.1526220E+00
          2   -1    0    0  501    0  0.00000000000E+00  0.00000000000E+00  0.31394978208E+02  0.31394978315E+02  0.26000000000E-02 0.  1.
         -2   -1    0    0    0  501 -0.00000000000E+00 -0.00000000000E+00 -0.11290304309E+02  0.11290304608E+02  0.26000000000E-02 0. -1.
        -13    1    1    2    0    0  0.10506708187E+02 -0.14752861398E+02  0.42266348078E+01  0.18598748631E+02  0.10570000000E+00 0. -1.
         13    1    1    2    0    0 -0.10506708187E+02  0.14752861398E+02  0.15878039091E+02  0.24086534292E+02  0.10570000000E+00 0.  1.
<mgrwt>
<rscale>  0 0.37654156E+02</rscale>
<asrwt>0</asrwt>
<pdfrwt beam="1">  1        2 0.48299966E-02 0.37654156E+02</pdfrwt>
<pdfrwt beam="2">  1       -2 0.17369699E-02 0.37654156E+02</pdfrwt>
<totfact> 0.97500417E+05</totfact>
</mgrwt>
</event>
<event>
 4    1  0.3704929E-001  0.2380122E+02  0.7818608E-02  0.1678842E+00
         -2   -1    0    0    0  501 -0.00000000000E+00  0.00000000000E+00  0.63644220341E+01  0.63644225651E+01  0.26000000000E-02 0. -1.
          2   -1    0    0  501    0  0.00000000000E+00 -0.00000000000E+00 -0.22252533224E+02  0.22252533375E+02  0.26000000000E-02 0.  1.
        -13    1    1    2    0    0 -0.10084111575E+02 -0.10178981427E+01 -0.15441816844E+02  0.18471229056E+02  0.10570000000E+00 0.  1.
         13    1    1    2    0    0  0.10084111575E+02  0.10178981427E+01 -0.44629434515E+00  0.10145726885E+02  0.10570000000E+00 0. -1.
<mgrwt>
<rscale>  0 0.23801220E+02</rscale>
<asrwt>0</asrwt>
<pdfrwt beam="2">  1        2 0.34234667E-02 0.23801220E+02</pdfrwt>
<pdfrwt beam="1">  1       -2 0.97914192E-03 0.23801220E+02</pdfrwt>
<totfact> 0.28260364E+06</totfact>
</mgrwt>
</event>
<event>
 4    1  0.3704929E-001  0.4104713E+02  0.7818608E-02  0.1500644E+00
          2   -1    0    0  501    0  0.00000000000E+00  0.00000000000E+00  0.91844682994E+02  0.91844683031E+02  0.26000000000E-02 0. -1.
         -2   -1    0    0    0  501 -0.00000000000E+00 -0.00000000000E+00 -0.45861841528E+01  0.45861848898E+01  0.26000000000E-02 0.  1.
        -13    1    1    2    0    0 -0.11125849077E+02 -0.11571254934E+02  0.73671197340E+02  0.75399833876E+02  0.10570000000E+00 0. -1.
         13    1    1    2    0    0  0.11125849077E+02  0.11571254934E+02  0.13587301501E+02  0.21031034045E+02  0.10570000000E+00 0.  1.
<mgrwt>
<rscale>  0 0.41047127E+02</rscale>
<asrwt>0</asrwt>
<pdfrwt beam="1">  1        2 0.14129951E-01 0.41047127E+02</pdfrwt>
<pdfrwt beam="2">  1       -2 0.70556686E-03 0.41047127E+02</pdfrwt>
<totfact> 0.96008450E+05</totfact>
</mgrwt>
</event>
<event>
 4    1  0.3704929E-001  0.2404316E+02  0.7818608E-02  0.1675138E+00
         -2   -1    0    0    0  501 -0.00000000000E+00  0.00000000000E+00  0.72783254387E+02  0.72783254433E+02  0.26000000000E-02 0.  1.
          2   -1    0    0  501    0  0.00000000000E+00 -0.00000000000E+00 -0.19855988467E+01  0.19856005489E+01  0.26000000000E-02 0. -1.
        -13    1    1    2    0    0  0.98948206187E+01 -0.68170600346E+01  0.34288606023E+02  0.36333172971E+02  0.10570000000E+00 0. -1.
         13    1    1    2    0    0 -0.98948206187E+01  0.68170600346E+01  0.36509049517E+02  0.38435682012E+02  0.10570000000E+00 0.  1.
<mgrwt>
<rscale>  0 0.24043162E+02</rscale>
<asrwt>0</asrwt>
<pdfrwt beam="2">  1        2 0.30547687E-03 0.24043162E+02</pdfrwt>
<pdfrwt beam="1">  1       -2 0.11197424E-01 0.24043162E+02</pdfrwt>
<totfact> 0.21174079E+06</totfact>
</mgrwt>
</event>
<event>
 4    1  0.3704929E-001  0.2212473E+02  0.7818608E-02  0.1706104E+00
          2   -1    0    0  501    0  0.00000000000E+00  0.00000000000E+00  0.76610742929E+02  0.76610742973E+02  0.26000000000E-02 0.  1.
         -2   -1    0    0    0  501 -0.00000000000E+00 -0.00000000000E+00 -0.15973720442E+01  0.15973741602E+01  0.26000000000E-02 0. -1.
        -13    1    1    2    0    0 -0.32582750896E+01  0.10570849769E+02  0.37770018492E+02  0.39356634648E+02  0.10570000000E+00 0.  1.
         13    1    1    2    0    0  0.32582750896E+01 -0.10570849769E+02  0.37243352393E+02  0.38851482486E+02  0.10570000000E+00 0. -1.
<mgrwt>
<rscale>  0 0.22124732E+02</rscale>
<asrwt>0</asrwt>
<pdfrwt beam="1">  1        2 0.11786268E-01 0.22124732E+02</pdfrwt>
<pdfrwt beam="2">  1       -2 0.24574972E-03 0.22124732E+02</pdfrwt>
<totfact> 0.39794598E+06</totfact>
</mgrwt>
</event>
<event>
 4    1  0.3704929E-001  0.2333117E+02  0.7818608E-02  0.1686198E+00
          2   -1    0    0  501    0  0.00000000000E+00  0.00000000000E+00  0.54770503342E+02  0.54770503404E+02  0.26000000000E-02 0.  1.
         -2   -1    0    0    0  501 -0.00000000000E+00 -0.00000000000E+00 -0.24846552390E+01  0.24846565993E+01  0.26000000000E-02 0. -1.
        -13    1    1    2    0    0 -0.33011582336E+01  0.10885008027E+02  0.32491982740E+02  0.34425588743E+02  0.10570000000E+00 0.  1.
         13    1    1    2    0    0  0.33011582336E+01 -0.10885008027E+02  0.19793865363E+02  0.22829571260E+02  0.10570000000E+00 0. -1.
<mgrwt>
<rscale>  0 0.23331169E+02</rscale>
<asrwt>0</asrwt>
<pdfrwt beam="1">  1        2 0.84262307E-02 0.23331169E+02</pdfrwt>
<pdfrwt beam="2">  1       -2 0.38225479E-03 0.23331169E+02</pdfrwt>
<totfact> 0.33191773E+06</totfact>
</mgrwt>
</event>
<event>
 4    1  0.3704929E-001  0.4454210E+02  0.7818608E-02  0.1477221E+00
          2   -1    0    0  501    0  0.00000000000E+00  0.00000000000E+00  0.37215885456E+02  0.37215885547E+02  0.26000000000E-02 0.  1.
         -2   -1    0    0    0  501 -0.00000000000E+00 -0.00000000000E+00 -0.13327635175E+02  0.13327635429E+02  0.26000000000E-02 0. -1.
        -13    1    1    2    0    0 -0.11663562511E+02 -0.54678446805E+01 -0.86710164782E+01  0.15528480774E+02  0.10570000000E+00 0. -1.
         13    1    1    2    0    0  0.11663562511E+02  0.54678446805E+01  0.32559266760E+02  0.35015040202E+02  0.10570000000E+00 0.  1.
<mgrwt>
<rscale>  0 0.44542104E+02</rscale>
<asrwt>0</asrwt>
<pdfrwt beam="1">  1        2 0.57255208E-02 0.44542104E+02</pdfrwt>
<pdfrwt beam="2">  1       -2 0.20504055E-02 0.44542104E+02</pdfrwt>
<totfact> 0.65498083E+05</totfact>
</mgrwt>
</event>
<event>
 4    1  0.3704929E-001  0.2175465E+02  0.7818608E-02  0.1712530E+00
         -2   -1    0    0    0  501 -0.00000000000E+00  0.00000000000E+00  0.14344903597E+02  0.14344903833E+02  0.26000000000E-02 0. -1.
          2   -1    0    0  501    0  0.00000000000E+00 -0.00000000000E+00 -0.82479593895E+01  0.82479597993E+01  0.26000000000E-02 0.  1.
        -13    1    1    2    0    0 -0.68079368235E+01  0.81457425402E+01  0.55069373220E+01  0.11959876943E+02  0.10570000000E+00 0. -1.
         13    1    1    2    0    0  0.68079368235E+01 -0.81457425402E+01  0.59000688556E+00  0.10632986689E+02  0.10570000000E+00 0.  1.
<mgrwt>
<rscale>  0 0.21754649E+02</rscale>
<asrwt>0</asrwt>
<pdfrwt beam="2">  1        2 0.12689169E-02 0.21754649E+02</pdfrwt>
<pdfrwt beam="1">  1       -2 0.22069082E-02 0.21754649E+02</pdfrwt>
<totfact> 0.32014175E+06</totfact>
</mgrwt>
</event>
<event>
 4    1  0.3704929E-001  0.3637220E+02  0.7818608E-02  0.1536742E+00
         -2   -1    0    0    0  501 -0.00000000000E+00  0.00000000000E+00  0.86450471161E+02  0.86450471201E+02  0.26000000000E-02 0.  1.
          2   -1    0    0  501    0  0.00000000000E+00 -0.00000000000E+00 -0.38257071165E+01  0.38257080000E+01  0.26000000000E-02 0. -1.
        -13    1    1    2    0    0 -0.15166405966E+02  0.79903326791E+01  0.56380815577E+02  0.58929388457E+02  0.10570000000E+00 0.  1.
         13    1    1    2    0    0  0.15166405966E+02 -0.79903326791E+01  0.26243948468E+02  0.31346790744E+02  0.10570000000E+00 0. -1.
<mgrwt>
<rscale>  0 0.36372200E+02</rscale>
<asrwt>0</asrwt>
<pdfrwt beam="2">  1        2 0.58857042E-03 0.36372200E+02</pdfrwt>
<pdfrwt beam="1">  1       -2 0.13300072E-01 0.36372200E+02</pdfrwt>
<totfact> 0.78541087E+05</totfact>
</mgrwt>
</event>
<event>
 4    1  0.3704929E-001  0.4580049E+02  0.7818608E-02  0.1469405E+00
         -2   -1    0    0    0  501 -0.00000000000E+00  0.00000000000E+00  0.63773888762E+01  0.63773894062E+01  0.26000000000E-02 0.  1.
          2   -1    0    0  501    0  0.00000000000E+00 -0.00000000000E+00 -0.82231326378E+02  0.82231326419E+02  0.26000000000E-02 0. -1.
        -13    1    1    2    0    0  0.13131839815E+02  0.23536041097E+01 -0.73935976825E+02  0.75130050651E+02  0.10570000000E+00 0.  1.
         13    1    1    2    0    0 -0.13131839815E+02 -0.23536041097E+01 -0.19179606771E+01  0.13478665175E+02  0.10570000000E+00 0. -1.
<mgrwt>
<rscale>  0 0.45800488E+02</rscale>
<asrwt>0</asrwt>
<pdfrwt beam="2">  1        2 0.12650973E-01 0.45800488E+02</pdfrwt>
<pdfrwt beam="1">  1       -2 0.98113685E-03 0.45800488E+02</pdfrwt>
<totfact> 0.71179069E+05</totfact>
</mgrwt>
</event>
<event>
 4    1  0.3704929E-001  0.3620097E+02  0.7818608E-02  0.1538187E+00
         -2   -1    0    0    0  501 -0.00000000000E+00  0.00000000000E+00  0.91365110841E+02  0.91365110878E+02  0.26000000000E-02 0.  1.
          2   -1    0    0  501    0  0.00000000000E+00 -0.00000000000E+00 -0.35859150999E+01  0.35859160425E+01  0.26000000000E-02 0. -1.
        -13    1    1    2    0    0  0.60590786471E+01  0.14312736741E+02  0.19558947630E+02  0.24982603386E+02  0.10570000000E+00 0. -1.
         13    1    1    2    0    0 -0.60590786471E+01 -0.14312736741E+02  0.68220248111E+02  0.69968423534E+02  0.10570000000E+00 0.  1.
<mgrwt>
<rscale>  0 0.36200971E+02</rscale>
<asrwt>0</asrwt>
<pdfrwt beam="2">  1        2 0.55167929E-03 0.36200971E+02</pdfrwt>
<pdfrwt beam="1">  1       -2 0.14056172E-01 0.36200971E+02</pdfrwt>
<totfact> 0.78444336E+05</totfact>
</mgrwt>
</event>
<event>
 4    1  0.3704929E-001  0.1357807E+03  0.7818608E-02  0.1219122E+00
          2   -1    0    0  501    0  0.00000000000E+00  0.00000000000E+00  0.10780412711E+03  0.10780412715E+03  0.26000000000E-02 0. -1.
         -2   -1    0    0    0  501 -0.00000000000E+00 -0.00000000000E+00 -0.42754366472E+02  0.42754366551E+02  0.26000000000E-02 0.  1.
        -13    1    1    2    0    0  0.22197824845E+02  0.52246016024E+02 -0.87663690483E+01  0.57439098331E+02  0.10570000000E+00 0.  1.
         13    1    1    2    0    0 -0.22197824845E+02 -0.52246016024E+02  0.73816129691E+02  0.93119395366E+02  0.10570000000E+00 0. -1.
<mgrwt>
<rscale>  0 0.13578066E+03</rscale>
<asrwt>0</asrwt>
<pdfrwt beam="1">  1        2 0.16585250E-01 0.13578066E+03</pdfrwt>
<pdfrwt beam="2">  1       -2 0.65775948E-02 0.13578066E+03</pdfrwt>
<totfact> 0.40610081E+04</totfact>
</mgrwt>
</event>
<event>
 4    1  0.3704929E-001  0.2276473E+02  0.7818608E-02  0.1695352E+00
         -2   -1    0    0    0  501 -0.00000000000E+00  0.00000000000E+00  0.23917440104E+01  0.23917454236E+01  0.26000000000E-02 0. -1.
          2   -1    0    0  501    0  0.00000000000E+00 -0.00000000000E+00 -0.54168915207E+02  0.54168915269E+02  0.26000000000E-02 0.  1.
        -13    1    1    2    0    0 -0.10866007575E+02  0.21423637626E+01 -0.32408974275E+02  0.34249271951E+02  0.10570000000E+00 0.  1.
         13    1    1    2    0    0  0.10866007575E+02 -0.21423637626E+01 -0.19368196921E+02  0.22311388742E+02  0.10570000000E+00 0. -1.
<mgrwt>
<rscale>  0 0.22764729E+02</rscale>
<asrwt>0</asrwt>
<pdfrwt beam="2">  1        2 0.83336784E-02 0.22764729E+02</pdfrwt>
<pdfrwt beam="1">  1       -2 0.36796077E-03 0.22764729E+02</pdfrwt>
<totfact> 0.35042161E+06</totfact>
</mgrwt>
</event>
<event>
 4    1  0.3704929E-001  0.2882758E+02  0.7818608E-02  0.1611422E+00
         -2   -1    0    0    0  501 -0.00000000000E+00  0.00000000000E+00  0.10155040943E+02  0.10155041276E+02  0.26000000000E-02 0. -1.
          2   -1    0    0  501    0  0.00000000000E+00 -0.00000000000E+00 -0.20458535625E+02  0.20458535790E+02  0.26000000000E-02 0.  1.
        -13    1    1    2    0    0  0.38140196717E+01  0.12731544964E+02  0.77117252211E+00  0.13313334021E+02  0.10570000000E+00 0.  1.
         13    1    1    2    0    0 -0.38140196717E+01 -0.12731544964E+02 -0.11074667204E+02  0.17300243044E+02  0.10570000000E+00 0. -1.
<mgrwt>
<rscale>  0 0.28827575E+02</rscale>
<asrwt>0</asrwt>
<pdfrwt beam="2">  1        2 0.31474671E-02 0.28827575E+02</pdfrwt>
<pdfrwt beam="1">  1       -2 0.15623140E-02 0.28827575E+02</pdfrwt>
<totfact> 0.17808485E+06</totfact>
</mgrwt>
</event>
<event>
 4    1  0.3704929E-001  0.2307271E+02  0.7818608E-02  0.1690334E+00
         -2   -1    0    0    0  501 -0.00000000000E+00  0.00000000000E+00  0.13292238781E+01  0.13292264209E+01  0.26000000000E-02 0. -1.
          2   -1    0    0  501    0  0.00000000000E+00 -0.00000000000E+00 -0.10012407561E+03  0.10012407565E+03  0.26000000000E-02 0.  1.
        -13    1    1    2    0    0  0.11409640071E+02  0.16487706487E+01 -0.51252252544E+02  0.52532874417E+02  0.10570000000E+00 0.  1.
         13    1    1    2    0    0 -0.11409640071E+02 -0.16487706487E+01 -0.47542599191E+02  0.48920427650E+02  0.10570000000E+00 0. -1.
<mgrwt>
<rscale>  0 0.23072706E+02</rscale>
<asrwt>0</asrwt>
<pdfrwt beam="2">  1        2 0.15403698E-01 0.23072706E+02</pdfrwt>
<pdfrwt beam="1">  1       -2 0.20449626E-03 0.23072706E+02</pdfrwt>
<totfact> 0.38345247E+06</totfact>
</mgrwt>
</event>
<event>
 4    1  0.3704929E-001  0.3003734E+02  0.7818608E-02  0.1597676E+00
          2   -1    0    0  501    0  0.00000000000E+00  0.00000000000E+00  0.63630100170E+02  0.63630100223E+02  0.26000000000E-02 0. -1.
         -2   -1    0    0    0  501 -0.00000000000E+00 -0.00000000000E+00 -0.35448697254E+01  0.35448706789E+01  0.26000000000E-02 0.  1.
        -13    1    1    2    0    0  0.10377944436E+02  0.84155742039E+01  0.45378662975E+02  0.47304945257E+02  0.10570000000E+00 0. -1.
         13    1    1    2    0    0 -0.10377944436E+02 -0.84155742039E+01  0.14706567470E+02  0.19870025645E+02  0.10570000000E+00 0.  1.
<mgrwt>
<rscale>  0 0.30037340E+02</rscale>
<asrwt>0</asrwt>
<pdfrwt beam="1">  1        2 0.97892470E-02 0.30037340E+02</pdfrwt>
<pdfrwt beam="2">  1       -2 0.54536461E-03 0.30037340E+02</pdfrwt>
<totfact> 0.18913418E+06</totfact>
</mgrwt>
</event>
<event>
 4    1  0.3704929E-001  0.4940862E+02  0.7818608E-02  0.1448558E+00
          2   -1    0    0  501    0  0.00000000000E+00  0.00000000000E+00  0.10117085409E+03  0.10117085413E+03  0.26000000000E-02 0. -1.
         -2   -1    0    0    0  501 -0.00000000000E+00 -0.00000000000E+00 -0.60323986415E+01  0.60323992018E+01  0.26000000000E-02 0.  1.
        -13    1    1    2    0    0 -0.10020969062E+02 -0.21867928216E+02  0.59778776669E+02  0.64437096598E+02  0.10570000000E+00 0. -1.
         13    1    1    2    0    0  0.10020969062E+02  0.21867928216E+02  0.35359678783E+02  0.42766156731E+02  0.10570000000E+00 0.  1.
<mgrwt>
<rscale>  0 0.49408621E+02</rscale>
<asrwt>0</asrwt>
<pdfrwt beam="1">  1        2 0.15564746E-01 0.49408621E+02</pdfrwt>
<pdfrwt beam="2">  1       -2 0.92806144E-03 0.49408621E+02</pdfrwt>
<totfact> 0.61890610E+05</totfact>
</mgrwt>
</event>
<event>
 4    1  0.3704929E-001  0.2474954E+02  0.7818608E-02  0.1664626E+00
          2   -1    0    0  501    0  0.00000000000E+00  0.00000000000E+00  0.71114805909E+02  0.71114805957E+02  0.26000000000E-02 0. -1.
         -2   -1    0    0    0  501 -0.00000000000E+00 -0.00000000000E+00 -0.21533466388E+01  0.21533482084E+01  0.26000000000E-02 0.  1.
        -13    1    1    2    0    0  0.67126979478E+01  0.10362342285E+02  0.36931355603E+02  0.38940655497E+02  0.10570000000E+00 0.  1.
         13    1    1    2    0    0 -0.67126979478E+01 -0.10362342285E+02  0.32030103667E+02  0.34327498668E+02  0.10570000000E+00 0. -1.
<mgrwt>
<rscale>  0 0.24749536E+02</rscale>
<asrwt>0</asrwt>
<pdfrwt beam="1">  1        2 0.10940738E-01 0.24749536E+02</pdfrwt>
<pdfrwt beam="2">  1       -2 0.33128426E-03 0.24749536E+02</pdfrwt>
<totfact> 0.30380007E+06</totfact>
</mgrwt>
</event>
<event>
 4    1  0.3704929E-001  0.7538301E+02  0.7818608E-02  0.1342689E+00
          2   -1    0    0  501    0  0.00000000000E+00  0.00000000000E+00  0.10981768193E+03  0.10981768196E+03  0.26000000000E-02 0. -1.
         -2   -1    0    0    0  501 -0.00000000000E+00 -0.00000000000E+00 -0.12936436382E+02  0.12936436643E+02  0.26000000000E-02 0.  1.
        -13    1    1    2    0    0  0.16950651735E+02  0.17859422326E+02  0.19709703763E+01  0.24701810800E+02  0.10570000000E+00 0.  1.
         13    1    1    2    0    0 -0.16950651735E+02 -0.17859422326E+02  0.94910275168E+02  0.98052307800E+02  0.10570000000E+00 0. -1.
<mgrwt>
<rscale>  0 0.75383008E+02</rscale>
<asrwt>0</asrwt>
<pdfrwt beam="1">  1        2 0.16895027E-01 0.75383008E+02</pdfrwt>
<pdfrwt beam="2">  1       -2 0.19902211E-02 0.75383008E+02</pdfrwt>
<totfact> 0.21127202E+05</totfact>
</mgrwt>
</event>
<event>
 4    1  0.3704929E-001  0.2337710E+02  0.7818608E-02  0.1685469E+00
          2   -1    0    0  501    0  0.00000000000E+00  0.00000000000E+00  0.29500783757E+01  0.29500795215E+01  0.26000000000E-02 0.  1.
         -2   -1    0    0    0  501 -0.00000000000E+00 -0.00000000000E+00 -0.46311351283E+02  0.46311351356E+02  0.26000000000E-02 0. -1.
        -13    1    1    2    0    0 -0.10788150283E+02 -0.30887583127E+01 -0.28569242626E+02  0.30694256974E+02  0.10570000000E+00 0. -1.
         13    1    1    2    0    0  0.10788150283E+02  0.30887583127E+01 -0.14792030280E+02  0.18567173903E+02  0.10570000000E+00 0.  1.
<mgrwt>
<rscale>  0 0.23377095E+02</rscale>
<asrwt>0</asrwt>
<pdfrwt beam="1">  1        2 0.45385834E-03 0.23377095E+02</pdfrwt>
<pdfrwt beam="2">  1       -2 0.71248228E-02 0.23377095E+02</pdfrwt>
<totfact> 0.24263308E+06</totfact>
</mgrwt>
</event>
<event>
 4    1  0.3704929E-001  0.2121489E+02  0.7818608E-02  0.1722195E+00
          2   -1    0    0  501    0  0.00000000000E+00  0.00000000000E+00  0.60949328546E+02  0.60949328602E+02  0.26000000000E-02 0.  1.
         -2   -1    0    0    0  501 -0.00000000000E+00 -0.00000000000E+00 -0.18460885798E+01  0.18460904107E+01  0.26000000000E-02 0. -1.
        -13    1    1    2    0    0  0.98393457501E+01 -0.36048573210E+01  0.34414466665E+02  0.35974635640E+02  0.10570000000E+00 0. -1.
         13    1    1    2    0    0 -0.98393457501E+01  0.36048573210E+01  0.24688773302E+02  0.26820783373E+02  0.10570000000E+00 0.  1.
<mgrwt>
<rscale>  0 0.21214893E+02</rscale>
<asrwt>0</asrwt>
<pdfrwt beam="1">  1        2 0.93768198E-02 0.21214893E+02</pdfrwt>
<pdfrwt beam="2">  1       -2 0.28401378E-03 0.21214893E+02</pdfrwt>
<totfact> 0.41920564E+06</totfact>
</mgrwt>
</event>
<event>
 4    1  0.3704929E-001  0.2344346E+02  0.7818608E-02  0.1684421E+00
          2   -1    0    0  501    0  0.00000000000E+00  0.00000000000E+00  0.90843650234E+01  0.90843653955E+01  0.26000000000E-02 0. -1.
         -2   -1    0    0    0  501 -0.00000000000E+00 -0.00000000000E+00 -0.15124766278E+02  0.15124766502E+02  0.26000000000E-02 0.  1.
        -13    1    1    2    0    0 -0.71045874143E+01  0.78630056185E+01  0.21519457579E+01  0.10814067816E+02  0.10570000000E+00 0.  1.
         13    1    1    2    0    0  0.71045874143E+01 -0.78630056185E+01 -0.81923470127E+01  0.13395064082E+02  0.10570000000E+00 0. -1.
<mgrwt>
<rscale>  0 0.23443456E+02</rscale>
<asrwt>0</asrwt>
<pdfrwt beam="1">  1        2 0.13975947E-02 0.23443456E+02</pdfrwt>
<pdfrwt beam="2">  1       -2 0.23268872E-02 0.23443456E+02</pdfrwt>
<totfact> 0.27062270E+06</totfact>
</mgrwt>
</event>
<event>
 4    1  0.3704929E-001  0.2760381E+02  0.7818608E-02  0.1626193E+00
         -2   -1    0    0    0  501 -0.00000000000E+00  0.00000000000E+00  0.35716426796E+02  0.35716426890E+02  0.26000000000E-02 0.  1.
          2   -1    0    0  501    0  0.00000000000E+00 -0.00000000000E+00 -0.53334726280E+01  0.53334732617E+01  0.26000000000E-02 0. -1.
        -13    1    1    2    0    0 -0.10982347675E+02 -0.34718937336E+01  0.38840212585E+01  0.12155772299E+02  0.10570000000E+00 0. -1.
         13    1    1    2    0    0  0.10982347675E+02  0.34718937336E+01  0.26498932909E+02  0.28894127853E+02  0.10570000000E+00 0.  1.
<mgrwt>
<rscale>  0 0.27603811E+02</rscale>
<asrwt>0</asrwt>
<pdfrwt beam="2">  1        2 0.82053433E-03 0.27603811E+02</pdfrwt>
<pdfrwt beam="1">  1       -2 0.54948348E-02 0.27603811E+02</pdfrwt>
<totfact> 0.17235739E+06</totfact>
</mgrwt>
</event>
<event>
 4    1  0.3704929E-001  0.2593916E+02  0.7818608E-02  0.1647868E+00
         -2   -1    0    0    0  501 -0.00000000000E+00  0.00000000000E+00  0.21213464816E+02  0.21213464975E+02  0.26000000000E-02 0.  1.
          2   -1    0    0  501    0  0.00000000000E+00 -0.00000000000E+00 -0.79293951690E+01  0.79293955953E+01  0.26000000000E-02 0. -1.
        -13    1    1    2    0    0  0.54961430113E+00  0.10732821598E+02 -0.15142995121E+01  0.10853562126E+02  0.10570000000E+00 0. -1.
         13    1    1    2    0    0 -0.54961430113E+00 -0.10732821598E+02  0.14798369159E+02  0.18289298444E+02  0.10570000000E+00 0.  1.
<mgrwt>
<rscale>  0 0.25939156E+02</rscale>
<asrwt>0</asrwt>
<pdfrwt beam="2">  1        2 0.12199070E-02 0.25939156E+02</pdfrwt>
<pdfrwt beam="1">  1       -2 0.32636099E-02 0.25939156E+02</pdfrwt>
<totfact> 0.20972053E+06</totfact>
</mgrwt>
</event>
<event>
 4    1  0.3704929E-001  0.2976000E+02  0.7818608E-02  0.1600757E+00
         -2   -1    0    0    0  501 -0.00000000000E+00  0.00000000000E+00  0.47850193152E+02  0.47850193223E+02  0.26000000000E-02 0.  1.
          2   -1    0    0  501    0  0.00000000000E+00 -0.00000000000E+00 -0.46272406787E+01  0.46272414091E+01  0.26000000000E-02 0. -1.
        -13    1    1    2    0    0  0.13831164681E+02  0.53424200002E+01  0.19408594533E+02  0.24424317434E+02  0.10570000000E+00 0. -1.
         13    1    1    2    0    0 -0.13831164681E+02 -0.53424200002E+01  0.23814357941E+02  0.28053117198E+02  0.10570000000E+00 0.  1.
<mgrwt>
<rscale>  0 0.29759999E+02</rscale>
<asrwt>0</asrwt>
<pdfrwt beam="2">  1        2 0.71188329E-03 0.29759999E+02</pdfrwt>
<pdfrwt beam="1">  1       -2 0.73615677E-02 0.29759999E+02</pdfrwt>
<totfact> 0.13957718E+06</totfact>
</mgrwt>
</event>
<event>
 4    1  0.3704929E-001  0.2256814E+02  0.7818608E-02  0.1698608E+00
          2   -1    0    0  501    0  0.00000000000E+00  0.00000000000E+00  0.57147325388E+01  0.57147331302E+01  0.26000000000E-02 0. -1.
         -2   -1    0    0    0  501 -0.00000000000E+00 -0.00000000000E+00 -0.22281054158E+02  0.22281054310E+02  0.26000000000E-02 0.  1.
        -13    1    1    2    0    0 -0.11037659537E+02  0.15786879146E+01 -0.61356547798E+01  0.12727121264E+02  0.10570000000E+00 0. -1.
         13    1    1    2    0    0  0.11037659537E+02 -0.15786879146E+01 -0.10430666840E+02  0.15268666176E+02  0.10570000000E+00 0.  1.
<mgrwt>
<rscale>  0 0.22568144E+02</rscale>
<asrwt>0</asrwt>
<pdfrwt beam="1">  1        2 0.87918969E-03 0.22568144E+02</pdfrwt>
<pdfrwt beam="2">  1       -2 0.34278545E-02 0.22568144E+02</pdfrwt>
<totfact> 0.28457264E+06</totfact>
</mgrwt>
</event>
<event>
 4    1  0.3704929E-001  0.2882963E+02  0.7818608E-02  0.1611398E+00
         -2   -1    0    0    0  501 -0.00000000000E+00  0.00000000000E+00  0.29037102265E+02  0.29037102381E+02  0.26000000000E-02 0. -1.
          2   -1    0    0  501    0  0.00000000000E+00 -0.00000000000E+00 -0.71559083813E+01  0.71559088536E+01  0.26000000000E-02 0.  1.
        -13    1    1    2    0    0 -0.37259175605E+00  0.11285581353E+02 -0.30724256573E+00  0.11296403923E+02  0.10570000000E+00 0.  1.
         13    1    1    2    0    0  0.37259175605E+00 -0.11285581353E+02  0.22188436449E+02  0.24896607312E+02  0.10570000000E+00 0. -1.
<mgrwt>
<rscale>  0 0.28829627E+02</rscale>
<asrwt>0</asrwt>
<pdfrwt beam="2">  1        2 0.11009090E-02 0.28829627E+02</pdfrwt>
<pdfrwt beam="1">  1       -2 0.44672465E-02 0.28829627E+02</pdfrwt>
<totfact> 0.15992054E+06</totfact>
</mgrwt>
</event>
<event>
 4    1  0.3704929E-001  0.6523011E+02  0.7818608E-02  0.1377108E+00
          2   -1    0    0  501    0  0.00000000000E+00  0.00000000000E+00  0.23349761405E+03  0.23349761407E+03  0.26000000000E-02 0.  1.
         -2   -1    0    0    0  501 -0.00000000000E+00 -0.00000000000E+00 -0.45556855407E+01  0.45556862826E+01  0.26000000000E-02 0. -1.
        -13    1    1    2    0    0 -0.32162535268E+02 -0.26576234324E+01  0.97260857051E+02  0.10247525128E+03  0.10570000000E+00 0. -1.
         13    1    1    2    0    0  0.32162535268E+02  0.26576234324E+01  0.13168107146E+03  0.13557804907E+03  0.10570000000E+00 0.  1.
<mgrwt>
<rscale>  0 0.65230109E+02</rscale>
<asrwt>0</asrwt>
<pdfrwt beam="1">  1        2 0.35922713E-01 0.65230109E+02</pdfrwt>
<pdfrwt beam="2">  1       -2 0.70087469E-03 0.65230109E+02</pdfrwt>
<totfact> 0.39489352E+05</totfact>
</mgrwt>
</event>
<event>
 4    1  0.3704929E-001  0.5857052E+02  0.7818608E-02  0.1403930E+00
          2   -1    0    0  501    0  0.00000000000E+00  0.00000000000E+00  0.13612910005E+02  0.13612910253E+02  0.26000000000E-02 0.  1.
         -2   -1    0    0    0  501 -0.00000000000E+00 -0.00000000000E+00 -0.63000960068E+02  0.63000960122E+02  0.26000000000E-02 0. -1.
        -13    1    1    2    0    0  0.19250793392E+02 -0.21364404642E+02 -0.17460027370E+02  0.33643640709E+02  0.10570000000E+00 0.  1.
         13    1    1    2    0    0 -0.19250793392E+02  0.21364404642E+02 -0.31928022694E+02  0.42970229666E+02  0.10570000000E+00 0. -1.
<mgrwt>
<rscale>  0 0.58570519E+02</rscale>
<asrwt>0</asrwt>
<pdfrwt beam="1">  1        2 0.20942939E-02 0.58570519E+02</pdfrwt>
<pdfrwt beam="2">  1       -2 0.96924552E-02 0.58570519E+02</pdfrwt>
<totfact> 0.26625022E+05</totfact>
</mgrwt>
</event>
<event>
 4    1  0.3704929E-001  0.1158340E+03  0.7818608E-02  0.1250132E+00
          2   -1    0    0  501    0  0.00000000000E+00  0.00000000000E+00  0.25147401985E+02  0.25147402119E+02  0.26000000000E-02 0. -1.
         -2   -1    0    0    0  501 -0.00000000000E+00 -0.00000000000E+00 -0.13338868635E+03  0.13338868638E+03  0.26000000000E-02 0.  1.
        -13    1    1    2    0    0 -0.54849797284E+02 -0.14107515323E+02 -0.70705907060E+02  0.90591714391E+02  0.10570000000E+00 0.  1.
         13    1    1    2    0    0  0.54849797284E+02  0.14107515323E+02 -0.37535377310E+02  0.67944374108E+02  0.10570000000E+00 0. -1.
<mgrwt>
<rscale>  0 0.11583400E+03</rscale>
<asrwt>0</asrwt>
<pdfrwt beam="1">  1        2 0.38688312E-02 0.11583400E+03</pdfrwt>
<pdfrwt beam="2">  1       -2 0.20521336E-01 0.11583400E+03</pdfrwt>
<totfact> 0.39847248E+04</totfact>
</mgrwt>
</event>
<event>
 4    1  0.3704929E-001  0.3958124E+02  0.7818608E-02  0.1511316E+00
         -2   -1    0    0    0  501 -0.00000000000E+00  0.00000000000E+00  0.24948870200E+01  0.24948883748E+01  0.26000000000E-02 0. -1.
          2   -1    0    0  501    0  0.00000000000E+00 -0.00000000000E+00 -0.15698849507E+03  0.15698849509E+03  0.26000000000E-02 0.  1.
        -13    1    1    2    0    0  0.12688819184E+02 -0.14939379271E+02 -0.88256594530E+02  0.90407017625E+02  0.10570000000E+00 0.  1.
         13    1    1    2    0    0 -0.12688819184E+02  0.14939379271E+02 -0.66237013516E+02  0.69076365837E+02  0.10570000000E+00 0. -1.
<mgrwt>
<rscale>  0 0.39581241E+02</rscale>
<asrwt>0</asrwt>
<pdfrwt beam="2">  1        2 0.24152069E-01 0.39581241E+02</pdfrwt>
<pdfrwt beam="1">  1       -2 0.38382900E-03 0.39581241E+02</pdfrwt>
<totfact> 0.12144992E+06</totfact>
</mgrwt>
</event>
<event>
 4    1  0.3704929E-001  0.4232474E+02  0.7818608E-02  0.1491769E+00
         -2   -1    0    0    0  501 -0.00000000000E+00  0.00000000000E+00  0.16779121413E+02  0.16779121615E+02  0.26000000000E-02 0. -1.
          2   -1    0    0  501    0  0.00000000000E+00 -0.00000000000E+00 -0.26690662784E+02  0.26690662910E+02  0.26000000000E-02 0.  1.
        -13    1    1    2    0    0  0.18550586980E+02  0.65859665518E+01 -0.12933504895E+02  0.23553894669E+02  0.10570000000E+00 0.  1.
         13    1    1    2    0    0 -0.18550586980E+02 -0.65859665518E+01  0.30219635248E+01  0.19915889856E+02  0.10570000000E+00 0. -1.
<mgrwt>
<rscale>  0 0.42324739E+02</rscale>
<asrwt>0</asrwt>
<pdfrwt beam="2">  1        2 0.41062558E-02 0.42324739E+02</pdfrwt>
<pdfrwt beam="1">  1       -2 0.25814033E-02 0.42324739E+02</pdfrwt>
<totfact> 0.70969388E+05</totfact>
</mgrwt>
</event>
<event>
 4    1  0.3704929E-001  0.2238720E+02  0.7818608E-02  0.1701640E+00
          2   -1    0    0  501    0  0.00000000000E+00  0.00000000000E+00  0.51348479338E+02  0.51348479404E+02  0.26000000000E-02 0.  1.
         -2   -1    0    0    0  501 -0.00000000000E+00 -0.00000000000E+00 -0.24401243179E+01  0.24401257030E+01  0.26000000000E-02 0. -1.
        -13    1    1    2    0    0 -0.31593934558E+01  0.10718662596E+02  0.26000193993E+02  0.28300048675E+02  0.10570000000E+00 0.  1.
         13    1    1    2    0    0  0.31593934558E+01 -0.10718662596E+02  0.22908161027E+02  0.25488556432E+02  0.10570000000E+00 0. -1.
<mgrwt>
<rscale>  0 0.22387203E+02</rscale>
<asrwt>0</asrwt>
<pdfrwt beam="1">  1        2 0.78997662E-02 0.22387203E+02</pdfrwt>
<pdfrwt beam="2">  1       -2 0.37540385E-03 0.22387203E+02</pdfrwt>
<totfact> 0.36091021E+06</totfact>
</mgrwt>
</event>
<event>
 4    1  0.3704929E-001  0.3159985E+02  0.7818608E-02  0.1581049E+00
         -2   -1    0    0    0  501 -0.00000000000E+00  0.00000000000E+00  0.58216809803E+02  0.58216809861E+02  0.26000000000E-02 0. -1.
          2   -1    0    0  501    0  0.00000000000E+00 -0.00000000000E+00 -0.42880676200E+01  0.42880684083E+01  0.26000000000E-02 0.  1.
        -13    1    1    2    0    0 -0.14479544473E+02 -0.53785525882E+01  0.33536740599E+02  0.36923030463E+02  0.10570000000E+00 0. -1.
         13    1    1    2    0    0  0.14479544473E+02  0.53785525882E+01  0.20392001583E+02  0.25581847805E+02  0.10570000000E+00 0.  1.
<mgrwt>
<rscale>  0 0.31599851E+02</rscale>
<asrwt>0</asrwt>
<pdfrwt beam="2">  1        2 0.65970280E-03 0.31599851E+02</pdfrwt>
<pdfrwt beam="1">  1       -2 0.89564320E-02 0.31599851E+02</pdfrwt>
<totfact> 0.11783301E+06</totfact>
</mgrwt>
</event>
<event>
 4    1  0.3704929E-001  0.2413889E+02  0.7818608E-02  0.1673688E+00
          2   -1    0    0  501    0  0.00000000000E+00  0.00000000000E+00  0.24840945280E+01  0.24840958887E+01  0.26000000000E-02 0. -1.
         -2   -1    0    0    0  501 -0.00000000000E+00 -0.00000000000E+00 -0.58641658617E+02  0.58641658675E+02  0.26000000000E-02 0.  1.
        -13    1    1    2    0    0 -0.57517749396E+00  0.12020014946E+02 -0.30411625255E+02  0.32706111227E+02  0.10570000000E+00 0. -1.
         13    1    1    2    0    0  0.57517749396E+00 -0.12020014946E+02 -0.25745938834E+02  0.28419643337E+02  0.10570000000E+00 0.  1.
<mgrwt>
<rscale>  0 0.24138887E+02</rscale>
<asrwt>0</asrwt>
<pdfrwt beam="1">  1        2 0.38216854E-03 0.24138887E+02</pdfrwt>
<pdfrwt beam="2">  1       -2 0.90217927E-02 0.24138887E+02</pdfrwt>
<totfact> 0.21798557E+06</totfact>
</mgrwt>
</event>
<event>
 4    1  0.3704929E-001  0.2466581E+02  0.7818608E-02  0.1665849E+00
          2   -1    0    0  501    0  0.00000000000E+00  0.00000000000E+00  0.54708881112E+02  0.54708881174E+02  0.26000000000E-02 0. -1.
         -2   -1    0    0    0  501 -0.00000000000E+00 -0.00000000000E+00 -0.27801795631E+01  0.27801807789E+01  0.26000000000E-02 0.  1.
        -13    1    1    2    0    0 -0.78345179917E+01 -0.62490192541E+01  0.92124234256E+01  0.13612855382E+02  0.10570000000E+00 0.  1.
         13    1    1    2    0    0  0.78345179917E+01  0.62490192541E+01  0.42716278124E+02  0.43876206571E+02  0.10570000000E+00 0. -1.
<mgrwt>
<rscale>  0 0.24665810E+02</rscale>
<asrwt>0</asrwt>
<pdfrwt beam="1">  1        2 0.84167524E-02 0.24665810E+02</pdfrwt>
<pdfrwt beam="2">  1       -2 0.42771996E-03 0.24665810E+02</pdfrwt>
<totfact> 0.29207103E+06</totfact>
</mgrwt>
</event>
<event>
 4    1  0.3704929E-001  0.3378918E+02  0.7818608E-02  0.1559623E+00
         -2   -1    0    0    0  501 -0.00000000000E+00  0.00000000000E+00  0.54289812540E+01  0.54289818765E+01  0.26000000000E-02 0. -1.
          2   -1    0    0  501    0  0.00000000000E+00 -0.00000000000E+00 -0.52574717489E+02  0.52574717554E+02  0.26000000000E-02 0.  1.
        -13    1    1    2    0    0  0.13129652982E+02  0.10336621827E+02 -0.27841206748E+02  0.32471179589E+02  0.10570000000E+00 0.  1.
         13    1    1    2    0    0 -0.13129652982E+02 -0.10336621827E+02 -0.19304529487E+02  0.25532519841E+02  0.10570000000E+00 0. -1.
<mgrwt>
<rscale>  0 0.33789180E+02</rscale>
<asrwt>0</asrwt>
<pdfrwt beam="2">  1        2 0.80884178E-02 0.33789180E+02</pdfrwt>
<pdfrwt beam="1">  1       -2 0.83522797E-03 0.33789180E+02</pdfrwt>
<totfact> 0.13776746E+06</totfact>
</mgrwt>
</event>
<event>
 4    1  0.3704929E-001  0.3358258E+02  0.7818608E-02  0.1561560E+00
         -2   -1    0    0    0  501 -0.00000000000E+00  0.00000000000E+00  0.10113837226E+02  0.10113837560E+02  0.26000000000E-02 0. -1.
          2   -1    0    0  501    0  0.00000000000E+00 -0.00000000000E+00 -0.27877393932E+02  0.27877394053E+02  0.26000000000E-02 0.  1.
        -13    1    1    2    0    0  0.45554818032E+01  0.15755198287E+02 -0.48095592284E+01  0.17091568682E+02  0.10570000000E+00 0. -1.
         13    1    1    2    0    0 -0.45554818032E+01 -0.15755198287E+02 -0.12953997477E+02  0.20899662932E+02  0.10570000000E+00 0.  1.
<mgrwt>
<rscale>  0 0.33582581E+02</rscale>
<asrwt>0</asrwt>
<pdfrwt beam="2">  1        2 0.42888298E-02 0.33582581E+02</pdfrwt>
<pdfrwt beam="1">  1       -2 0.15559750E-02 0.33582581E+02</pdfrwt>
<totfact> 0.12735415E+06</totfact>
</mgrwt>
</event>
<event>
 4    1  0.3704929E-001  0.2174936E+02  0.7818608E-02  0.1712623E+00
         -2   -1    0    0    0  501 -0.00000000000E+00  0.00000000000E+00  0.68927232579E+02  0.68927232628E+02  0.26000000000E-02 0.  1.
          2   -1    0    0  501    0  0.00000000000E+00 -0.00000000000E+00 -0.17157017039E+01  0.17157036740E+01  0.26000000000E-02 0. -1.
        -13    1    1    2    0    0  0.10571447189E+02  0.25277389379E+01  0.34645695503E+02  0.36310884720E+02  0.10570000000E+00 0. -1.
         13    1    1    2    0    0 -0.10571447189E+02 -0.25277389379E+01  0.32565835372E+02  0.34332051581E+02  0.10570000000E+00 0.  1.
<mgrwt>
<rscale>  0 0.21749358E+02</rscale>
<asrwt>0</asrwt>
<pdfrwt beam="2">  1        2 0.26395429E-03 0.21749358E+02</pdfrwt>
<pdfrwt beam="1">  1       -2 0.10604189E-01 0.21749358E+02</pdfrwt>
<totfact> 0.26753112E+06</totfact>
</mgrwt>
</event>
<event>
 4    1  0.3704929E-001  0.2202333E+02  0.7818608E-02  0.1707849E+00
         -2   -1    0    0    0  501 -0.00000000000E+00  0.00000000000E+00  0.20747566543E+01  0.20747582834E+01  0.26000000000E-02 0. -1.
          2   -1    0    0  501    0  0.00000000000E+00 -0.00000000000E+00 -0.58443830751E+02  0.58443830809E+02  0.26000000000E-02 0.  1.
        -13    1    1    2    0    0 -0.65229085900E+01 -0.84546037495E+01 -0.20802393888E+02  0.23383315099E+02  0.10570000000E+00 0. -1.
         13    1    1    2    0    0  0.65229085900E+01  0.84546037495E+01 -0.35566680209E+02  0.37135273994E+02  0.10570000000E+00 0.  1.
<mgrwt>
<rscale>  0 0.22023331E+02</rscale>
<asrwt>0</asrwt>
<pdfrwt beam="2">  1        2 0.89913574E-02 0.22023331E+02</pdfrwt>
<pdfrwt beam="1">  1       -2 0.31919351E-03 0.22023331E+02</pdfrwt>
<totfact> 0.38255592E+06</totfact>
</mgrwt>
</event>
<event>
 4    1  0.3704929E-001  0.3002042E+02  0.7818608E-02  0.1597863E+00
         -2   -1    0    0    0  501 -0.00000000000E+00  0.00000000000E+00  0.27408431281E+02  0.27408431404E+02  0.26000000000E-02 0.  1.
          2   -1    0    0  501    0  0.00000000000E+00 -0.00000000000E+00 -0.82203291954E+01  0.82203296066E+01  0.26000000000E-02 0. -1.
        -13    1    1    2    0    0 -0.14719054821E+02 -0.18381236272E+01  0.68705974571E+01  0.16347646778E+02  0.10570000000E+00 0. -1.
         13    1    1    2    0    0  0.14719054821E+02  0.18381236272E+01  0.12317504629E+02  0.19281114233E+02  0.10570000000E+00 0.  1.
<mgrwt>
<rscale>  0 0.30020416E+02</rscale>
<asrwt>0</asrwt>
<pdfrwt beam="2">  1        2 0.12646661E-02 0.30020416E+02</pdfrwt>
<pdfrwt beam="1">  1       -2 0.42166818E-02 0.30020416E+02</pdfrwt>
<totfact> 0.14675745E+06</totfact>
</mgrwt>
</event>
<event>
 4    1  0.3704929E-001  0.4212512E+02  0.7818608E-02  0.1493131E+00
         -2   -1    0    0    0  501 -0.00000000000E+00  0.00000000000E+00  0.91963645672E+02  0.91963645709E+02  0.26000000000E-02 0. -1.
          2   -1    0    0  501    0  0.00000000000E+00 -0.00000000000E+00 -0.48239856973E+01  0.48239863980E+01  0.26000000000E-02 0.  1.
        -13    1    1    2    0    0 -0.10456490923E+01  0.18474050632E+02  0.20452015612E+02  0.27580428638E+02  0.10570000000E+00 0.  1.
         13    1    1    2    0    0  0.10456490923E+01 -0.18474050632E+02  0.66687644363E+02  0.69207203469E+02  0.10570000000E+00 0. -1.
<mgrwt>
<rscale>  0 0.42125116E+02</rscale>
<asrwt>0</asrwt>
<pdfrwt beam="2">  1        2 0.74215170E-03 0.42125116E+02</pdfrwt>
<pdfrwt beam="1">  1       -2 0.14148253E-01 0.42125116E+02</pdfrwt>
<totfact> 0.54557563E+05</totfact>
</mgrwt>
</event>
<event>
 4    1  0.3704929E-001  0.2229656E+02  0.7818608E-02  0.1703173E+00
         -2   -1    0    0    0  501 -0.00000000000E+00  0.00000000000E+00  0.51890194756E+01  0.51890201270E+01  0.26000000000E-02 0.  1.
          2   -1    0    0  501    0  0.00000000000E+00 -0.00000000000E+00 -0.23951364231E+02  0.23951364372E+02  0.26000000000E-02 0. -1.
        -13    1    1    2    0    0 -0.41091630232E+01 -0.91446789245E+01 -0.15752121072E+02  0.18672194947E+02  0.10570000000E+00 0. -1.
         13    1    1    2    0    0  0.41091630232E+01  0.91446789245E+01 -0.30102236834E+01  0.10468189552E+02  0.10570000000E+00 0.  1.
<mgrwt>
<rscale>  0 0.22296556E+02</rscale>
<asrwt>0</asrwt>
<pdfrwt beam="2">  1        2 0.36848253E-02 0.22296556E+02</pdfrwt>
<pdfrwt beam="1">  1       -2 0.79831076E-03 0.22296556E+02</pdfrwt>
<totfact> 0.33100233E+06</totfact>
</mgrwt>
</event>
<event>
 4    1  0.3704929E-001  0.2442339E+02  0.7818608E-02  0.1669425E+00
         -2   -1    0    0    0  501 -0.00000000000E+00  0.00000000000E+00  0.42403527729E+01  0.42403535700E+01  0.26000000000E-02 0. -1.
          2   -1    0    0  501    0  0.00000000000E+00 -0.00000000000E+00 -0.35168187114E+02  0.35168187210E+02  0.26000000000E-02 0.  1.
        -13    1    1    2    0    0  0.74947978901E+01 -0.83257476770E+01 -0.76212501435E+01  0.13549343011E+02  0.10570000000E+00 0. -1.
         13    1    1    2    0    0 -0.74947978901E+01  0.83257476770E+01 -0.23306584197E+02  0.25859197769E+02  0.10570000000E+00 0.  1.
<mgrwt>
<rscale>  0 0.24423393E+02</rscale>
<asrwt>0</asrwt>
<pdfrwt beam="2">  1        2 0.54104902E-02 0.24423393E+02</pdfrwt>
<pdfrwt beam="1">  1       -2 0.65236206E-03 0.24423393E+02</pdfrwt>
<totfact> 0.28021450E+06</totfact>
</mgrwt>
</event>
<event>
 4    1  0.3704929E-001  0.3852905E+02  0.7818608E-02  0.1519324E+00
          2   -1    0    0  501    0  0.00000000000E+00  0.00000000000E+00  0.17745948614E+02  0.17745948804E+02  0.26000000000E-02 0. -1.
         -2   -1    0    0    0  501 -0.00000000000E+00 -0.00000000000E+00 -0.20913047216E+02  0.20913047378E+02  0.26000000000E-02 0.  1.
        -13    1    1    2    0    0  0.30849603080E+01 -0.10150812627E+02  0.14550320148E+02  0.18007747388E+02  0.10570000000E+00 0. -1.
         13    1    1    2    0    0 -0.30849603080E+01  0.10150812627E+02 -0.17717418750E+02  0.20651248794E+02  0.10570000000E+00 0.  1.
<mgrwt>
<rscale>  0 0.38529047E+02</rscale>
<asrwt>0</asrwt>
<pdfrwt beam="1">  1        2 0.27301460E-02 0.38529047E+02</pdfrwt>
<pdfrwt beam="2">  1       -2 0.32173919E-02 0.38529047E+02</pdfrwt>
<totfact> 0.85420310E+05</totfact>
</mgrwt>
</event>
<event>
 4    1  0.3704929E-001  0.6099811E+02  0.7818608E-02  0.1393690E+00
         -2   -1    0    0    0  501 -0.00000000000E+00  0.00000000000E+00  0.26568329862E+02  0.26568329989E+02  0.26000000000E-02 0.  1.
          2   -1    0    0  501    0  0.00000000000E+00 -0.00000000000E+00 -0.35011324635E+02  0.35011324732E+02  0.26000000000E-02 0. -1.
        -13    1    1    2    0    0 -0.13209949082E+02  0.11767129778E+01 -0.31947747493E+02  0.34591287206E+02  0.10570000000E+00 0. -1.
         13    1    1    2    0    0  0.13209949082E+02 -0.11767129778E+01  0.23504752720E+02  0.26988367514E+02  0.10570000000E+00 0.  1.
<mgrwt>
<rscale>  0 0.60998112E+02</rscale>
<asrwt>0</asrwt>
<pdfrwt beam="2">  1        2 0.53863577E-02 0.60998112E+02</pdfrwt>
<pdfrwt beam="1">  1       -2 0.40874354E-02 0.60998112E+02</pdfrwt>
<totfact> 0.28443536E+05</totfact>
</mgrwt>
</event>
<event>
 4    1  0.3704929E-001  0.7285663E+02  0.7818608E-02  0.1350640E+00
          2   -1    0    0  501    0  0.00000000000E+00  0.00000000000E+00  0.43302730055E+02  0.43302730133E+02  0.26000000000E-02 0. -1.
         -2   -1    0    0    0  501 -0.00000000000E+00 -0.00000000000E+00 -0.30645229885E+02  0.30645229995E+02  0.26000000000E-02 0.  1.
        -13    1    1    2    0    0 -0.24751093592E+02 -0.11477765369E+02  0.30828572798E+02  0.41167557677E+02  0.10570000000E+00 0. -1.
         13    1    1    2    0    0  0.24751093592E+02  0.11477765369E+02 -0.18171072628E+02  0.32780402450E+02  0.10570000000E+00 0.  1.
<mgrwt>
<rscale>  0 0.72856630E+02</rscale>
<asrwt>0</asrwt>
<pdfrwt beam="1">  1        2 0.66619585E-02 0.72856630E+02</pdfrwt>
<pdfrwt beam="2">  1       -2 0.47146508E-02 0.72856630E+02</pdfrwt>
<totfact> 0.18307351E+05</totfact>
</mgrwt>
</event>
<event>
 4    1  0.3704929E-001  0.2206844E+02  0.7818608E-02  0.1707071E+00
          2   -1    0    0  501    0  0.00000000000E+00  0.00000000000E+00  0.15011308620E+02  0.15011308845E+02  0.26000000000E-02 0.  1.
         -2   -1    0    0    0  501 -0.00000000000E+00 -0.00000000000E+00 -0.81108171083E+01  0.81108175250E+01  0.26000000000E-02 0. -1.
        -13    1    1    2    0    0  0.24301736343E+01 -0.98684168082E+01 -0.10503610426E+01  0.10217916862E+02  0.10570000000E+00 0.  1.
         13    1    1    2    0    0 -0.24301736343E+01  0.98684168082E+01  0.79508525544E+01  0.12904209508E+02  0.10570000000E+00 0. -1.
<mgrwt>
<rscale>  0 0.22068438E+02</rscale>
<asrwt>0</asrwt>
<pdfrwt beam="1">  1        2 0.23094321E-02 0.22068438E+02</pdfrwt>
<pdfrwt beam="2">  1       -2 0.12478181E-02 0.22068438E+02</pdfrwt>
<totfact> 0.32483483E+06</totfact>
</mgrwt>
</event>
<event>
 4    1  0.3704929E-001  0.3060309E+02  0.7818608E-02  0.1591516E+00
         -2   -1    0    0    0  501 -0.00000000000E+00  0.00000000000E+00  0.22818751601E+01  0.22818766413E+01  0.26000000000E-02 0.  1.
          2   -1    0    0  501    0  0.00000000000E+00 -0.00000000000E+00 -0.10260739859E+03  0.10260739862E+03  0.26000000000E-02 0. -1.
        -13    1    1    2    0    0 -0.72126123874E+01  0.12588705837E+02 -0.33502286434E+02  0.36509062723E+02  0.10570000000E+00 0. -1.
         13    1    1    2    0    0  0.72126123874E+01 -0.12588705837E+02 -0.66823236996E+02  0.68380212542E+02  0.10570000000E+00 0.  1.
<mgrwt>
<rscale>  0 0.30603095E+02</rscale>
<asrwt>0</asrwt>
<pdfrwt beam="2">  1        2 0.15785750E-01 0.30603095E+02</pdfrwt>
<pdfrwt beam="1">  1       -2 0.35105791E-03 0.30603095E+02</pdfrwt>
<totfact> 0.20059450E+06</totfact>
</mgrwt>
</event>
<event>
 4    1  0.3704929E-001  0.2779868E+02  0.7818608E-02  0.1623779E+00
         -2   -1    0    0    0  501 -0.00000000000E+00  0.00000000000E+00  0.11704574658E+03  0.11704574661E+03  0.26000000000E-02 0.  1.
          2   -1    0    0  501    0  0.00000000000E+00 -0.00000000000E+00 -0.16505642192E+01  0.16505662670E+01  0.26000000000E-02 0. -1.
        -13    1    1    2    0    0  0.58458879028E+01 -0.12596513230E+02  0.60164965407E+02  0.61746909120E+02  0.10570000000E+00 0. -1.
         13    1    1    2    0    0 -0.58458879028E+01  0.12596513230E+02  0.55230216954E+02  0.56949403757E+02  0.10570000000E+00 0.  1.
<mgrwt>
<rscale>  0 0.27798679E+02</rscale>
<asrwt>0</asrwt>
<pdfrwt beam="2">  1        2 0.25393313E-03 0.27798679E+02</pdfrwt>
<pdfrwt beam="1">  1       -2 0.18007037E-01 0.27798679E+02</pdfrwt>
<totfact> 0.13656312E+06</totfact>
</mgrwt>
</event>
<event>
 4    1  0.3704929E-001  0.2649320E+02  0.7818608E-02  0.1640437E+00
          2   -1    0    0  501    0  0.00000000000E+00  0.00000000000E+00  0.40727482902E+01  0.40727491201E+01  0.26000000000E-02 0.  1.
         -2   -1    0    0    0  501 -0.00000000000E+00 -0.00000000000E+00 -0.43084523806E+02  0.43084523884E+02  0.26000000000E-02 0. -1.
        -13    1    1    2    0    0 -0.50022749846E+01 -0.93715008969E+01 -0.54211693949E+01  0.11926778030E+02  0.10570000000E+00 0.  1.
         13    1    1    2    0    0  0.50022749846E+01  0.93715008969E+01 -0.33590606121E+02  0.35230494974E+02  0.10570000000E+00 0. -1.
<mgrwt>
<rscale>  0 0.26493202E+02</rscale>
<asrwt>0</asrwt>
<pdfrwt beam="1">  1        2 0.62657676E-03 0.26493202E+02</pdfrwt>
<pdfrwt beam="2">  1       -2 0.66283880E-02 0.26493202E+02</pdfrwt>
<totfact> 0.18478101E+06</totfact>
</mgrwt>
</event>
<event>
 4    1  0.3704929E-001  0.2533534E+02  0.7818608E-02  0.1656232E+00
         -2   -1    0    0    0  501 -0.00000000000E+00  0.00000000000E+00  0.12096667458E+02  0.12096667738E+02  0.26000000000E-02 0. -1.
          2   -1    0    0  501    0  0.00000000000E+00 -0.00000000000E+00 -0.13265620486E+02  0.13265620740E+02  0.26000000000E-02 0.  1.
        -13    1    1    2    0    0 -0.10318796605E+02 -0.49642091786E+01 -0.60066672825E+01  0.12931054113E+02  0.10570000000E+00 0.  1.
         13    1    1    2    0    0  0.10318796605E+02  0.49642091786E+01  0.48377142555E+01  0.12431234365E+02  0.10570000000E+00 0. -1.
<mgrwt>
<rscale>  0 0.25335336E+02</rscale>
<asrwt>0</asrwt>
<pdfrwt beam="2">  1        2 0.20408647E-02 0.25335336E+02</pdfrwt>
<pdfrwt beam="1">  1       -2 0.18610258E-02 0.25335336E+02</pdfrwt>
<totfact> 0.23258294E+06</totfact>
</mgrwt>
</event>
<event>
 4    1  0.3704929E-001  0.3185818E+02  0.7818608E-02  0.1578413E+00
         -2   -1    0    0    0  501 -0.00000000000E+00  0.00000000000E+00  0.54626735835E+01  0.54626742022E+01  0.26000000000E-02 0.  1.
          2   -1    0    0  501    0  0.00000000000E+00 -0.00000000000E+00 -0.46449037474E+02  0.46449037547E+02  0.26000000000E-02 0. -1.
        -13    1    1    2    0    0 -0.12839560183E+02 -0.16278550254E+01 -0.53628042985E+01  0.14009820132E+02  0.10570000000E+00 0. -1.
         13    1    1    2    0    0  0.12839560183E+02  0.16278550254E+01 -0.35623559592E+02  0.37901891618E+02  0.10570000000E+00 0.  1.
<mgrwt>
<rscale>  0 0.31858182E+02</rscale>
<asrwt>0</asrwt>
<pdfrwt beam="2">  1        2 0.71460056E-02 0.31858182E+02</pdfrwt>
<pdfrwt beam="1">  1       -2 0.84041140E-03 0.31858182E+02</pdfrwt>
<totfact> 0.15557646E+06</totfact>
</mgrwt>
</event>
<event>
 4    1  0.3704929E-001  0.3123970E+02  0.7818608E-02  0.1584776E+00
         -2   -1    0    0    0  501 -0.00000000000E+00  0.00000000000E+00  0.90933088110E+02  0.90933088147E+02  0.26000000000E-02 0. -1.
          2   -1    0    0  501    0  0.00000000000E+00 -0.00000000000E+00 -0.26830677501E+01  0.26830690098E+01  0.26000000000E-02 0.  1.
        -13    1    1    2    0    0  0.78159117737E+01 -0.11468924504E+02  0.65597779153E+02  0.67050014977E+02  0.10570000000E+00 0. -1.
         13    1    1    2    0    0 -0.78159117737E+01  0.11468924504E+02  0.22652241207E+02  0.26566142180E+02  0.10570000000E+00 0.  1.
<mgrwt>
<rscale>  0 0.31239699E+02</rscale>
<asrwt>0</asrwt>
<pdfrwt beam="2">  1        2 0.41277975E-03 0.31239699E+02</pdfrwt>
<pdfrwt beam="1">  1       -2 0.13989706E-01 0.31239699E+02</pdfrwt>
<totfact> 0.11101073E+06</totfact>
</mgrwt>
</event>
<event>
 4    1  0.3704929E-001  0.4054324E+02  0.7818608E-02  0.1504251E+00
          2   -1    0    0  501    0  0.00000000000E+00  0.00000000000E+00  0.94995863733E+02  0.94995863769E+02  0.26000000000E-02 0.  1.
         -2   -1    0    0    0  501 -0.00000000000E+00 -0.00000000000E+00 -0.43258575738E+01  0.43258583551E+01  0.26000000000E-02 0. -1.
        -13    1    1    2    0    0 -0.24160965667E+01 -0.18042959811E+02  0.23486448048E+02  0.29715489829E+02  0.10570000000E+00 0. -1.
         13    1    1    2    0    0  0.24160965667E+01  0.18042959811E+02  0.67183558111E+02  0.69606232295E+02  0.10570000000E+00 0.  1.
<mgrwt>
<rscale>  0 0.40543242E+02</rscale>
<asrwt>0</asrwt>
<pdfrwt beam="1">  1        2 0.14614747E-01 0.40543242E+02</pdfrwt>
<pdfrwt beam="2">  1       -2 0.66551668E-03 0.40543242E+02</pdfrwt>
<totfact> 0.99794003E+05</totfact>
</mgrwt>
</event>
<event>
 4    1  0.3704929E-001  0.3631189E+02  0.7818608E-02  0.1537250E+00
          2   -1    0    0  501    0  0.00000000000E+00  0.00000000000E+00  0.35601143788E+02  0.35601143883E+02  0.26000000000E-02 0.  1.
         -2   -1    0    0    0  501 -0.00000000000E+00 -0.00000000000E+00 -0.92592054397E+01  0.92592058048E+01  0.26000000000E-02 0. -1.
        -13    1    1    2    0    0  0.14490205106E+02  0.95337176613E+00  0.26633744947E+02  0.30335499075E+02  0.10570000000E+00 0.  1.
         13    1    1    2    0    0 -0.14490205106E+02 -0.95337176613E+00 -0.29180659846E+00  0.14524850613E+02  0.10570000000E+00 0. -1.
<mgrwt>
<rscale>  0 0.36311889E+02</rscale>
<asrwt>0</asrwt>
<pdfrwt beam="1">  1        2 0.54770990E-02 0.36311889E+02</pdfrwt>
<pdfrwt beam="2">  1       -2 0.14244932E-02 0.36311889E+02</pdfrwt>
<totfact> 0.10862221E+06</totfact>
</mgrwt>
</event>
<event>
 4    1  0.3704929E-001  0.2756009E+02  0.7818608E-02  0.1626738E+00
         -2   -1    0    0    0  501 -0.00000000000E+00  0.00000000000E+00  0.56224819696E+02  0.56224819756E+02  0.26000000000E-02 0. -1.
          2   -1    0    0  501    0  0.00000000000E+00 -0.00000000000E+00 -0.33773281899E+01  0.33773291907E+01  0.26000000000E-02 0.  1.
        -13    1    1    2    0    0  0.10759944328E+02 -0.39924217981E+01  0.99306008284E+01  0.15177082693E+02  0.10570000000E+00 0.  1.
         13    1    1    2    0    0 -0.10759944328E+02  0.39924217981E+01  0.42916890678E+02  0.44425066254E+02  0.10570000000E+00 0. -1.
<mgrwt>
<rscale>  0 0.27560094E+02</rscale>
<asrwt>0</asrwt>
<pdfrwt beam="2">  1        2 0.51958909E-03 0.27560094E+02</pdfrwt>
<pdfrwt beam="1">  1       -2 0.86499714E-02 0.27560094E+02</pdfrwt>
<totfact> 0.16245543E+06</totfact>
</mgrwt>
</event>
<event>
 4    1  0.3704929E-001  0.2759906E+02  0.7818608E-02  0.1626252E+00
          2   -1    0    0  501    0  0.00000000000E+00  0.00000000000E+00  0.30928138146E+01  0.30928149074E+01  0.26000000000E-02 0.  1.
         -2   -1    0    0    0  501 -0.00000000000E+00 -0.00000000000E+00 -0.61570787495E+02  0.61570787550E+02  0.26000000000E-02 0. -1.
        -13    1    1    2    0    0 -0.99891163024E+01  0.92879869701E+00 -0.51437966154E+02  0.52407257571E+02  0.10570000000E+00 0. -1.
         13    1    1    2    0    0  0.99891163024E+01 -0.92879869701E+00 -0.70400075264E+01  0.12256344887E+02  0.10570000000E+00 0.  1.
<mgrwt>
<rscale>  0 0.27599059E+02</rscale>
<asrwt>0</asrwt>
<pdfrwt beam="1">  1        2 0.47581765E-03 0.27599059E+02</pdfrwt>
<pdfrwt beam="2">  1       -2 0.94724280E-02 0.27599059E+02</pdfrwt>
<totfact> 0.15953323E+06</totfact>
</mgrwt>
</event>
<event>
 4    1  0.3704929E-001  0.3384365E+02  0.7818608E-02  0.1559116E+00
          2   -1    0    0  501    0  0.00000000000E+00  0.00000000000E+00  0.28083621432E+02  0.28083621552E+02  0.26000000000E-02 0.  1.
         -2   -1    0    0    0  501 -0.00000000000E+00 -0.00000000000E+00 -0.10196270926E+02  0.10196271257E+02  0.26000000000E-02 0. -1.
        -13    1    1    2    0    0  0.92826871113E+01 -0.12295562401E+02  0.16860261476E+02  0.22839192724E+02  0.10570000000E+00 0.  1.
         13    1    1    2    0    0 -0.92826871113E+01  0.12295562401E+02  0.10270890305E+01  0.15440700085E+02  0.10570000000E+00 0. -1.
<mgrwt>
<rscale>  0 0.33843654E+02</rscale>
<asrwt>0</asrwt>
<pdfrwt beam="1">  1        2 0.43205572E-02 0.33843654E+02</pdfrwt>
<pdfrwt beam="2">  1       -2 0.15686571E-02 0.33843654E+02</pdfrwt>
<totfact> 0.12507519E+06</totfact>
</mgrwt>
</event>
<event>
 4    1  0.3704929E-001  0.2372666E+02  0.7818608E-02  0.1679995E+00
          2   -1    0    0  501    0  0.00000000000E+00  0.00000000000E+00  0.10419752582E+02  0.10419752906E+02  0.26000000000E-02 0.  1.
         -2   -1    0    0    0  501 -0.00000000000E+00 -0.00000000000E+00 -0.13506903423E+02  0.13506903673E+02  0.26000000000E-02 0. -1.
        -13    1    1    2    0    0 -0.10059740062E+02  0.23107502276E+01  0.43528894727E+01  0.11202533463E+02  0.10570000000E+00 0.  1.
         13    1    1    2    0    0  0.10059740062E+02 -0.23107502276E+01 -0.74400403138E+01  0.12724123117E+02  0.10570000000E+00 0. -1.
<mgrwt>
<rscale>  0 0.23726660E+02</rscale>
<asrwt>0</asrwt>
<pdfrwt beam="1">  1        2 0.16030389E-02 0.23726660E+02</pdfrwt>
<pdfrwt beam="2">  1       -2 0.20779852E-02 0.23726660E+02</pdfrwt>
<totfact> 0.26609977E+06</totfact>
</mgrwt>
</event>
<event>
 4    1  0.3704929E-001  0.2228305E+02  0.7818608E-02  0.1703402E+00
          2   -1    0    0  501    0  0.00000000000E+00  0.00000000000E+00  0.54762656836E+02  0.54762656898E+02  0.26000000000E-02 0. -1.
         -2   -1    0    0    0  501 -0.00000000000E+00 -0.00000000000E+00 -0.22667560570E+01  0.22667575481E+01  0.26000000000E-02 0.  1.
        -13    1    1    2    0    0  0.37955333630E+01 -0.92753779194E+01  0.38703112852E+02  0.39979755202E+02  0.10570000000E+00 0. -1.
         13    1    1    2    0    0 -0.37955333630E+01  0.92753779194E+01  0.13792787927E+02  0.17049659245E+02  0.10570000000E+00 0.  1.
<mgrwt>
<rscale>  0 0.22283054E+02</rscale>
<asrwt>0</asrwt>
<pdfrwt beam="1">  1        2 0.84250240E-02 0.22283054E+02</pdfrwt>
<pdfrwt beam="2">  1       -2 0.34873183E-03 0.22283054E+02</pdfrwt>
<totfact> 0.36852485E+06</totfact>
</mgrwt>
</event>
<event>
 4    1  0.3704929E-001  0.2976280E+02  0.7818608E-02  0.1600725E+00
         -2   -1    0    0    0  501 -0.00000000000E+00  0.00000000000E+00  0.90725137140E+02  0.90725137177E+02  0.26000000000E-02 0.  1.
          2   -1    0    0  501    0  0.00000000000E+00 -0.00000000000E+00 -0.24409551999E+01  0.24409565846E+01  0.26000000000E-02 0. -1.
        -13    1    1    2    0    0  0.38242331348E+01 -0.11655314043E+02  0.70513484952E+02  0.71572577409E+02  0.10570000000E+00 0.  1.
         13    1    1    2    0    0 -0.38242331348E+01  0.11655314043E+02  0.17770696988E+02  0.21593516352E+02  0.10570000000E+00 0. -1.
<mgrwt>
<rscale>  0 0.29762800E+02</rscale>
<asrwt>0</asrwt>
<pdfrwt beam="2">  1        2 0.37553170E-03 0.29762800E+02</pdfrwt>
<pdfrwt beam="1">  1       -2 0.13957713E-01 0.29762800E+02</pdfrwt>
<totfact> 0.12429687E+06</totfact>
</mgrwt>
</event>
<event>
 4    1  0.3704929E-001  0.2625870E+02  0.7818608E-02  0.1643554E+00
          2   -1    0    0  501    0  0.00000000000E+00  0.00000000000E+00  0.27139468687E+01  0.27139481142E+01  0.26000000000E-02 0. -1.
         -2   -1    0    0    0  501 -0.00000000000E+00 -0.00000000000E+00 -0.63516253940E+02  0.63516253993E+02  0.26000000000E-02 0.  1.
        -13    1    1    2    0    0 -0.11918393786E+02  0.55020232828E+01 -0.30955114561E+02  0.33623662213E+02  0.10570000000E+00 0. -1.
         13    1    1    2    0    0  0.11918393786E+02 -0.55020232828E+01 -0.29847192511E+02  0.32606539895E+02  0.10570000000E+00 0.  1.
<mgrwt>
<rscale>  0 0.26258696E+02</rscale>
<asrwt>0</asrwt>
<pdfrwt beam="1">  1        2 0.41753044E-03 0.26258696E+02</pdfrwt>
<pdfrwt beam="2">  1       -2 0.97717303E-02 0.26258696E+02</pdfrwt>
<totfact> 0.17778216E+06</totfact>
</mgrwt>
</event>
<event>
 4    1  0.3704929E-001  0.3834958E+02  0.7818608E-02  0.1520720E+00
          2   -1    0    0  501    0  0.00000000000E+00  0.00000000000E+00  0.63836757664E+02  0.63836757717E+02  0.26000000000E-02 0. -1.
         -2   -1    0    0    0  501 -0.00000000000E+00 -0.00000000000E+00 -0.57595748757E+01  0.57595754626E+01  0.26000000000E-02 0.  1.
        -13    1    1    2    0    0 -0.70491129333E+01 -0.10735292868E+02  0.31993770883E+01  0.13235697652E+02  0.10570000000E+00 0.  1.
         13    1    1    2    0    0  0.70491129333E+01  0.10735292868E+02  0.54877805700E+02  0.56360635527E+02  0.10570000000E+00 0. -1.
<mgrwt>
<rscale>  0 0.38349582E+02</rscale>
<asrwt>0</asrwt>
<pdfrwt beam="1">  1        2 0.98210401E-02 0.38349582E+02</pdfrwt>
<pdfrwt beam="2">  1       -2 0.88608845E-03 0.38349582E+02</pdfrwt>
<totfact> 0.10481751E+06</totfact>
</mgrwt>
</event>
<event>
 4    1  0.3704929E-001  0.3183430E+02  0.7818608E-02  0.1578655E+00
          2   -1    0    0  501    0  0.00000000000E+00  0.00000000000E+00  0.84736703577E+02  0.84736703617E+02  0.26000000000E-02 0.  1.
         -2   -1    0    0    0  501 -0.00000000000E+00 -0.00000000000E+00 -0.29899161631E+01  0.29899172935E+01  0.26000000000E-02 0. -1.
        -13    1    1    2    0    0 -0.26419919307E-01  0.13259844748E+02  0.16610427032E+02  0.21254214628E+02  0.10570000000E+00 0. -1.
         13    1    1    2    0    0  0.26419919307E-01 -0.13259844748E+02  0.65136360381E+02  0.66472406282E+02  0.10570000000E+00 0.  1.
<mgrwt>
<rscale>  0 0.31834302E+02</rscale>
<asrwt>0</asrwt>
<pdfrwt beam="1">  1        2 0.13036418E-01 0.31834302E+02</pdfrwt>
<pdfrwt beam="2">  1       -2 0.45998712E-03 0.31834302E+02</pdfrwt>
<totfact> 0.17466531E+06</totfact>
</mgrwt>
</event>
<event>
 4    1  0.3704929E-001  0.3231373E+02  0.7818608E-02  0.1573837E+00
         -2   -1    0    0    0  501 -0.00000000000E+00  0.00000000000E+00  0.87422557641E+02  0.87422557680E+02  0.26000000000E-02 0. -1.
          2   -1    0    0  501    0  0.00000000000E+00 -0.00000000000E+00 -0.29860053566E+01  0.29860064885E+01  0.26000000000E-02 0.  1.
        -13    1    1    2    0    0  0.34388581870E+01 -0.14159866015E+02  0.61744206396E+02  0.63440410995E+02  0.10570000000E+00 0.  1.
         13    1    1    2    0    0 -0.34388581870E+01  0.14159866015E+02  0.22692345888E+02  0.26968153174E+02  0.10570000000E+00 0. -1.
<mgrwt>
<rscale>  0 0.32313729E+02</rscale>
<asrwt>0</asrwt>
<pdfrwt beam="2">  1        2 0.45938551E-03 0.32313729E+02</pdfrwt>
<pdfrwt beam="1">  1       -2 0.13449625E-01 0.32313729E+02</pdfrwt>
<totfact> 0.10349403E+06</totfact>
</mgrwt>
</event>
<event>
 4    1  0.3704929E-001  0.4396838E+02  0.7818608E-02  0.1480887E+00
         -2   -1    0    0    0  501 -0.00000000000E+00  0.00000000000E+00  0.23212189099E+02  0.23212189245E+02  0.26000000000E-02 0. -1.
          2   -1    0    0  501    0  0.00000000000E+00 -0.00000000000E+00 -0.20821154169E+02  0.20821154331E+02  0.26000000000E-02 0.  1.
        -13    1    1    2    0    0 -0.11542557775E+02  0.45323007665E+01 -0.16984017579E+02  0.21029512972E+02  0.10570000000E+00 0.  1.
         13    1    1    2    0    0  0.11542557775E+02 -0.45323007665E+01  0.19375052509E+02  0.23003830604E+02  0.10570000000E+00 0. -1.
<mgrwt>
<rscale>  0 0.43968378E+02</rscale>
<asrwt>0</asrwt>
<pdfrwt beam="2">  1        2 0.32032545E-02 0.43968378E+02</pdfrwt>
<pdfrwt beam="1">  1       -2 0.35711060E-02 0.43968378E+02</pdfrwt>
<totfact> 0.62128972E+05</totfact>
</mgrwt>
</event>
<event>
 4    1  0.3704929E-001  0.2648227E+02  0.7818608E-02  0.1640581E+00
          2   -1    0    0  501    0  0.00000000000E+00  0.00000000000E+00  0.15318643327E+01  0.15318665392E+01  0.26000000000E-02 0.  1.
         -2   -1    0    0    0  501 -0.00000000000E+00 -0.00000000000E+00 -0.11445367906E+03  0.11445367909E+03  0.26000000000E-02 0. -1.
        -13    1    1    2    0    0  0.12882643689E+02  0.24367832679E+01 -0.64555788206E+02  0.65873829283E+02  0.10570000000E+00 0. -1.
         13    1    1    2    0    0 -0.12882643689E+02 -0.24367832679E+01 -0.48366026525E+02  0.50111716349E+02  0.10570000000E+00 0.  1.
<mgrwt>
<rscale>  0 0.26482269E+02</rscale>
<asrwt>0</asrwt>
<pdfrwt beam="1">  1        2 0.23567170E-03 0.26482269E+02</pdfrwt>
<pdfrwt beam="2">  1       -2 0.17608252E-01 0.26482269E+02</pdfrwt>
<totfact> 0.15351218E+06</totfact>
</mgrwt>
</event>
<event>
 4    1  0.3704929E-001  0.1503964E+03  0.7818608E-02  0.1199987E+00
         -2   -1    0    0    0  501 -0.00000000000E+00  0.00000000000E+00  0.52583548677E+02  0.52583548741E+02  0.26000000000E-02 0.  1.
          2   -1    0    0  501    0  0.00000000000E+00 -0.00000000000E+00 -0.10753874570E+03  0.10753874573E+03  0.26000000000E-02 0. -1.
        -13    1    1    2    0    0  0.52818360124E+02  0.25462049882E+01  0.29444791514E+02  0.60524947301E+02  0.10570000000E+00 0.  1.
         13    1    1    2    0    0 -0.52818360124E+02 -0.25462049882E+01 -0.84399988538E+02  0.99597347172E+02  0.10570000000E+00 0. -1.
<mgrwt>
<rscale>  0 0.15039639E+03</rscale>
<asrwt>0</asrwt>
<pdfrwt beam="2">  1        2 0.16544422E-01 0.15039639E+03</pdfrwt>
<pdfrwt beam="1">  1       -2 0.80897767E-02 0.15039639E+03</pdfrwt>
<totfact> 0.29967354E+04</totfact>
</mgrwt>
</event>
<event>
 4    1  0.3704929E-001  0.3362540E+02  0.7818608E-02  0.1561157E+00
          2   -1    0    0  501    0  0.00000000000E+00  0.00000000000E+00  0.11875363117E+03  0.11875363120E+03  0.26000000000E-02 0.  1.
         -2   -1    0    0    0  501 -0.00000000000E+00 -0.00000000000E+00 -0.23802786634E+01  0.23802800834E+01  0.26000000000E-02 0. -1.
        -13    1    1    2    0    0 -0.16134954449E+02  0.46734129824E+01  0.55695753262E+02  0.58173925842E+02  0.10570000000E+00 0.  1.
         13    1    1    2    0    0  0.16134954449E+02 -0.46734129824E+01  0.60677599243E+02  0.62959985438E+02  0.10570000000E+00 0. -1.
<mgrwt>
<rscale>  0 0.33625396E+02</rscale>
<asrwt>0</asrwt>
<pdfrwt beam="1">  1        2 0.18269792E-01 0.33625396E+02</pdfrwt>
<pdfrwt beam="2">  1       -2 0.36619678E-03 0.33625396E+02</pdfrwt>
<totfact> 0.16639094E+06</totfact>
</mgrwt>
</event>
<event>
 4    1  0.3704929E-001  0.4897336E+02  0.7818608E-02  0.1450959E+00
          2   -1    0    0  501    0  0.00000000000E+00  0.00000000000E+00  0.23562108731E+01  0.23562123076E+01  0.26000000000E-02 0. -1.
         -2   -1    0    0    0  501 -0.00000000000E+00 -0.00000000000E+00 -0.25447522326E+03  0.25447522327E+03  0.26000000000E-02 0.  1.
        -13    1    1    2    0    0 -0.12622002652E+02 -0.20915722027E+02 -0.11727795385E+03  0.11979529211E+03  0.10570000000E+00 0. -1.
         13    1    1    2    0    0  0.12622002652E+02  0.20915722027E+02 -0.13484105853E+03  0.13703614347E+03  0.10570000000E+00 0.  1.
<mgrwt>
<rscale>  0 0.48973359E+02</rscale>
<asrwt>0</asrwt>
<pdfrwt beam="1">  1        2 0.36249429E-03 0.48973359E+02</pdfrwt>
<pdfrwt beam="2">  1       -2 0.39150013E-01 0.48973359E+02</pdfrwt>
<totfact> 0.26621648E+05</totfact>
</mgrwt>
</event>
<event>
 4    1  0.3704929E-001  0.2339775E+02  0.7818608E-02  0.1685143E+00
         -2   -1    0    0    0  501 -0.00000000000E+00  0.00000000000E+00  0.73821003822E+01  0.73821008401E+01  0.26000000000E-02 0. -1.
          2   -1    0    0  501    0  0.00000000000E+00 -0.00000000000E+00 -0.18539934307E+02  0.18539934489E+02  0.26000000000E-02 0.  1.
        -13    1    1    2    0    0 -0.17892185302E+01 -0.11282936384E+02 -0.83699397288E+01  0.14162380448E+02  0.10570000000E+00 0.  1.
         13    1    1    2    0    0  0.17892185302E+01  0.11282936384E+02 -0.27878941957E+01  0.11759654881E+02  0.10570000000E+00 0. -1.
<mgrwt>
<rscale>  0 0.23397749E+02</rscale>
<asrwt>0</asrwt>
<pdfrwt beam="2">  1        2 0.28522976E-02 0.23397749E+02</pdfrwt>
<pdfrwt beam="1">  1       -2 0.11357078E-02 0.23397749E+02</pdfrwt>
<totfact> 0.28896741E+06</totfact>
</mgrwt>
</event>
<event>
 4    1  0.3704929E-001  0.2342781E+02  0.7818608E-02  0.1684668E+00
         -2   -1    0    0    0  501 -0.00000000000E+00  0.00000000000E+00  0.16049430144E+01  0.16049451204E+01  0.26000000000E-02 0. -1.
          2   -1    0    0  501    0  0.00000000000E+00 -0.00000000000E+00 -0.85495530090E+02  0.85495530130E+02  0.26000000000E-02 0.  1.
        -13    1    1    2    0    0 -0.15306155629E+01 -0.10382305142E+02 -0.61288462555E+02  0.62180558529E+02  0.10570000000E+00 0.  1.
         13    1    1    2    0    0  0.15306155629E+01  0.10382305142E+02 -0.22602124521E+02  0.24919916721E+02  0.10570000000E+00 0. -1.
<mgrwt>
<rscale>  0 0.23427808E+02</rscale>
<asrwt>0</asrwt>
<pdfrwt beam="2">  1        2 0.13153155E-01 0.23427808E+02</pdfrwt>
<pdfrwt beam="1">  1       -2 0.24691454E-03 0.23427808E+02</pdfrwt>
<totfact> 0.35758992E+06</totfact>
</mgrwt>
</event>
<event>
 4    1  0.3704929E-001  0.6073066E+02  0.7818608E-02  0.1394791E+00
          2   -1    0    0  501    0  0.00000000000E+00  0.00000000000E+00  0.65887345918E+01  0.65887351048E+01  0.26000000000E-02 0. -1.
         -2   -1    0    0    0  501 -0.00000000000E+00 -0.00000000000E+00 -0.13994388089E+03  0.13994388091E+03  0.26000000000E-02 0.  1.
        -13    1    1    2    0    0  0.22529480154E+02 -0.19132410816E+02 -0.49888844479E+02  0.57987365827E+02  0.10570000000E+00 0. -1.
         13    1    1    2    0    0 -0.22529480154E+02  0.19132410816E+02 -0.83466301818E+02  0.88545250190E+02  0.10570000000E+00 0.  1.
<mgrwt>
<rscale>  0 0.60730655E+02</rscale>
<asrwt>0</asrwt>
<pdfrwt beam="1">  1        2 0.10136516E-02 0.60730655E+02</pdfrwt>
<pdfrwt beam="2">  1       -2 0.21529826E-01 0.60730655E+02</pdfrwt>
<totfact> 0.19857099E+05</totfact>
</mgrwt>
</event>
<event>
 4    1  0.3704929E-001  0.2711984E+02  0.7818608E-02  0.1632297E+00
         -2   -1    0    0    0  501 -0.00000000000E+00  0.00000000000E+00  0.24055582846E+01  0.24055596897E+01  0.26000000000E-02 0. -1.
          2   -1    0    0  501    0  0.00000000000E+00 -0.00000000000E+00 -0.76436035833E+02  0.76436035877E+02  0.26000000000E-02 0.  1.
        -13    1    1    2    0    0  0.11940202074E+02  0.17585492619E+01 -0.54983085749E+02  0.56292200277E+02  0.10570000000E+00 0. -1.
         13    1    1    2    0    0 -0.11940202074E+02 -0.17585492619E+01 -0.19047391800E+02  0.22549395290E+02  0.10570000000E+00 0.  1.
<mgrwt>
<rscale>  0 0.27119837E+02</rscale>
<asrwt>0</asrwt>
<pdfrwt beam="2">  1        2 0.11759388E-01 0.27119837E+02</pdfrwt>
<pdfrwt beam="1">  1       -2 0.37008606E-03 0.27119837E+02</pdfrwt>
<totfact> 0.24936134E+06</totfact>
</mgrwt>
</event>
<event>
 4    1  0.3704929E-001  0.5806413E+02  0.7818608E-02  0.1406140E+00
          2   -1    0    0  501    0  0.00000000000E+00  0.00000000000E+00  0.51092766018E+02  0.51092766085E+02  0.26000000000E-02 0.  1.
         -2   -1    0    0    0  501 -0.00000000000E+00 -0.00000000000E+00 -0.16496673965E+02  0.16496674170E+02  0.26000000000E-02 0. -1.
        -13    1    1    2    0    0  0.13254876473E+02  0.23514853879E+02  0.48580012694E+01  0.27427202776E+02  0.10570000000E+00 0. -1.
         13    1    1    2    0    0 -0.13254876473E+02 -0.23514853879E+02  0.29738090784E+02  0.40162237478E+02  0.10570000000E+00 0.  1.
<mgrwt>
<rscale>  0 0.58064127E+02</rscale>
<asrwt>0</asrwt>
<pdfrwt beam="1">  1        2 0.78604254E-02 0.58064127E+02</pdfrwt>
<pdfrwt beam="2">  1       -2 0.25379499E-02 0.58064127E+02</pdfrwt>
<totfact> 0.34908159E+05</totfact>
</mgrwt>
</event>
<event>
 4    1  0.3704929E-001  0.3786376E+02  0.7818608E-02  0.1524547E+00
          2   -1    0    0  501    0  0.00000000000E+00  0.00000000000E+00  0.25664351148E+02  0.25664351280E+02  0.26000000000E-02 0. -1.
         -2   -1    0    0    0  501 -0.00000000000E+00 -0.00000000000E+00 -0.13965525200E+02  0.13965525442E+02  0.26000000000E-02 0.  1.
        -13    1    1    2    0    0 -0.15258452121E+02 -0.11090474471E+02  0.41663027075E+01  0.19318080543E+02  0.10570000000E+00 0. -1.
         13    1    1    2    0    0  0.15258452121E+02  0.11090474471E+02  0.75325232409E+01  0.20311796178E+02  0.10570000000E+00 0.  1.
<mgrwt>
<rscale>  0 0.37863764E+02</rscale>
<asrwt>0</asrwt>
<pdfrwt beam="1">  1        2 0.39483617E-02 0.37863764E+02</pdfrwt>
<pdfrwt beam="2">  1       -2 0.21485424E-02 0.37863764E+02</pdfrwt>
<totfact> 0.93568992E+05</totfact>
</mgrwt>
</event>
<event>
 4    1  0.3704929E-001  0.3058204E+02  0.7818608E-02  0.1591743E+00
         -2   -1    0    0    0  501 -0.00000000000E+00  0.00000000000E+00  0.68170767831E+02  0.68170767880E+02  0.26000000000E-02 0. -1.
          2   -1    0    0  501    0  0.00000000000E+00 -0.00000000000E+00 -0.34298453460E+01  0.34298463315E+01  0.26000000000E-02 0.  1.
        -13    1    1    2    0    0  0.14707908932E+01  0.12948243373E+02  0.51098204583E+02  0.52733840334E+02  0.10570000000E+00 0. -1.
         13    1    1    2    0    0 -0.14707908932E+01 -0.12948243373E+02  0.13642717902E+02  0.18866773878E+02  0.10570000000E+00 0.  1.
<mgrwt>
<rscale>  0 0.30582036E+02</rscale>
<asrwt>0</asrwt>
<pdfrwt beam="2">  1        2 0.52766861E-03 0.30582036E+02</pdfrwt>
<pdfrwt beam="1">  1       -2 0.10487810E-01 0.30582036E+02</pdfrwt>
<totfact> 0.12369265E+06</totfact>
</mgrwt>
</event>
<event>
 4    1  0.3704929E-001  0.3059052E+02  0.7818608E-02  0.1591651E+00
         -2   -1    0    0    0  501 -0.00000000000E+00  0.00000000000E+00  0.84298190349E+01  0.84298194358E+01  0.26000000000E-02 0. -1.
          2   -1    0    0  501    0  0.00000000000E+00 -0.00000000000E+00 -0.27752082546E+02  0.27752082668E+02  0.26000000000E-02 0.  1.
        -13    1    1    2    0    0 -0.11263157201E+02 -0.97857371777E+01 -0.13639658847E+02  0.20215608529E+02  0.10570000000E+00 0.  1.
         13    1    1    2    0    0  0.11263157201E+02  0.97857371777E+01 -0.56826046644E+01  0.15966293575E+02  0.10570000000E+00 0. -1.
<mgrwt>
<rscale>  0 0.30590524E+02</rscale>
<asrwt>0</asrwt>
<pdfrwt beam="2">  1        2 0.42695512E-02 0.30590524E+02</pdfrwt>
<pdfrwt beam="1">  1       -2 0.12968953E-02 0.30590524E+02</pdfrwt>
<totfact> 0.15974639E+06</totfact>
</mgrwt>
</event>
<event>
 4    1  0.3704929E-001  0.2460651E+02  0.7818608E-02  0.1666719E+00
         -2   -1    0    0    0  501 -0.00000000000E+00  0.00000000000E+00  0.15568390814E+01  0.15568412525E+01  0.26000000000E-02 0. -1.
          2   -1    0    0  501    0  0.00000000000E+00 -0.00000000000E+00 -0.97229035980E+02  0.97229036015E+02  0.26000000000E-02 0.  1.
        -13    1    1    2    0    0  0.86809899983E+01 -0.72141604899E+01 -0.67485293441E+02  0.68422801041E+02  0.10570000000E+00 0.  1.
         13    1    1    2    0    0 -0.86809899983E+01  0.72141604899E+01 -0.28186903457E+02  0.30363076226E+02  0.10570000000E+00 0. -1.
<mgrwt>
<rscale>  0 0.24606509E+02</rscale>
<asrwt>0</asrwt>
<pdfrwt beam="2">  1        2 0.14958309E-01 0.24606509E+02</pdfrwt>
<pdfrwt beam="1">  1       -2 0.23951395E-03 0.24606509E+02</pdfrwt>
<totfact> 0.32899228E+06</totfact>
</mgrwt>
</event>
<event>
 4    1  0.3704929E-001  0.3683449E+02  0.7818608E-02  0.1532888E+00
          2   -1    0    0  501    0  0.00000000000E+00  0.00000000000E+00  0.73711685968E+01  0.73711690553E+01  0.26000000000E-02 0. -1.
         -2   -1    0    0    0  501 -0.00000000000E+00 -0.00000000000E+00 -0.46016428599E+02  0.46016428673E+02  0.26000000000E-02 0.  1.
        -13    1    1    2    0    0  0.12058106218E+02  0.10464922311E+02 -0.60173119352E+01  0.17062583039E+02  0.10570000000E+00 0. -1.
         13    1    1    2    0    0 -0.12058106218E+02 -0.10464922311E+02 -0.32627948067E+02  0.36325014689E+02  0.10570000000E+00 0.  1.
<mgrwt>
<rscale>  0 0.36834488E+02</rscale>
<asrwt>0</asrwt>
<pdfrwt beam="1">  1        2 0.11340260E-02 0.36834488E+02</pdfrwt>
<pdfrwt beam="2">  1       -2 0.70794504E-02 0.36834488E+02</pdfrwt>
<totfact> 0.85433854E+05</totfact>
</mgrwt>
</event>
<event>
 4    1  0.3704929E-001  0.2142488E+02  0.7818608E-02  0.1718392E+00
          2   -1    0    0  501    0  0.00000000000E+00  0.00000000000E+00  0.22911216275E+01  0.22911231028E+01  0.26000000000E-02 0. -1.
         -2   -1    0    0    0  501 -0.00000000000E+00 -0.00000000000E+00 -0.50087399422E+02  0.50087399490E+02  0.26000000000E-02 0.  1.
        -13    1    1    2    0    0  0.87428504120E+01 -0.55681499314E+01 -0.17291214540E+02  0.20160332332E+02  0.10570000000E+00 0. -1.
         13    1    1    2    0    0 -0.87428504120E+01  0.55681499314E+01 -0.30505063255E+02  0.32218190261E+02  0.10570000000E+00 0.  1.
<mgrwt>
<rscale>  0 0.21424879E+02</rscale>
<asrwt>0</asrwt>
<pdfrwt beam="1">  1        2 0.35248041E-03 0.21424879E+02</pdfrwt>
<pdfrwt beam="2">  1       -2 0.77057531E-02 0.21424879E+02</pdfrwt>
<totfact> 0.29131228E+06</totfact>
</mgrwt>
</event>
<event>
 4    1  0.3704929E-001  0.2263038E+02  0.7818608E-02  0.1697573E+00
         -2   -1    0    0    0  501 -0.00000000000E+00  0.00000000000E+00  0.79760096916E+01  0.79760101154E+01  0.26000000000E-02 0. -1.
          2   -1    0    0  501    0  0.00000000000E+00 -0.00000000000E+00 -0.16052328025E+02  0.16052328236E+02  0.26000000000E-02 0.  1.
        -13    1    1    2    0    0  0.21574389852E+00 -0.10073585641E+02 -0.95038372588E+01  0.13851273162E+02  0.10570000000E+00 0.  1.
         13    1    1    2    0    0 -0.21574389852E+00  0.10073585641E+02  0.14275189249E+01  0.10177065189E+02  0.10570000000E+00 0. -1.
<mgrwt>
<rscale>  0 0.22630381E+02</rscale>
<asrwt>0</asrwt>
<pdfrwt beam="2">  1        2 0.24695890E-02 0.22630381E+02</pdfrwt>
<pdfrwt beam="1">  1       -2 0.12270785E-02 0.22630381E+02</pdfrwt>
<totfact> 0.30822872E+06</totfact>
</mgrwt>
</event>
<event>
 4    1  0.3704929E-001  0.4110391E+02  0.7818608E-02  0.1500242E+00
          2   -1    0    0  501    0  0.00000000000E+00  0.00000000000E+00  0.60207889120E+02  0.60207889176E+02  0.26000000000E-02 0.  1.
         -2   -1    0    0    0  501 -0.00000000000E+00 -0.00000000000E+00 -0.70154063001E+01  0.70154067819E+01  0.26000000000E-02 0. -1.
        -13    1    1    2    0    0  0.53249773234E+00 -0.19448198005E+02  0.15765712642E+02  0.25041661827E+02  0.10570000000E+00 0. -1.
         13    1    1    2    0    0 -0.53249773234E+00  0.19448198005E+02  0.37426770178E+02  0.42181634131E+02  0.10570000000E+00 0.  1.
<mgrwt>
<rscale>  0 0.41103908E+02</rscale>
<asrwt>0</asrwt>
<pdfrwt beam="1">  1        2 0.92627525E-02 0.41103908E+02</pdfrwt>
<pdfrwt beam="2">  1       -2 0.10792933E-02 0.41103908E+02</pdfrwt>
<totfact> 0.87274874E+05</totfact>
</mgrwt>
</event>
<event>
 4    1  0.3704929E-001  0.5956703E+02  0.7818608E-02  0.1399658E+00
         -2   -1    0    0    0  501 -0.00000000000E+00  0.00000000000E+00  0.63275079017E+01  0.63275084359E+01  0.26000000000E-02 0.  1.
          2   -1    0    0  501    0  0.00000000000E+00 -0.00000000000E+00 -0.14019068224E+03  0.14019068227E+03  0.26000000000E-02 0. -1.
        -13    1    1    2    0    0  0.19249528788E+02 -0.64551713593E+01 -0.12053050609E+03  0.12222858776E+03  0.10570000000E+00 0. -1.
         13    1    1    2    0    0 -0.19249528788E+02  0.64551713593E+01 -0.13332668254E+02  0.24289602942E+02  0.10570000000E+00 0.  1.
<mgrwt>
<rscale>  0 0.59567027E+02</rscale>
<asrwt>0</asrwt>
<pdfrwt beam="2">  1        2 0.21567795E-01 0.59567027E+02</pdfrwt>
<pdfrwt beam="1">  1       -2 0.97346291E-03 0.59567027E+02</pdfrwt>
<totfact> 0.42135998E+05</totfact>
</mgrwt>
</event>
<event>
 4    1  0.3704929E-001  0.2773743E+02  0.7818608E-02  0.1624535E+00
         -2   -1    0    0    0  501 -0.00000000000E+00  0.00000000000E+00  0.43769160462E+01  0.43769168185E+01  0.26000000000E-02 0. -1.
          2   -1    0    0  501    0  0.00000000000E+00 -0.00000000000E+00 -0.43944470080E+02  0.43944470157E+02  0.26000000000E-02 0.  1.
        -13    1    1    2    0    0 -0.60570718544E+01  0.89964579067E+01 -0.34841181096E+02  0.36490319908E+02  0.10570000000E+00 0. -1.
         13    1    1    2    0    0  0.60570718544E+01 -0.89964579067E+01 -0.47263729375E+01  0.11831067067E+02  0.10570000000E+00 0.  1.
<mgrwt>
<rscale>  0 0.27737432E+02</rscale>
<asrwt>0</asrwt>
<pdfrwt beam="2">  1        2 0.67606875E-02 0.27737432E+02</pdfrwt>
<pdfrwt beam="1">  1       -2 0.67337180E-03 0.27737432E+02</pdfrwt>
<totfact> 0.21458023E+06</totfact>
</mgrwt>
</event>
<event>
 4    1  0.3704929E-001  0.3330948E+02  0.7818608E-02  0.1564146E+00
         -2   -1    0    0    0  501 -0.00000000000E+00  0.00000000000E+00  0.74706522446E+01  0.74706526970E+01  0.26000000000E-02 0.  1.
          2   -1    0    0  501    0  0.00000000000E+00 -0.00000000000E+00 -0.37129336924E+02  0.37129337015E+02  0.26000000000E-02 0. -1.
        -13    1    1    2    0    0  0.14209854754E+02  0.15291250368E+01 -0.26278097906E+02  0.29913338122E+02  0.10570000000E+00 0. -1.
         13    1    1    2    0    0 -0.14209854754E+02 -0.15291250368E+01 -0.33805867732E+01  0.14686651590E+02  0.10570000000E+00 0.  1.
<mgrwt>
<rscale>  0 0.33309481E+02</rscale>
<asrwt>0</asrwt>
<pdfrwt beam="2">  1        2 0.57122056E-02 0.33309481E+02</pdfrwt>
<pdfrwt beam="1">  1       -2 0.11493312E-02 0.33309481E+02</pdfrwt>
<totfact> 0.13502715E+06</totfact>
</mgrwt>
</event>
<event>
 4    1  0.3704929E-001  0.3658455E+02  0.7818608E-02  0.1534963E+00
          2   -1    0    0  501    0  0.00000000000E+00  0.00000000000E+00  0.73185252108E+02  0.73185252154E+02  0.26000000000E-02 0.  1.
         -2   -1    0    0    0  501 -0.00000000000E+00 -0.00000000000E+00 -0.45720602348E+01  0.45720609740E+01  0.26000000000E-02 0. -1.
        -13    1    1    2    0    0  0.16281082053E+02  0.83312937671E+01  0.35018372566E+02  0.39506729533E+02  0.10570000000E+00 0.  1.
         13    1    1    2    0    0 -0.16281082053E+02 -0.83312937671E+01  0.33594819306E+02  0.38250583595E+02  0.10570000000E+00 0. -1.
<mgrwt>
<rscale>  0 0.36584555E+02</rscale>
<asrwt>0</asrwt>
<pdfrwt beam="1">  1        2 0.11259269E-01 0.36584555E+02</pdfrwt>
<pdfrwt beam="2">  1       -2 0.70339399E-03 0.36584555E+02</pdfrwt>
<totfact> 0.12098373E+06</totfact>
</mgrwt>
</event>
<event>
 4    1  0.3704929E-001  0.2929477E+02  0.7818608E-02  0.1606017E+00
          2   -1    0    0  501    0  0.00000000000E+00  0.00000000000E+00  0.24439820906E+01  0.24439834736E+01  0.26000000000E-02 0. -1.
         -2   -1    0    0    0  501 -0.00000000000E+00 -0.00000000000E+00 -0.87785337801E+02  0.87785337840E+02  0.26000000000E-02 0.  1.
        -13    1    1    2    0    0 -0.56714365569E+01 -0.11598092826E+02 -0.63977346378E+02  0.65267089501E+02  0.10570000000E+00 0.  1.
         13    1    1    2    0    0  0.56714365569E+01  0.11598092826E+02 -0.21364009332E+02  0.24962231812E+02  0.10570000000E+00 0. -1.
<mgrwt>
<rscale>  0 0.29294768E+02</rscale>
<asrwt>0</asrwt>
<pdfrwt beam="1">  1        2 0.37599742E-03 0.29294768E+02</pdfrwt>
<pdfrwt beam="2">  1       -2 0.13505434E-01 0.29294768E+02</pdfrwt>
<totfact> 0.12988766E+06</totfact>
</mgrwt>
</event>
<event>
 4    1  0.3704929E-001  0.4587023E+02  0.7818608E-02  0.1468981E+00
          2   -1    0    0  501    0  0.00000000000E+00  0.00000000000E+00  0.56100497212E+02  0.56100497273E+02  0.26000000000E-02 0.  1.
         -2   -1    0    0    0  501 -0.00000000000E+00 -0.00000000000E+00 -0.93763791091E+01  0.93763794696E+01  0.26000000000E-02 0. -1.
        -13    1    1    2    0    0 -0.48187696648E+01  0.21145950853E+02  0.12714813200E+02  0.25140593187E+02  0.10570000000E+00 0. -1.
         13    1    1    2    0    0  0.48187696648E+01 -0.21145950853E+02  0.34009304903E+02  0.40336283555E+02  0.10570000000E+00 0.  1.
<mgrwt>
<rscale>  0 0.45870232E+02</rscale>
<asrwt>0</asrwt>
<pdfrwt beam="1">  1        2 0.86308457E-02 0.45870232E+02</pdfrwt>
<pdfrwt beam="2">  1       -2 0.14425199E-02 0.45870232E+02</pdfrwt>
<totfact> 0.65353090E+05</totfact>
</mgrwt>
</event>
<event>
 4    1  0.3704929E-001  0.5406189E+02  0.7818608E-02  0.1424588E+00
          2   -1    0    0  501    0  0.00000000000E+00  0.00000000000E+00  0.11787507938E+02  0.11787508225E+02  0.26000000000E-02 0. -1.
         -2   -1    0    0    0  501 -0.00000000000E+00 -0.00000000000E+00 -0.61986966823E+02  0.61986966877E+02  0.26000000000E-02 0.  1.
        -13    1    1    2    0    0  0.68775224597E+01 -0.96705029722E+01  0.80425744710E+01  0.14335728776E+02  0.10570000000E+00 0. -1.
         13    1    1    2    0    0 -0.68775224597E+01  0.96705029722E+01 -0.58242033356E+02  0.59438746326E+02  0.10570000000E+00 0.  1.
<mgrwt>
<rscale>  0 0.54061886E+02</rscale>
<asrwt>0</asrwt>
<pdfrwt beam="1">  1        2 0.18134628E-02 0.54061886E+02</pdfrwt>
<pdfrwt beam="2">  1       -2 0.95364562E-02 0.54061886E+02</pdfrwt>
<totfact> 0.32448741E+05</totfact>
</mgrwt>
</event>
<event>
 4    1  0.3704929E-001  0.2342117E+02  0.7818608E-02  0.1684773E+00
          2   -1    0    0  501    0  0.00000000000E+00  0.00000000000E+00  0.12980318846E+03  0.12980318849E+03  0.26000000000E-02 0.  1.
         -2   -1    0    0    0  501 -0.00000000000E+00 -0.00000000000E+00 -0.10565040671E+01  0.10565072663E+01  0.26000000000E-02 0. -1.
        -13    1    1    2    0    0 -0.79301805772E+01  0.86002856164E+01  0.61448923053E+02  0.62552649772E+02  0.10570000000E+00 0.  1.
         13    1    1    2    0    0  0.79301805772E+01 -0.86002856164E+01  0.67297761344E+02  0.68307045985E+02  0.10570000000E+00 0. -1.
<mgrwt>
<rscale>  0 0.23421171E+02</rscale>
<asrwt>0</asrwt>
<pdfrwt beam="1">  1        2 0.19969721E-01 0.23421171E+02</pdfrwt>
<pdfrwt beam="2">  1       -2 0.16253934E-03 0.23421171E+02</pdfrwt>
<totfact> 0.39524707E+06</totfact>
</mgrwt>
</event>
<event>
 4    1  0.3704929E-001  0.2191367E+02  0.7818608E-02  0.1709749E+00
         -2   -1    0    0    0  501 -0.00000000000E+00  0.00000000000E+00  0.43939960335E+02  0.43939960412E+02  0.26000000000E-02 0.  1.
          2   -1    0    0  501    0  0.00000000000E+00 -0.00000000000E+00 -0.27321864873E+01  0.27321877245E+01  0.26000000000E-02 0. -1.
        -13    1    1    2    0    0 -0.78413586937E+01  0.72276698517E+01  0.15251762533E+02  0.18610576308E+02  0.10570000000E+00 0.  1.
         13    1    1    2    0    0  0.78413586937E+01 -0.72276698517E+01  0.25956011315E+02  0.28061571829E+02  0.10570000000E+00 0. -1.
<mgrwt>
<rscale>  0 0.21913667E+02</rscale>
<asrwt>0</asrwt>
<pdfrwt beam="2">  1        2 0.42033650E-03 0.21913667E+02</pdfrwt>
<pdfrwt beam="1">  1       -2 0.67599938E-02 0.21913667E+02</pdfrwt>
<totfact> 0.28217430E+06</totfact>
</mgrwt>
</event>
<event>
 4    1  0.3704929E-001  0.3273591E+02  0.7818608E-02  0.1569677E+00
         -2   -1    0    0    0  501 -0.00000000000E+00  0.00000000000E+00  0.26495357493E+02  0.26495357621E+02  0.26000000000E-02 0. -1.
          2   -1    0    0  501    0  0.00000000000E+00 -0.00000000000E+00 -0.10111581989E+02  0.10111582323E+02  0.26000000000E-02 0.  1.
        -13    1    1    2    0    0  0.96806556436E+01 -0.80275526223E+01 -0.35226633967E+01  0.13060513952E+02  0.10570000000E+00 0.  1.
         13    1    1    2    0    0 -0.96806556436E+01  0.80275526223E+01  0.19906438901E+02  0.23546425992E+02  0.10570000000E+00 0. -1.
<mgrwt>
<rscale>  0 0.32735912E+02</rscale>
<asrwt>0</asrwt>
<pdfrwt beam="2">  1        2 0.15556280E-02 0.32735912E+02</pdfrwt>
<pdfrwt beam="1">  1       -2 0.40762089E-02 0.32735912E+02</pdfrwt>
<totfact> 0.12079350E+06</totfact>
</mgrwt>
</event>
<event>
 4    1  0.3704929E-001  0.3185146E+02  0.7818608E-02  0.1578481E+00
          2   -1    0    0  501    0  0.00000000000E+00  0.00000000000E+00  0.65810767358E+02  0.65810767409E+02  0.26000000000E-02 0.  1.
         -2   -1    0    0    0  501 -0.00000000000E+00 -0.00000000000E+00 -0.38539115948E+01  0.38539124719E+01  0.26000000000E-02 0. -1.
        -13    1    1    2    0    0  0.47108285019E+01 -0.14834786725E+02  0.23608289655E+02  0.28277646919E+02  0.10570000000E+00 0. -1.
         13    1    1    2    0    0 -0.47108285019E+01  0.14834786725E+02  0.38348566107E+02  0.41387032961E+02  0.10570000000E+00 0.  1.
<mgrwt>
<rscale>  0 0.31851462E+02</rscale>
<asrwt>0</asrwt>
<pdfrwt beam="1">  1        2 0.10124733E-01 0.31851462E+02</pdfrwt>
<pdfrwt beam="2">  1       -2 0.59290956E-03 0.31851462E+02</pdfrwt>
<totfact> 0.16550256E+06</totfact>
</mgrwt>
</event>
<event>
 4    1  0.3704929E-001  0.6310435E+03  0.7818608E-02  0.9843015E-01
         -2   -1    0    0    0  501 -0.00000000000E+00  0.00000000000E+00  0.17968409448E+03  0.17968409449E+03  0.26000000000E-02 0. -1.
          2   -1    0    0  501    0  0.00000000000E+00 -0.00000000000E+00 -0.55404999059E+03  0.55404999060E+03  0.26000000000E-02 0.  1.
        -13    1    1    2    0    0  0.13955728469E+03  0.26714093965E+03 -0.78646829582E+02  0.31148973068E+03  0.10570000000E+00 0. -1.
         13    1    1    2    0    0 -0.13955728469E+03 -0.26714093965E+03 -0.29571906654E+03  0.42224435441E+03  0.10570000000E+00 0.  1.
<mgrwt>
<rscale>  0 0.63104349E+03</rscale>
<asrwt>0</asrwt>
<pdfrwt beam="2">  1        2 0.85238459E-01 0.63104349E+03</pdfrwt>
<pdfrwt beam="1">  1       -2 0.27643707E-01 0.63104349E+03</pdfrwt>
<totfact> 0.65478942E+02</totfact>
</mgrwt>
</event>
<event>
 4    1  0.3704929E-001  0.2705801E+02  0.7818608E-02  0.1633088E+00
          2   -1    0    0  501    0  0.00000000000E+00  0.00000000000E+00  0.83362809141E+02  0.83362809181E+02  0.26000000000E-02 0.  1.
         -2   -1    0    0    0  501 -0.00000000000E+00 -0.00000000000E+00 -0.21956296643E+01  0.21956312037E+01  0.26000000000E-02 0. -1.
        -13    1    1    2    0    0  0.63376653235E+01 -0.11410730937E+02  0.29336345246E+02  0.32109237100E+02  0.10570000000E+00 0. -1.
         13    1    1    2    0    0 -0.63376653235E+01  0.11410730937E+02  0.51830834231E+02  0.53449203285E+02  0.10570000000E+00 0.  1.
<mgrwt>
<rscale>  0 0.27058006E+02</rscale>
<asrwt>0</asrwt>
<pdfrwt beam="1">  1        2 0.12825047E-01 0.27058006E+02</pdfrwt>
<pdfrwt beam="2">  1       -2 0.33778931E-03 0.27058006E+02</pdfrwt>
<totfact> 0.25530538E+06</totfact>
</mgrwt>
</event>
<event>
 4    1  0.3704929E-001  0.2674210E+02  0.7818608E-02  0.1637171E+00
         -2   -1    0    0    0  501 -0.00000000000E+00  0.00000000000E+00  0.30463967074E+01  0.30463978169E+01  0.26000000000E-02 0.  1.
          2   -1    0    0  501    0  0.00000000000E+00 -0.00000000000E+00 -0.58687353887E+02  0.58687353945E+02  0.26000000000E-02 0. -1.
        -13    1    1    2    0    0 -0.11002332683E+02 -0.38540251817E+01 -0.42935152009E+02  0.44489811026E+02  0.10570000000E+00 0. -1.
         13    1    1    2    0    0  0.11002332683E+02  0.38540251817E+01 -0.12705805170E+02  0.17243940736E+02  0.10570000000E+00 0.  1.
<mgrwt>
<rscale>  0 0.26742101E+02</rscale>
<asrwt>0</asrwt>
<pdfrwt beam="2">  1        2 0.90288229E-02 0.26742101E+02</pdfrwt>
<pdfrwt beam="1">  1       -2 0.46867655E-03 0.26742101E+02</pdfrwt>
<totfact> 0.24501435E+06</totfact>
</mgrwt>
</event>
<event>
 4    1  0.3704929E-001  0.3879295E+02  0.7818608E-02  0.1517287E+00
          2   -1    0    0  501    0  0.00000000000E+00  0.00000000000E+00  0.38261016504E+02  0.38261016593E+02  0.26000000000E-02 0.  1.
         -2   -1    0    0    0  501 -0.00000000000E+00 -0.00000000000E+00 -0.98330681756E+01  0.98330685193E+01  0.26000000000E-02 0. -1.
        -13    1    1    2    0    0  0.13490390176E+02 -0.60666895969E+00  0.31475355263E+02  0.34250077894E+02  0.10570000000E+00 0.  1.
         13    1    1    2    0    0 -0.13490390176E+02  0.60666895969E+00 -0.30474069343E+01  0.13844007218E+02  0.10570000000E+00 0. -1.
<mgrwt>
<rscale>  0 0.38792948E+02</rscale>
<asrwt>0</asrwt>
<pdfrwt beam="1">  1        2 0.58863103E-02 0.38792948E+02</pdfrwt>
<pdfrwt beam="2">  1       -2 0.15127798E-02 0.38792948E+02</pdfrwt>
<totfact> 0.93183536E+05</totfact>
</mgrwt>
</event>
<event>
 4    1  0.3704929E-001  0.3741524E+02  0.7818608E-02  0.1528142E+00
          2   -1    0    0  501    0  0.00000000000E+00  0.00000000000E+00  0.36956762661E+02  0.36956762752E+02  0.26000000000E-02 0. -1.
         -2   -1    0    0    0  501 -0.00000000000E+00 -0.00000000000E+00 -0.94698493490E+01  0.94698497059E+01  0.26000000000E-02 0.  1.
        -13    1    1    2    0    0  0.11175029507E+02 -0.11777058130E+02  0.25276229051E+02  0.30041293417E+02  0.10570000000E+00 0. -1.
         13    1    1    2    0    0 -0.11175029507E+02  0.11777058130E+02  0.22106842607E+01  0.16385319040E+02  0.10570000000E+00 0.  1.
<mgrwt>
<rscale>  0 0.37415237E+02</rscale>
<asrwt>0</asrwt>
<pdfrwt beam="1">  1        2 0.56856559E-02 0.37415237E+02</pdfrwt>
<pdfrwt beam="2">  1       -2 0.14568999E-02 0.37415237E+02</pdfrwt>
<totfact> 0.10141640E+06</totfact>
</mgrwt>
</event>
<event>
 4    1  0.3704929E-001  0.4150125E+02  0.7818608E-02  0.1497446E+00
         -2   -1    0    0    0  501 -0.00000000000E+00  0.00000000000E+00  0.16876805879E+02  0.16876806079E+02  0.26000000000E-02 0.  1.
          2   -1    0    0  501    0  0.00000000000E+00 -0.00000000000E+00 -0.25513616975E+02  0.25513617107E+02  0.26000000000E-02 0. -1.
        -13    1    1    2    0    0 -0.11529933178E+02  0.44681927195E+01 -0.21338952288E+02  0.24663052579E+02  0.10570000000E+00 0. -1.
         13    1    1    2    0    0  0.11529933178E+02 -0.44681927195E+01  0.12702141193E+02  0.17727370607E+02  0.10570000000E+00 0.  1.
<mgrwt>
<rscale>  0 0.41501247E+02</rscale>
<asrwt>0</asrwt>
<pdfrwt beam="2">  1        2 0.39251718E-02 0.41501247E+02</pdfrwt>
<pdfrwt beam="1">  1       -2 0.25964317E-02 0.41501247E+02</pdfrwt>
<totfact> 0.74143580E+05</totfact>
</mgrwt>
</event>
<event>
 4    1  0.3704929E-001  0.2125974E+03  0.7818608E-02  0.1139525E+00
          2   -1    0    0  501    0  0.00000000000E+00  0.00000000000E+00  0.52216348827E+03  0.52216348828E+03  0.26000000000E-02 0. -1.
         -2   -1    0    0    0  501 -0.00000000000E+00 -0.00000000000E+00 -0.21639611107E+02  0.21639611264E+02  0.26000000000E-02 0.  1.
        -13    1    1    2    0    0 -0.80811150469E+02  0.11494255481E+02  0.76083282133E+02  0.11158511075E+03  0.10570000000E+00 0.  1.
         13    1    1    2    0    0  0.80811150469E+02 -0.11494255481E+02  0.42444059503E+03  0.43221798879E+03  0.10570000000E+00 0. -1.
<mgrwt>
<rscale>  0 0.21259741E+03</rscale>
<asrwt>0</asrwt>
<pdfrwt beam="1">  1        2 0.80332836E-01 0.21259741E+03</pdfrwt>
<pdfrwt beam="2">  1       -2 0.33291713E-02 0.21259741E+03</pdfrwt>
<totfact> 0.20953375E+04</totfact>
</mgrwt>
</event>
<event>
 4    1  0.3704929E-001  0.4277102E+02  0.7818608E-02  0.1488757E+00
          2   -1    0    0  501    0  0.00000000000E+00  0.00000000000E+00  0.35716450952E+02  0.35716451046E+02  0.26000000000E-02 0.  1.
         -2   -1    0    0    0  501 -0.00000000000E+00 -0.00000000000E+00 -0.12804747403E+02  0.12804747667E+02  0.26000000000E-02 0. -1.
        -13    1    1    2    0    0 -0.96341348426E+01 -0.18043020881E+02  0.18536963374E+02  0.27604299308E+02  0.10570000000E+00 0.  1.
         13    1    1    2    0    0  0.96341348426E+01  0.18043020881E+02  0.43747401749E+01  0.20916899406E+02  0.10570000000E+00 0. -1.
<mgrwt>
<rscale>  0 0.42771025E+02</rscale>
<asrwt>0</asrwt>
<pdfrwt beam="1">  1        2 0.54948386E-02 0.42771025E+02</pdfrwt>
<pdfrwt beam="2">  1       -2 0.19699612E-02 0.42771025E+02</pdfrwt>
<totfact> 0.72149197E+05</totfact>
</mgrwt>
</event>
<event>
 4    1  0.3704929E-001  0.4348798E+02  0.7818608E-02  0.1484008E+00
         -2   -1    0    0    0  501 -0.00000000000E+00  0.00000000000E+00  0.25913089325E+02  0.25913089456E+02  0.26000000000E-02 0.  1.
          2   -1    0    0  501    0  0.00000000000E+00 -0.00000000000E+00 -0.18245649474E+02  0.18245649660E+02  0.26000000000E-02 0. -1.
        -13    1    1    2    0    0  0.26145632952E+01  0.16162556608E+02  0.18362652092E+02  0.24602080027E+02  0.10570000000E+00 0.  1.
         13    1    1    2    0    0 -0.26145632952E+01 -0.16162556608E+02 -0.10695212241E+02  0.19556659088E+02  0.10570000000E+00 0. -1.
<mgrwt>
<rscale>  0 0.43487982E+02</rscale>
<asrwt>0</asrwt>
<pdfrwt beam="2">  1        2 0.28070230E-02 0.43487982E+02</pdfrwt>
<pdfrwt beam="1">  1       -2 0.39866291E-02 0.43487982E+02</pdfrwt>
<totfact> 0.62761585E+05</totfact>
</mgrwt>
</event>
<event>
 4    1  0.3704929E-001  0.5383729E+02  0.7818608E-02  0.1425679E+00
          2   -1    0    0  501    0  0.00000000000E+00  0.00000000000E+00  0.21160667870E+02  0.21160668029E+02  0.26000000000E-02 0.  1.
         -2   -1    0    0    0  501 -0.00000000000E+00 -0.00000000000E+00 -0.34243412802E+02  0.34243412901E+02  0.26000000000E-02 0. -1.
        -13    1    1    2    0    0 -0.21649558418E+02  0.56719527049E+01  0.88514626376E+01  0.24067280497E+02  0.10570000000E+00 0.  1.
         13    1    1    2    0    0  0.21649558418E+02 -0.56719527049E+01 -0.21934207570E+02  0.31336800434E+02  0.10570000000E+00 0. -1.
<mgrwt>
<rscale>  0 0.53837292E+02</rscale>
<asrwt>0</asrwt>
<pdfrwt beam="1">  1        2 0.32554874E-02 0.53837292E+02</pdfrwt>
<pdfrwt beam="2">  1       -2 0.52682174E-02 0.53837292E+02</pdfrwt>
<totfact> 0.36440158E+05</totfact>
</mgrwt>
</event>
<event>
 4    1  0.3704929E-001  0.7947114E+02  0.7818608E-02  0.1330559E+00
         -2   -1    0    0    0  501 -0.00000000000E+00  0.00000000000E+00  0.34448718669E+02  0.34448718767E+02  0.26000000000E-02 0.  1.
          2   -1    0    0  501    0  0.00000000000E+00 -0.00000000000E+00 -0.45833793441E+02  0.45833793515E+02  0.26000000000E-02 0. -1.
        -13    1    1    2    0    0 -0.28880268634E+02 -0.27243765271E+02 -0.40599849119E+01  0.39909739570E+02  0.10570000000E+00 0. -1.
         13    1    1    2    0    0  0.28880268634E+02  0.27243765271E+02 -0.73250898599E+01  0.40372772713E+02  0.10570000000E+00 0.  1.
<mgrwt>
<rscale>  0 0.79471138E+02</rscale>
<asrwt>0</asrwt>
<pdfrwt beam="2">  1        2 0.70513529E-02 0.79471138E+02</pdfrwt>
<pdfrwt beam="1">  1       -2 0.52998029E-02 0.79471138E+02</pdfrwt>
<totfact> 0.14574310E+05</totfact>
</mgrwt>
</event>
<event>
 4    1  0.3704929E-001  0.5560314E+02  0.7818608E-02  0.1417268E+00
         -2   -1    0    0    0  501 -0.00000000000E+00  0.00000000000E+00  0.22414803809E+02  0.22414803960E+02  0.26000000000E-02 0.  1.
          2   -1    0    0  501    0  0.00000000000E+00 -0.00000000000E+00 -0.34482887955E+02  0.34482888053E+02  0.26000000000E-02 0. -1.
        -13    1    1    2    0    0 -0.15525696725E+02 -0.25121052232E+01 -0.29492838209E+02  0.33424491164E+02  0.10570000000E+00 0. -1.
         13    1    1    2    0    0  0.15525696725E+02  0.25121052232E+01  0.17424754063E+02  0.23473200849E+02  0.10570000000E+00 0.  1.
<mgrwt>
<rscale>  0 0.55603136E+02</rscale>
<asrwt>0</asrwt>
<pdfrwt beam="2">  1        2 0.53050597E-02 0.55603136E+02</pdfrwt>
<pdfrwt beam="1">  1       -2 0.34484314E-02 0.55603136E+02</pdfrwt>
<totfact> 0.36328308E+05</totfact>
</mgrwt>
</event>
<event>
 4    1  0.3704929E-001  0.4022266E+02  0.7818608E-02  0.1506579E+00
         -2   -1    0    0    0  501 -0.00000000000E+00  0.00000000000E+00  0.84383899798E+02  0.84383899838E+02  0.26000000000E-02 0.  1.
          2   -1    0    0  501    0  0.00000000000E+00 -0.00000000000E+00 -0.47931604183E+01  0.47931611235E+01  0.26000000000E-02 0. -1.
        -13    1    1    2    0    0 -0.56999616917E+01 -0.15255988321E+02  0.65955065438E+02  0.67936121264E+02  0.10570000000E+00 0.  1.
         13    1    1    2    0    0  0.56999616917E+01  0.15255988321E+02  0.13635673942E+02  0.21240939698E+02  0.10570000000E+00 0. -1.
<mgrwt>
<rscale>  0 0.40222660E+02</rscale>
<asrwt>0</asrwt>
<pdfrwt beam="2">  1        2 0.73740939E-03 0.40222660E+02</pdfrwt>
<pdfrwt beam="1">  1       -2 0.12982138E-01 0.40222660E+02</pdfrwt>
<totfact> 0.62141583E+05</totfact>
</mgrwt>
</event>
<event>
 4    1  0.3704929E-001  0.2447227E+02  0.7818608E-02  0.1668700E+00
          2   -1    0    0  501    0  0.00000000000E+00  0.00000000000E+00  0.17133218575E+01  0.17133238303E+01  0.26000000000E-02 0. -1.
         -2   -1    0    0    0  501 -0.00000000000E+00 -0.00000000000E+00 -0.87387499829E+02  0.87387499868E+02  0.26000000000E-02 0.  1.
        -13    1    1    2    0    0  0.95050242749E+01 -0.61435236324E+01 -0.25906577926E+02  0.28271015571E+02  0.10570000000E+00 0.  1.
         13    1    1    2    0    0 -0.95050242749E+01  0.61435236324E+01 -0.59767600045E+02  0.60829808127E+02  0.10570000000E+00 0. -1.
<mgrwt>
<rscale>  0 0.24472270E+02</rscale>
<asrwt>0</asrwt>
<pdfrwt beam="1">  1        2 0.26358820E-03 0.24472270E+02</pdfrwt>
<pdfrwt beam="2">  1       -2 0.13444227E-01 0.24472270E+02</pdfrwt>
<totfact> 0.19602793E+06</totfact>
</mgrwt>
</event>
<event>
 4    1  0.3704929E-001  0.3071860E+02  0.7818608E-02  0.1590279E+00
         -2   -1    0    0    0  501 -0.00000000000E+00  0.00000000000E+00  0.14114392280E+02  0.14114392520E+02  0.26000000000E-02 0. -1.
          2   -1    0    0  501    0  0.00000000000E+00 -0.00000000000E+00 -0.16714014994E+02  0.16714015196E+02  0.26000000000E-02 0.  1.
        -13    1    1    2    0    0  0.11660500411E+02  0.99863095378E+01 -0.84725546122E+00  0.15376041829E+02  0.10570000000E+00 0. -1.
         13    1    1    2    0    0 -0.11660500411E+02 -0.99863095378E+01 -0.17523672523E+01  0.15452365887E+02  0.10570000000E+00 0.  1.
<mgrwt>
<rscale>  0 0.30718605E+02</rscale>
<asrwt>0</asrwt>
<pdfrwt beam="2">  1        2 0.25713870E-02 0.30718605E+02</pdfrwt>
<pdfrwt beam="1">  1       -2 0.21714450E-02 0.30718605E+02</pdfrwt>
<totfact> 0.14941164E+06</totfact>
</mgrwt>
</event>
<event>
 4    1  0.3704929E-001  0.9603609E+02  0.7818608E-02  0.1288859E+00
         -2   -1    0    0    0  501 -0.00000000000E+00  0.00000000000E+00  0.49736023622E+02  0.49736023690E+02  0.26000000000E-02 0.  1.
          2   -1    0    0  501    0  0.00000000000E+00 -0.00000000000E+00 -0.46359409890E+02  0.46359409963E+02  0.26000000000E-02 0. -1.
        -13    1    1    2    0    0 -0.30939911299E+02  0.10669768843E+01  0.38416641251E+02  0.49338281774E+02  0.10570000000E+00 0.  1.
         13    1    1    2    0    0  0.30939911299E+02 -0.10669768843E+01 -0.35040027519E+02  0.46757151880E+02  0.10570000000E+00 0. -1.
<mgrwt>
<rscale>  0 0.96036091E+02</rscale>
<asrwt>0</asrwt>
<pdfrwt beam="2">  1        2 0.71322170E-02 0.96036091E+02</pdfrwt>
<pdfrwt beam="1">  1       -2 0.76516959E-02 0.96036091E+02</pdfrwt>
<totfact> 0.85321638E+04</totfact>
</mgrwt>
</event>
<event>
 4    1  0.3704929E-001  0.2495865E+02  0.7818608E-02  0.1661597E+00
          2   -1    0    0  501    0  0.00000000000E+00  0.00000000000E+00  0.27368401691E+01  0.27368414041E+01  0.26000000000E-02 0.  1.
         -2   -1    0    0    0  501 -0.00000000000E+00 -0.00000000000E+00 -0.56902669505E+02  0.56902669565E+02  0.26000000000E-02 0. -1.
        -13    1    1    2    0    0 -0.12028459098E+02  0.30804533146E+00 -0.34987775580E+02  0.36999112594E+02  0.10570000000E+00 0. -1.
         13    1    1    2    0    0  0.12028459098E+02 -0.30804533146E+00 -0.19178053756E+02  0.22640398375E+02  0.10570000000E+00 0.  1.
<mgrwt>
<rscale>  0 0.24958650E+02</rscale>
<asrwt>0</asrwt>
<pdfrwt beam="1">  1        2 0.42105248E-03 0.24958650E+02</pdfrwt>
<pdfrwt beam="2">  1       -2 0.87542561E-02 0.24958650E+02</pdfrwt>
<totfact> 0.20315574E+06</totfact>
</mgrwt>
</event>
<event>
 4    1  0.3704929E-001  0.2956827E+02  0.7818608E-02  0.1602910E+00
         -2   -1    0    0    0  501 -0.00000000000E+00  0.00000000000E+00  0.48066979521E+02  0.48066979591E+02  0.26000000000E-02 0.  1.
          2   -1    0    0  501    0  0.00000000000E+00 -0.00000000000E+00 -0.45472101556E+01  0.45472108990E+01  0.26000000000E-02 0. -1.
        -13    1    1    2    0    0  0.14439253675E+02 -0.26767643743E+01  0.24791366659E+02  0.28814582203E+02  0.10570000000E+00 0. -1.
         13    1    1    2    0    0 -0.14439253675E+02  0.26767643743E+01  0.18728402706E+02  0.23799608287E+02  0.10570000000E+00 0.  1.
<mgrwt>
<rscale>  0 0.29568272E+02</rscale>
<asrwt>0</asrwt>
<pdfrwt beam="2">  1        2 0.69957085E-03 0.29568272E+02</pdfrwt>
<pdfrwt beam="1">  1       -2 0.73949200E-02 0.29568272E+02</pdfrwt>
<totfact> 0.14158043E+06</totfact>
</mgrwt>
</event>
<event>
 4    1  0.3704929E-001  0.6094649E+02  0.7818608E-02  0.1393902E+00
          2   -1    0    0  501    0  0.00000000000E+00  0.00000000000E+00  0.18544370539E+03  0.18544370541E+03  0.26000000000E-02 0.  1.
         -2   -1    0    0    0  501 -0.00000000000E+00 -0.00000000000E+00 -0.50075500113E+01  0.50075506863E+01  0.26000000000E-02 0. -1.
        -13    1    1    2    0    0 -0.25518976199E+02 -0.63105399433E+01  0.42053506374E+02  0.49593846709E+02  0.10570000000E+00 0. -1.
         13    1    1    2    0    0  0.25518976199E+02  0.63105399433E+01  0.13838264901E+03  0.14085740939E+03  0.10570000000E+00 0.  1.
<mgrwt>
<rscale>  0 0.60946491E+02</rscale>
<asrwt>0</asrwt>
<pdfrwt beam="1">  1        2 0.28529799E-01 0.60946491E+02</pdfrwt>
<pdfrwt beam="2">  1       -2 0.77039241E-03 0.60946491E+02</pdfrwt>
<totfact> 0.43454016E+05</totfact>
</mgrwt>
</event>
<event>
 4    1  0.3704929E-001  0.3036586E+02  0.7818608E-02  0.1594079E+00
         -2   -1    0    0    0  501 -0.00000000000E+00  0.00000000000E+00  0.11530391236E+02  0.11530391529E+02  0.26000000000E-02 0.  1.
          2   -1    0    0  501    0  0.00000000000E+00 -0.00000000000E+00 -0.19992505478E+02  0.19992505647E+02  0.26000000000E-02 0. -1.
        -13    1    1    2    0    0  0.48813014967E+01  0.11395180069E+02 -0.13330491922E+02  0.18204131962E+02  0.10570000000E+00 0. -1.
         13    1    1    2    0    0 -0.48813014967E+01 -0.11395180069E+02  0.48683776802E+01  0.13318765214E+02  0.10570000000E+00 0.  1.
<mgrwt>
<rscale>  0 0.30365864E+02</rscale>
<asrwt>0</asrwt>
<pdfrwt beam="2">  1        2 0.30757701E-02 0.30365864E+02</pdfrwt>
<pdfrwt beam="1">  1       -2 0.17739064E-02 0.30365864E+02</pdfrwt>
<totfact> 0.15664884E+06</totfact>
</mgrwt>
</event>
<event>
 4    1  0.3704929E-001  0.2823362E+02  0.7818608E-02  0.1618477E+00
          2   -1    0    0  501    0  0.00000000000E+00  0.00000000000E+00  0.18517204446E+02  0.18517204629E+02  0.26000000000E-02 0.  1.
         -2   -1    0    0    0  501 -0.00000000000E+00 -0.00000000000E+00 -0.10762117167E+02  0.10762117481E+02  0.26000000000E-02 0. -1.
        -13    1    1    2    0    0 -0.10129058614E+02 -0.69772550886E+00  0.14048365373E+02  0.17333562572E+02  0.10570000000E+00 0.  1.
         13    1    1    2    0    0  0.10129058614E+02  0.69772550886E+00 -0.62932780935E+01  0.11945759538E+02  0.10570000000E+00 0. -1.
<mgrwt>
<rscale>  0 0.28233620E+02</rscale>
<asrwt>0</asrwt>
<pdfrwt beam="1">  1        2 0.28488007E-02 0.28233620E+02</pdfrwt>
<pdfrwt beam="2">  1       -2 0.16557104E-02 0.28233620E+02</pdfrwt>
<totfact> 0.18529901E+06</totfact>
</mgrwt>
</event>
<event>
 4    1  0.3704929E-001  0.2302081E+02  0.7818608E-02  0.1691173E+00
          2   -1    0    0  501    0  0.00000000000E+00  0.00000000000E+00  0.44522401911E+01  0.44522409503E+01  0.26000000000E-02 0.  1.
         -2   -1    0    0    0  501 -0.00000000000E+00 -0.00000000000E+00 -0.29757916776E+02  0.29757916890E+02  0.26000000000E-02 0. -1.
        -13    1    1    2    0    0  0.94821641333E+01  0.52096600553E+01 -0.68161761052E+01  0.12787627760E+02  0.10570000000E+00 0. -1.
         13    1    1    2    0    0 -0.94821641333E+01 -0.52096600553E+01 -0.18489500480E+02  0.21422530080E+02  0.10570000000E+00 0.  1.
<mgrwt>
<rscale>  0 0.23020809E+02</rscale>
<asrwt>0</asrwt>
<pdfrwt beam="1">  1        2 0.68496012E-03 0.23020809E+02</pdfrwt>
<pdfrwt beam="2">  1       -2 0.45781410E-02 0.23020809E+02</pdfrwt>
<totfact> 0.26474305E+06</totfact>
</mgrwt>
</event>
<event>
 4    1  0.3704929E-001  0.2625527E+02  0.7818608E-02  0.1643600E+00
          2   -1    0    0  501    0  0.00000000000E+00  0.00000000000E+00  0.49943189143E+02  0.49943189210E+02  0.26000000000E-02 0. -1.
         -2   -1    0    0    0  501 -0.00000000000E+00 -0.00000000000E+00 -0.34506154164E+01  0.34506163959E+01  0.26000000000E-02 0.  1.
        -13    1    1    2    0    0 -0.11722144785E+02 -0.53682382246E+01  0.18224824949E+02  0.22324472600E+02  0.10570000000E+00 0.  1.
         13    1    1    2    0    0  0.11722144785E+02  0.53682382246E+01  0.28267748778E+02  0.31069333006E+02  0.10570000000E+00 0. -1.
<mgrwt>
<rscale>  0 0.26255267E+02</rscale>
<asrwt>0</asrwt>
<pdfrwt beam="1">  1        2 0.76835677E-02 0.26255267E+02</pdfrwt>
<pdfrwt beam="2">  1       -2 0.53086399E-03 0.26255267E+02</pdfrwt>
<totfact> 0.24894058E+06</totfact>
</mgrwt>
</event>
<event>
 4    1  0.3704929E-001  0.3773933E+02  0.7818608E-02  0.1525539E+00
         -2   -1    0    0    0  501 -0.00000000000E+00  0.00000000000E+00  0.12107628039E+03  0.12107628042E+03  0.26000000000E-02 0.  1.
          2   -1    0    0  501    0  0.00000000000E+00 -0.00000000000E+00 -0.29408249852E+01  0.29408261345E+01  0.26000000000E-02 0. -1.
        -13    1    1    2    0    0  0.26748272877E+01  0.16779128687E+02  0.32097422624E+02  0.36317345334E+02  0.10570000000E+00 0.  1.
         13    1    1    2    0    0 -0.26748272877E+01 -0.16779128687E+02  0.86038032781E+02  0.87699761219E+02  0.10570000000E+00 0. -1.
<mgrwt>
<rscale>  0 0.37739328E+02</rscale>
<asrwt>0</asrwt>
<pdfrwt beam="2">  1        2 0.45243484E-03 0.37739328E+02</pdfrwt>
<pdfrwt beam="1">  1       -2 0.18627115E-01 0.37739328E+02</pdfrwt>
<totfact> 0.66154495E+05</totfact>
</mgrwt>
</event>
<event>
 4    1  0.3704929E-001  0.2574851E+02  0.7818608E-02  0.1650478E+00
          2   -1    0    0  501    0  0.00000000000E+00  0.00000000000E+00  0.54971029922E+02  0.54971029983E+02  0.26000000000E-02 0.  1.
         -2   -1    0    0    0  501 -0.00000000000E+00 -0.00000000000E+00 -0.30151587459E+01  0.30151598669E+01  0.26000000000E-02 0. -1.
        -13    1    1    2    0    0 -0.99072064370E+01 -0.53497755936E+01  0.40035024229E+02  0.41588305758E+02  0.10570000000E+00 0.  1.
         13    1    1    2    0    0  0.99072064370E+01  0.53497755936E+01  0.11920846947E+02  0.16397884092E+02  0.10570000000E+00 0. -1.
<mgrwt>
<rscale>  0 0.25748508E+02</rscale>
<asrwt>0</asrwt>
<pdfrwt beam="1">  1        2 0.84570815E-02 0.25748508E+02</pdfrwt>
<pdfrwt beam="2">  1       -2 0.46387068E-03 0.25748508E+02</pdfrwt>
<totfact> 0.26461626E+06</totfact>
</mgrwt>
</event>
<event>
 4    1  0.3704929E-001  0.2512974E+02  0.7818608E-02  0.1659145E+00
          2   -1    0    0  501    0  0.00000000000E+00  0.00000000000E+00  0.12252254729E+02  0.12252255005E+02  0.26000000000E-02 0. -1.
         -2   -1    0    0    0  501 -0.00000000000E+00 -0.00000000000E+00 -0.12885457330E+02  0.12885457592E+02  0.26000000000E-02 0.  1.
        -13    1    1    2    0    0  0.11077944100E+02 -0.49466465395E+01 -0.35848362488E+01  0.12651181007E+02  0.10570000000E+00 0. -1.
         13    1    1    2    0    0 -0.11077944100E+02  0.49466465395E+01  0.29516336482E+01  0.12486531590E+02  0.10570000000E+00 0.  1.
<mgrwt>
<rscale>  0 0.25129736E+02</rscale>
<asrwt>0</asrwt>
<pdfrwt beam="1">  1        2 0.18849623E-02 0.25129736E+02</pdfrwt>
<pdfrwt beam="2">  1       -2 0.19823781E-02 0.25129736E+02</pdfrwt>
<totfact> 0.23547031E+06</totfact>
</mgrwt>
</event>
<event>
 4    1  0.3704929E-001  0.2960448E+02  0.7818608E-02  0.1602502E+00
          2   -1    0    0  501    0  0.00000000000E+00  0.00000000000E+00  0.79576925096E+02  0.79576925139E+02  0.26000000000E-02 0.  1.
         -2   -1    0    0    0  501 -0.00000000000E+00 -0.00000000000E+00 -0.27533895298E+01  0.27533907574E+01  0.26000000000E-02 0. -1.
        -13    1    1    2    0    0 -0.78889112569E+01  0.89980263187E+01  0.14184130213E+02  0.18558020392E+02  0.10570000000E+00 0. -1.
         13    1    1    2    0    0  0.78889112569E+01 -0.89980263187E+01  0.62639405353E+02  0.63772295505E+02  0.10570000000E+00 0.  1.
<mgrwt>
<rscale>  0 0.29604481E+02</rscale>
<asrwt>0</asrwt>
<pdfrwt beam="1">  1        2 0.12242602E-01 0.29604481E+02</pdfrwt>
<pdfrwt beam="2">  1       -2 0.42359855E-03 0.29604481E+02</pdfrwt>
<totfact> 0.20472523E+06</totfact>
</mgrwt>
</event>
<event>
 4    1  0.3704929E-001  0.4613792E+02  0.7818608E-02  0.1467360E+00
         -2   -1    0    0    0  501 -0.00000000000E+00  0.00000000000E+00  0.12939800091E+02  0.12939800352E+02  0.26000000000E-02 0.  1.
          2   -1    0    0  501    0  0.00000000000E+00 -0.00000000000E+00 -0.41127140019E+02  0.41127140102E+02  0.26000000000E-02 0. -1.
        -13    1    1    2    0    0  0.17675678869E+02  0.12477885097E+02 -0.23471331614E+02  0.31922434434E+02  0.10570000000E+00 0. -1.
         13    1    1    2    0    0 -0.17675678869E+02 -0.12477885097E+02 -0.47160083139E+01  0.22144506020E+02  0.10570000000E+00 0.  1.
<mgrwt>
<rscale>  0 0.46137923E+02</rscale>
<asrwt>0</asrwt>
<pdfrwt beam="2">  1        2 0.63272523E-02 0.46137923E+02</pdfrwt>
<pdfrwt beam="1">  1       -2 0.19907385E-02 0.46137923E+02</pdfrwt>
<totfact> 0.60865534E+05</totfact>
</mgrwt>
</event>
<event>
 4    1  0.3704929E-001  0.2982900E+02  0.7818608E-02  0.1599987E+00
         -2   -1    0    0    0  501 -0.00000000000E+00  0.00000000000E+00  0.32777605913E+02  0.32777606016E+02  0.26000000000E-02 0. -1.
          2   -1    0    0  501    0  0.00000000000E+00 -0.00000000000E+00 -0.67864117250E+01  0.67864122230E+01  0.26000000000E-02 0.  1.
        -13    1    1    2    0    0  0.19285683676E+01 -0.98702192230E+01  0.27603073008E+02  0.29378247317E+02  0.10570000000E+00 0. -1.
         13    1    1    2    0    0 -0.19285683676E+01  0.98702192230E+01 -0.16118788197E+01  0.10185770922E+02  0.10570000000E+00 0.  1.
<mgrwt>
<rscale>  0 0.29829002E+02</rscale>
<asrwt>0</asrwt>
<pdfrwt beam="2">  1        2 0.10440634E-02 0.29829002E+02</pdfrwt>
<pdfrwt beam="1">  1       -2 0.50427088E-02 0.29829002E+02</pdfrwt>
<totfact> 0.14589007E+06</totfact>
</mgrwt>
</event>
<event>
 4    1  0.3704929E-001  0.2395906E+02  0.7818608E-02  0.1676420E+00
          2   -1    0    0  501    0  0.00000000000E+00  0.00000000000E+00  0.59078485366E+02  0.59078485423E+02  0.26000000000E-02 0.  1.
         -2   -1    0    0    0  501 -0.00000000000E+00 -0.00000000000E+00 -0.24291259797E+01  0.24291273711E+01  0.26000000000E-02 0. -1.
        -13    1    1    2    0    0  0.69413811401E+01 -0.89206869596E+01  0.18140792762E+02  0.21374306129E+02  0.10570000000E+00 0.  1.
         13    1    1    2    0    0 -0.69413811401E+01  0.89206869596E+01  0.38508566625E+02  0.40133306666E+02  0.10570000000E+00 0. -1.
<mgrwt>
<rscale>  0 0.23959059E+02</rscale>
<asrwt>0</asrwt>
<pdfrwt beam="1">  1        2 0.90889972E-02 0.23959059E+02</pdfrwt>
<pdfrwt beam="2">  1       -2 0.37371183E-03 0.23959059E+02</pdfrwt>
<totfact> 0.31636098E+06</totfact>
</mgrwt>
</event>
<event>
 4    1  0.3704929E-001  0.3272097E+02  0.7818608E-02  0.1569823E+00
          2   -1    0    0  501    0  0.00000000000E+00  0.00000000000E+00  0.27006998315E+02  0.27006998440E+02  0.26000000000E-02 0.  1.
         -2   -1    0    0    0  501 -0.00000000000E+00 -0.00000000000E+00 -0.99109651314E+01  0.99109654724E+01  0.26000000000E-02 0. -1.
        -13    1    1    2    0    0  0.84561709366E+01 -0.12922635586E+02  0.14639914492E+02  0.21280028342E+02  0.10570000000E+00 0.  1.
         13    1    1    2    0    0 -0.84561709366E+01  0.12922635586E+02  0.24561186911E+01  0.15637935571E+02  0.10570000000E+00 0. -1.
<mgrwt>
<rscale>  0 0.32720967E+02</rscale>
<asrwt>0</asrwt>
<pdfrwt beam="1">  1        2 0.41549229E-02 0.32720967E+02</pdfrwt>
<pdfrwt beam="2">  1       -2 0.15247639E-02 0.32720967E+02</pdfrwt>
<totfact> 0.13518093E+06</totfact>
</mgrwt>
</event>
<event>
 4    1  0.3704929E-001  0.3015176E+02  0.7818608E-02  0.1596417E+00
          2   -1    0    0  501    0  0.00000000000E+00  0.00000000000E+00  0.65426711246E+01  0.65426716412E+01  0.26000000000E-02 0.  1.
         -2   -1    0    0    0  501 -0.00000000000E+00 -0.00000000000E+00 -0.34738428057E+02  0.34738428154E+02  0.26000000000E-02 0. -1.
        -13    1    1    2    0    0  0.40489707354E+01 -0.12813386443E+02 -0.23453416426E+02  0.27030555872E+02  0.10570000000E+00 0.  1.
         13    1    1    2    0    0 -0.40489707354E+01  0.12813386443E+02 -0.47423405060E+01  0.14250543924E+02  0.10570000000E+00 0. -1.
<mgrwt>
<rscale>  0 0.30151758E+02</rscale>
<asrwt>0</asrwt>
<pdfrwt beam="1">  1        2 0.10065649E-02 0.30151758E+02</pdfrwt>
<pdfrwt beam="2">  1       -2 0.53443735E-02 0.30151758E+02</pdfrwt>
<totfact> 0.14133271E+06</totfact>
</mgrwt>
</event>
<event>
 4    1  0.3704929E-001  0.3337549E+02  0.7818608E-02  0.1563519E+00
         -2   -1    0    0    0  501 -0.00000000000E+00  0.00000000000E+00  0.60603606693E+02  0.60603606749E+02  0.26000000000E-02 0. -1.
          2   -1    0    0  501    0  0.00000000000E+00 -0.00000000000E+00 -0.45951200535E+01  0.45951207890E+01  0.26000000000E-02 0.  1.
        -13    1    1    2    0    0  0.26026924244E+01  0.13758321886E+02  0.10271076369E+02  0.17365817322E+02  0.10570000000E+00 0.  1.
         13    1    1    2    0    0 -0.26026924244E+01 -0.13758321886E+02  0.45737410271E+02  0.47832910216E+02  0.10570000000E+00 0. -1.
<mgrwt>
<rscale>  0 0.33375492E+02</rscale>
<asrwt>0</asrwt>
<pdfrwt beam="2">  1        2 0.70694166E-03 0.33375492E+02</pdfrwt>
<pdfrwt beam="1">  1       -2 0.93236312E-02 0.33375492E+02</pdfrwt>
<totfact> 0.10302943E+06</totfact>
</mgrwt>
</event>
<event>
 4    1  0.3704929E-001  0.8802458E+02  0.7818608E-02  0.1307707E+00
          2   -1    0    0  501    0  0.00000000000E+00  0.00000000000E+00  0.66830422072E+02  0.66830422123E+02  0.26000000000E-02 0. -1.
         -2   -1    0    0    0  501 -0.00000000000E+00 -0.00000000000E+00 -0.28985025903E+02  0.28985026020E+02  0.26000000000E-02 0.  1.
        -13    1    1    2    0    0 -0.93184566219E+01 -0.42274848693E+02  0.27567526541E+02  0.51322277404E+02  0.10570000000E+00 0.  1.
         13    1    1    2    0    0  0.93184566219E+01  0.42274848693E+02  0.10277869627E+02  0.44493170739E+02  0.10570000000E+00 0. -1.
<mgrwt>
<rscale>  0 0.88024577E+02</rscale>
<asrwt>0</asrwt>
<pdfrwt beam="1">  1        2 0.10281603E-01 0.88024577E+02</pdfrwt>
<pdfrwt beam="2">  1       -2 0.44592349E-02 0.88024577E+02</pdfrwt>
<totfact> 0.12049620E+05</totfact>
</mgrwt>
</event>
<event>
 4    1  0.3704929E-001  0.3165765E+02  0.7818608E-02  0.1580457E+00
          2   -1    0    0  501    0  0.00000000000E+00  0.00000000000E+00  0.74656474846E+02  0.74656474891E+02  0.26000000000E-02 0.  1.
         -2   -1    0    0    0  501 -0.00000000000E+00 -0.00000000000E+00 -0.33560609590E+01  0.33560619661E+01  0.26000000000E-02 0. -1.
        -13    1    1    2    0    0  0.13542285870E+02 -0.72581296105E+01  0.26277416596E+02  0.30439903868E+02  0.10570000000E+00 0. -1.
         13    1    1    2    0    0 -0.13542285870E+02  0.72581296105E+01  0.45022997291E+02  0.47572632989E+02  0.10570000000E+00 0.  1.
<mgrwt>
<rscale>  0 0.31657651E+02</rscale>
<asrwt>0</asrwt>
<pdfrwt beam="1">  1        2 0.11485612E-01 0.31657651E+02</pdfrwt>
<pdfrwt beam="2">  1       -2 0.51631713E-03 0.31657651E+02</pdfrwt>
<totfact> 0.17224364E+06</totfact>
</mgrwt>
</event>
<event>
 4    1  0.3704929E-001  0.1364078E+03  0.7818608E-02  0.1218246E+00
          2   -1    0    0  501    0  0.00000000000E+00  0.00000000000E+00  0.42634166025E+03  0.42634166026E+03  0.26000000000E-02 0. -1.
         -2   -1    0    0    0  501 -0.00000000000E+00 -0.00000000000E+00 -0.10910902768E+02  0.10910903078E+02  0.26000000000E-02 0.  1.
        -13    1    1    2    0    0  0.54240879706E+02  0.38563267122E+02  0.15989430507E+03  0.17319179706E+03  0.10570000000E+00 0.  1.
         13    1    1    2    0    0 -0.54240879706E+02 -0.38563267122E+02  0.25553645241E+03  0.26406076627E+03  0.10570000000E+00 0. -1.
<mgrwt>
<rscale>  0 0.13640781E+03</rscale>
<asrwt>0</asrwt>
<pdfrwt beam="1">  1        2 0.65591021E-01 0.13640781E+03</pdfrwt>
<pdfrwt beam="2">  1       -2 0.16786006E-02 0.13640781E+03</pdfrwt>
<totfact> 0.68503406E+04</totfact>
</mgrwt>
</event>
<event>
 4    1  0.3704929E-001  0.3921305E+02  0.7818608E-02  0.1514084E+00
         -2   -1    0    0    0  501 -0.00000000000E+00  0.00000000000E+00  0.32676881788E+02  0.32676881891E+02  0.26000000000E-02 0.  1.
          2   -1    0    0  501    0  0.00000000000E+00 -0.00000000000E+00 -0.11764151924E+02  0.11764152211E+02  0.26000000000E-02 0. -1.
        -13    1    1    2    0    0 -0.14442092900E+02  0.83230655364E+01 -0.12425310631E+01  0.16715337962E+02  0.10570000000E+00 0. -1.
         13    1    1    2    0    0  0.14442092900E+02 -0.83230655364E+01  0.22155260927E+02  0.27725696141E+02  0.10570000000E+00 0.  1.
<mgrwt>
<rscale>  0 0.39213049E+02</rscale>
<asrwt>0</asrwt>
<pdfrwt beam="2">  1        2 0.18098695E-02 0.39213049E+02</pdfrwt>
<pdfrwt beam="1">  1       -2 0.50272126E-02 0.39213049E+02</pdfrwt>
<totfact> 0.77416840E+05</totfact>
</mgrwt>
</event>
<event>
 4    1  0.3704929E-001  0.2761364E+02  0.7818608E-02  0.1626071E+00
          2   -1    0    0  501    0  0.00000000000E+00  0.00000000000E+00  0.10849133080E+02  0.10849133391E+02  0.26000000000E-02 0. -1.
         -2   -1    0    0    0  501 -0.00000000000E+00 -0.00000000000E+00 -0.17570834642E+02  0.17570834835E+02  0.26000000000E-02 0.  1.
        -13    1    1    2    0    0 -0.63892016502E+01  0.10041101360E+02 -0.10563160075E+02  0.15913426328E+02  0.10570000000E+00 0.  1.
         13    1    1    2    0    0  0.63892016502E+01 -0.10041101360E+02  0.38414585120E+01  0.12506541898E+02  0.10570000000E+00 0. -1.
<mgrwt>
<rscale>  0 0.27613644E+02</rscale>
<asrwt>0</asrwt>
<pdfrwt beam="1">  1        2 0.16690974E-02 0.27613644E+02</pdfrwt>
<pdfrwt beam="2">  1       -2 0.27032054E-02 0.27613644E+02</pdfrwt>
<totfact> 0.18559165E+06</totfact>
</mgrwt>
</event>
<event>
 4    1  0.3704929E-001  0.3892900E+02  0.7818608E-02  0.1516244E+00
         -2   -1    0    0    0  501 -0.00000000000E+00  0.00000000000E+00  0.15286552838E+02  0.15286553059E+02  0.26000000000E-02 0.  1.
          2   -1    0    0  501    0  0.00000000000E+00 -0.00000000000E+00 -0.24784311448E+02  0.24784311584E+02  0.26000000000E-02 0. -1.
        -13    1    1    2    0    0  0.63653946847E+01  0.91248770318E+01 -0.21188375630E+02  0.23931988314E+02  0.10570000000E+00 0. -1.
         13    1    1    2    0    0 -0.63653946847E+01 -0.91248770318E+01  0.11690617020E+02  0.16138876328E+02  0.10570000000E+00 0.  1.
<mgrwt>
<rscale>  0 0.38928997E+02</rscale>
<asrwt>0</asrwt>
<pdfrwt beam="2">  1        2 0.38129710E-02 0.38928997E+02</pdfrwt>
<pdfrwt beam="1">  1       -2 0.23517774E-02 0.38928997E+02</pdfrwt>
<totfact> 0.86858040E+05</totfact>
</mgrwt>
</event>
<event>
 4    1  0.3704929E-001  0.2573512E+02  0.7818608E-02  0.1650662E+00
         -2   -1    0    0    0  501 -0.00000000000E+00  0.00000000000E+00  0.28191083732E+01  0.28191095722E+01  0.26000000000E-02 0.  1.
          2   -1    0    0  501    0  0.00000000000E+00 -0.00000000000E+00 -0.58732763491E+02  0.58732763549E+02  0.26000000000E-02 0. -1.
        -13    1    1    2    0    0  0.63397331683E+01 -0.86869566019E+01 -0.44853370519E+02  0.46124737951E+02  0.10570000000E+00 0. -1.
         13    1    1    2    0    0 -0.63397331683E+01  0.86869566019E+01 -0.11060284599E+02  0.15427135170E+02  0.10570000000E+00 0.  1.
<mgrwt>
<rscale>  0 0.25735117E+02</rscale>
<asrwt>0</asrwt>
<pdfrwt beam="2">  1        2 0.90358089E-02 0.25735117E+02</pdfrwt>
<pdfrwt beam="1">  1       -2 0.43370912E-03 0.25735117E+02</pdfrwt>
<totfact> 0.26795654E+06</totfact>
</mgrwt>
</event>
<event>
 4    1  0.3704929E-001  0.2830840E+02  0.7818608E-02  0.1617577E+00
         -2   -1    0    0    0  501 -0.00000000000E+00  0.00000000000E+00  0.18006229062E+01  0.18006247833E+01  0.26000000000E-02 0.  1.
          2   -1    0    0  501    0  0.00000000000E+00 -0.00000000000E+00 -0.11126218699E+03  0.11126218702E+03  0.26000000000E-02 0. -1.
        -13    1    1    2    0    0  0.78373683643E+01 -0.11779643790E+02 -0.56255971095E+02  0.58008015024E+02  0.10570000000E+00 0. -1.
         13    1    1    2    0    0 -0.78373683643E+01  0.11779643790E+02 -0.53205592991E+02  0.55054796782E+02  0.10570000000E+00 0.  1.
<mgrwt>
<rscale>  0 0.28308398E+02</rscale>
<asrwt>0</asrwt>
<pdfrwt beam="2">  1        2 0.17117254E-01 0.28308398E+02</pdfrwt>
<pdfrwt beam="1">  1       -2 0.27701914E-03 0.28308398E+02</pdfrwt>
<totfact> 0.24579639E+06</totfact>
</mgrwt>
</event>
<event>
 4    1  0.3704929E-001  0.5915854E+02  0.7818608E-02  0.1401397E+00
          2   -1    0    0  501    0  0.00000000000E+00  0.00000000000E+00  0.24917650612E+02  0.24917650748E+02  0.26000000000E-02 0. -1.
         -2   -1    0    0    0  501 -0.00000000000E+00 -0.00000000000E+00 -0.35112990553E+02  0.35112990650E+02  0.26000000000E-02 0.  1.
        -13    1    1    2    0    0 -0.18066802205E+02  0.13315958471E+02  0.14452850719E+02  0.26694946306E+02  0.10570000000E+00 0. -1.
         13    1    1    2    0    0  0.18066802205E+02 -0.13315958471E+02 -0.24648190660E+02  0.33335695091E+02  0.10570000000E+00 0.  1.
<mgrwt>
<rscale>  0 0.59158541E+02</rscale>
<asrwt>0</asrwt>
<pdfrwt beam="1">  1        2 0.38334847E-02 0.59158541E+02</pdfrwt>
<pdfrwt beam="2">  1       -2 0.54019986E-02 0.59158541E+02</pdfrwt>
<totfact> 0.29029562E+05</totfact>
</mgrwt>
</event>
<event>
 4    1  0.3704929E-001  0.3278492E+02  0.7818608E-02  0.1569199E+00
          2   -1    0    0  501    0  0.00000000000E+00  0.00000000000E+00  0.10368351376E+02  0.10368351702E+02  0.26000000000E-02 0. -1.
         -2   -1    0    0    0  501 -0.00000000000E+00 -0.00000000000E+00 -0.25916634347E+02  0.25916634478E+02  0.26000000000E-02 0.  1.
        -13    1    1    2    0    0 -0.59332161162E+01  0.94970415658E+01 -0.21023141678E+02  0.23819750429E+02  0.10570000000E+00 0.  1.
         13    1    1    2    0    0  0.59332161162E+01 -0.94970415658E+01  0.54748587068E+01  0.12465235751E+02  0.10570000000E+00 0. -1.
<mgrwt>
<rscale>  0 0.32784922E+02</rscale>
<asrwt>0</asrwt>
<pdfrwt beam="1">  1        2 0.15951310E-02 0.32784922E+02</pdfrwt>
<pdfrwt beam="2">  1       -2 0.39871745E-02 0.32784922E+02</pdfrwt>
<totfact> 0.12068520E+06</totfact>
</mgrwt>
</event>
<event>
 4    1  0.3704929E-001  0.4382680E+02  0.7818608E-02  0.1481801E+00
          2   -1    0    0  501    0  0.00000000000E+00  0.00000000000E+00  0.68913358717E+02  0.68913358766E+02  0.26000000000E-02 0. -1.
         -2   -1    0    0    0  501 -0.00000000000E+00 -0.00000000000E+00 -0.69681282978E+01  0.69681287828E+01  0.26000000000E-02 0.  1.
        -13    1    1    2    0    0 -0.18947805242E+02 -0.91315821797E+01  0.41614828310E+02  0.46628427213E+02  0.10570000000E+00 0. -1.
         13    1    1    2    0    0  0.18947805242E+02  0.91315821797E+01  0.20330402109E+02  0.29253060336E+02  0.10570000000E+00 0.  1.
<mgrwt>
<rscale>  0 0.43826802E+02</rscale>
<asrwt>0</asrwt>
<pdfrwt beam="1">  1        2 0.10602056E-01 0.43826802E+02</pdfrwt>
<pdfrwt beam="2">  1       -2 0.10720197E-02 0.43826802E+02</pdfrwt>
<totfact> 0.76433737E+05</totfact>
</mgrwt>
</event>
<event>
 4    1  0.3704929E-001  0.4437695E+02  0.7818608E-02  0.1478269E+00
          2   -1    0    0  501    0  0.00000000000E+00  0.00000000000E+00  0.49734682015E+02  0.49734682083E+02  0.26000000000E-02 0.  1.
         -2   -1    0    0    0  501 -0.00000000000E+00 -0.00000000000E+00 -0.98990949351E+01  0.98990952765E+01  0.26000000000E-02 0. -1.
        -13    1    1    2    0    0  0.66507674755E+01 -0.21070686174E+02  0.17193271031E+02  0.27996897419E+02  0.10570000000E+00 0.  1.
         13    1    1    2    0    0 -0.66507674755E+01  0.21070686174E+02  0.22642316049E+02  0.31636879941E+02  0.10570000000E+00 0. -1.
<mgrwt>
<rscale>  0 0.44376947E+02</rscale>
<asrwt>0</asrwt>
<pdfrwt beam="1">  1        2 0.76514895E-02 0.44376947E+02</pdfrwt>
<pdfrwt beam="2">  1       -2 0.15229377E-02 0.44376947E+02</pdfrwt>
<totfact> 0.69475517E+05</totfact>
</mgrwt>
</event>
<event>
 4    1  0.3704929E-001  0.4047810E+02  0.7818608E-02  0.1504722E+00
          2   -1    0    0  501    0  0.00000000000E+00  0.00000000000E+00  0.85870791043E+02  0.85870791082E+02  0.26000000000E-02 0. -1.
         -2   -1    0    0    0  501 -0.00000000000E+00 -0.00000000000E+00 -0.47701805111E+01  0.47701812196E+01  0.26000000000E-02 0.  1.
        -13    1    1    2    0    0 -0.48867306437E+01  0.18176733884E+02  0.23893128499E+02  0.30416550643E+02  0.10570000000E+00 0. -1.
         13    1    1    2    0    0  0.48867306437E+01 -0.18176733884E+02  0.57207482033E+02  0.60224421659E+02  0.10570000000E+00 0.  1.
<mgrwt>
<rscale>  0 0.40478103E+02</rscale>
<asrwt>0</asrwt>
<pdfrwt beam="1">  1        2 0.13210891E-01 0.40478103E+02</pdfrwt>
<pdfrwt beam="2">  1       -2 0.73387396E-03 0.40478103E+02</pdfrwt>
<totfact> 0.97798662E+05</totfact>
</mgrwt>
</event>
<event>
 4    1  0.3704929E-001  0.2082101E+02  0.7818608E-02  0.1729478E+00
         -2   -1    0    0    0  501 -0.00000000000E+00  0.00000000000E+00  0.61793424423E+01  0.61793429893E+01  0.26000000000E-02 0. -1.
          2   -1    0    0  501    0  0.00000000000E+00 -0.00000000000E+00 -0.17538849687E+02  0.17538849880E+02  0.26000000000E-02 0.  1.
        -13    1    1    2    0    0 -0.10151639917E+02 -0.21984363359E+01 -0.48917804386E+01  0.11481707350E+02  0.10570000000E+00 0.  1.
         13    1    1    2    0    0  0.10151639917E+02  0.21984363359E+01 -0.64677268059E+01  0.12236485519E+02  0.10570000000E+00 0. -1.
<mgrwt>
<rscale>  0 0.20821005E+02</rscale>
<asrwt>0</asrwt>
<pdfrwt beam="2">  1        2 0.26982846E-02 0.20821005E+02</pdfrwt>
<pdfrwt beam="1">  1       -2 0.95066813E-03 0.20821005E+02</pdfrwt>
<totfact> 0.37613018E+06</totfact>
</mgrwt>
</event>
<event>
 4    1  0.3704929E-001  0.2274512E+02  0.7818608E-02  0.1695675E+00
         -2   -1    0    0    0  501 -0.00000000000E+00  0.00000000000E+00  0.11654607862E+01  0.11654636864E+01  0.26000000000E-02 0. -1.
          2   -1    0    0  501    0  0.00000000000E+00 -0.00000000000E+00 -0.11097322176E+03  0.11097322179E+03  0.26000000000E-02 0.  1.
        -13    1    1    2    0    0  0.37579904639E+01 -0.10484331934E+02 -0.43574834557E+02  0.44975783346E+02  0.10570000000E+00 0. -1.
         13    1    1    2    0    0 -0.37579904639E+01  0.10484331934E+02 -0.66232926414E+02  0.67162902128E+02  0.10570000000E+00 0.  1.
<mgrwt>
<rscale>  0 0.22745118E+02</rscale>
<asrwt>0</asrwt>
<pdfrwt beam="2">  1        2 0.17072795E-01 0.22745118E+02</pdfrwt>
<pdfrwt beam="1">  1       -2 0.17930197E-03 0.22745118E+02</pdfrwt>
<totfact> 0.40582852E+06</totfact>
</mgrwt>
</event>
<event>
 4    1  0.3704929E-001  0.3398509E+02  0.7818608E-02  0.1557802E+00
         -2   -1    0    0    0  501 -0.00000000000E+00  0.00000000000E+00  0.57671379853E+01  0.57671385714E+01  0.26000000000E-02 0. -1.
          2   -1    0    0  501    0  0.00000000000E+00 -0.00000000000E+00 -0.50067573101E+02  0.50067573168E+02  0.26000000000E-02 0.  1.
        -13    1    1    2    0    0  0.15341059409E+02 -0.13583616426E+01 -0.33945199927E+02  0.37275743060E+02  0.10570000000E+00 0.  1.
         13    1    1    2    0    0 -0.15341059409E+02  0.13583616426E+01 -0.10355235188E+02  0.18558968679E+02  0.10570000000E+00 0. -1.
<mgrwt>
<rscale>  0 0.33985092E+02</rscale>
<asrwt>0</asrwt>
<pdfrwt beam="2">  1        2 0.77027033E-02 0.33985092E+02</pdfrwt>
<pdfrwt beam="1">  1       -2 0.88725208E-03 0.33985092E+02</pdfrwt>
<totfact> 0.13471997E+06</totfact>
</mgrwt>
</event>
<event>
 4    1  0.3704929E-001  0.3035594E+02  0.7818608E-02  0.1594187E+00
         -2   -1    0    0    0  501 -0.00000000000E+00  0.00000000000E+00  0.67368165989E+02  0.67368166039E+02  0.26000000000E-02 0. -1.
          2   -1    0    0  501    0  0.00000000000E+00 -0.00000000000E+00 -0.34195791788E+01  0.34195801672E+01  0.26000000000E-02 0.  1.
        -13    1    1    2    0    0  0.12165026760E+02  0.80370166692E+01  0.22141942104E+02  0.26511474603E+02  0.10570000000E+00 0.  1.
         13    1    1    2    0    0 -0.12165026760E+02 -0.80370166692E+01  0.41806644706E+02  0.44276271604E+02  0.10570000000E+00 0. -1.
<mgrwt>
<rscale>  0 0.30355943E+02</rscale>
<asrwt>0</asrwt>
<pdfrwt beam="2">  1        2 0.52608927E-03 0.30355943E+02</pdfrwt>
<pdfrwt beam="1">  1       -2 0.10364332E-01 0.30355943E+02</pdfrwt>
<totfact> 0.12611309E+06</totfact>
</mgrwt>
</event>
<event>
 4    1  0.3704929E-001  0.4619167E+02  0.7818608E-02  0.1467036E+00
          2   -1    0    0  501    0  0.00000000000E+00  0.00000000000E+00  0.21205456945E+02  0.21205457104E+02  0.26000000000E-02 0. -1.
         -2   -1    0    0    0  501 -0.00000000000E+00 -0.00000000000E+00 -0.25154736011E+02  0.25154736146E+02  0.26000000000E-02 0.  1.
        -13    1    1    2    0    0  0.86199725581E+01 -0.21234120502E+02 -0.48512266811E+01  0.23425144038E+02  0.10570000000E+00 0.  1.
         13    1    1    2    0    0 -0.86199725581E+01  0.21234120502E+02  0.90194761430E+00  0.22935049212E+02  0.10570000000E+00 0. -1.
<mgrwt>
<rscale>  0 0.46191674E+02</rscale>
<asrwt>0</asrwt>
<pdfrwt beam="1">  1        2 0.32623780E-02 0.46191674E+02</pdfrwt>
<pdfrwt beam="2">  1       -2 0.38699594E-02 0.46191674E+02</pdfrwt>
<totfact> 0.54769834E+05</totfact>
</mgrwt>
</event>
<event>
 4    1  0.3704929E-001  0.3997333E+02  0.7818608E-02  0.1508408E+00
          2   -1    0    0  501    0  0.00000000000E+00  0.00000000000E+00  0.40027226624E+02  0.40027226708E+02  0.26000000000E-02 0. -1.
         -2   -1    0    0    0  501 -0.00000000000E+00 -0.00000000000E+00 -0.99798756797E+01  0.99798760184E+01  0.26000000000E-02 0.  1.
        -13    1    1    2    0    0 -0.31657018684E+01 -0.19682059499E+02  0.16815047878E+02  0.26079918368E+02  0.10570000000E+00 0. -1.
         13    1    1    2    0    0  0.31657018684E+01  0.19682059499E+02  0.13232303066E+02  0.23927184359E+02  0.10570000000E+00 0.  1.
<mgrwt>
<rscale>  0 0.39973329E+02</rscale>
<asrwt>0</asrwt>
<pdfrwt beam="1">  1        2 0.61580347E-02 0.39973329E+02</pdfrwt>
<pdfrwt beam="2">  1       -2 0.15353656E-02 0.39973329E+02</pdfrwt>
<totfact> 0.87077815E+05</totfact>
</mgrwt>
</event>
<event>
 4    1  0.3704929E-001  0.3143108E+02  0.7818608E-02  0.1582788E+00
          2   -1    0    0  501    0  0.00000000000E+00  0.00000000000E+00  0.26268070458E+02  0.26268070587E+02  0.26000000000E-02 0.  1.
         -2   -1    0    0    0  501 -0.00000000000E+00 -0.00000000000E+00 -0.94022193117E+01  0.94022196712E+01  0.26000000000E-02 0. -1.
        -13    1    1    2    0    0 -0.11999467465E+02  0.10072862312E+02  0.98308116630E+01  0.18496102428E+02  0.10570000000E+00 0.  1.
         13    1    1    2    0    0  0.11999467465E+02 -0.10072862312E+02  0.70350394832E+01  0.17174187830E+02  0.10570000000E+00 0. -1.
<mgrwt>
<rscale>  0 0.31431078E+02</rscale>
<asrwt>0</asrwt>
<pdfrwt beam="1">  1        2 0.40412416E-02 0.31431078E+02</pdfrwt>
<pdfrwt beam="2">  1       -2 0.14464953E-02 0.31431078E+02</pdfrwt>
<totfact> 0.14859785E+06</totfact>
</mgrwt>
</event>
<event>
 4    1  0.3704929E-001  0.2364674E+02  0.7818608E-02  0.1681236E+00
         -2   -1    0    0    0  501 -0.00000000000E+00  0.00000000000E+00  0.35499329088E+02  0.35499329183E+02  0.26000000000E-02 0.  1.
          2   -1    0    0  501    0  0.00000000000E+00 -0.00000000000E+00 -0.39378802900E+01  0.39378811484E+01  0.26000000000E-02 0. -1.
        -13    1    1    2    0    0  0.70078703956E+01  0.72608848972E+01  0.55066620057E+01  0.11496312274E+02  0.10570000000E+00 0. -1.
         13    1    1    2    0    0 -0.70078703956E+01 -0.72608848972E+01  0.26054786792E+02  0.27940898057E+02  0.10570000000E+00 0.  1.
<mgrwt>
<rscale>  0 0.23646744E+02</rscale>
<asrwt>0</asrwt>
<pdfrwt beam="2">  1        2 0.60582780E-03 0.23646744E+02</pdfrwt>
<pdfrwt beam="1">  1       -2 0.54614354E-02 0.23646744E+02</pdfrwt>
<totfact> 0.24457121E+06</totfact>
</mgrwt>
</event>
<event>
 4    1  0.3704929E-001  0.7009772E+02  0.7818608E-02  0.1359761E+00
          2   -1    0    0  501    0  0.00000000000E+00  0.00000000000E+00  0.23678518702E+02  0.23678518845E+02  0.26000000000E-02 0. -1.
         -2   -1    0    0    0  501 -0.00000000000E+00 -0.00000000000E+00 -0.51879198482E+02  0.51879198547E+02  0.26000000000E-02 0.  1.
        -13    1    1    2    0    0 -0.18570897176E+02  0.29493848046E+02 -0.18082139597E+02  0.39265000183E+02  0.10570000000E+00 0. -1.
         13    1    1    2    0    0  0.18570897176E+02 -0.29493848046E+02 -0.10118540182E+02  0.36292717209E+02  0.10570000000E+00 0.  1.
<mgrwt>
<rscale>  0 0.70097720E+02</rscale>
<asrwt>0</asrwt>
<pdfrwt beam="1">  1        2 0.36428490E-02 0.70097720E+02</pdfrwt>
<pdfrwt beam="2">  1       -2 0.79814152E-02 0.70097720E+02</pdfrwt>
<totfact> 0.17928981E+05</totfact>
</mgrwt>
</event>
<event>
 4    1  0.3704929E-001  0.3391357E+02  0.7818608E-02  0.1558465E+00
         -2   -1    0    0    0  501 -0.00000000000E+00  0.00000000000E+00  0.40362790841E+01  0.40362799215E+01  0.26000000000E-02 0.  1.
          2   -1    0    0  501    0  0.00000000000E+00 -0.00000000000E+00 -0.71237042538E+02  0.71237042585E+02  0.26000000000E-02 0. -1.
        -13    1    1    2    0    0  0.27981467757E+01 -0.13569742257E+02 -0.55296986319E+02  0.57006450501E+02  0.10570000000E+00 0. -1.
         13    1    1    2    0    0 -0.27981467757E+01  0.13569742257E+02 -0.11903777135E+02  0.18266872005E+02  0.10570000000E+00 0.  1.
<mgrwt>
<rscale>  0 0.33913574E+02</rscale>
<asrwt>0</asrwt>
<pdfrwt beam="2">  1        2 0.10959544E-01 0.33913574E+02</pdfrwt>
<pdfrwt beam="1">  1       -2 0.62096613E-03 0.33913574E+02</pdfrwt>
<totfact> 0.14460249E+06</totfact>
</mgrwt>
</event>
<event>
 4    1  0.3704929E-001  0.4727286E+02  0.7818608E-02  0.1460632E+00
         -2   -1    0    0    0  501 -0.00000000000E+00  0.00000000000E+00  0.21538913519E+01  0.21538929211E+01  0.26000000000E-02 0. -1.
          2   -1    0    0  501    0  0.00000000000E+00 -0.00000000000E+00 -0.25938198302E+03  0.25938198303E+03  0.26000000000E-02 0.  1.
        -13    1    1    2    0    0  0.18438137877E+01 -0.23527951934E+02 -0.13583911186E+03  0.13787399920E+03  0.10570000000E+00 0.  1.
         13    1    1    2    0    0 -0.18438137877E+01  0.23527951934E+02 -0.12138897980E+03  0.12366187675E+03  0.10570000000E+00 0. -1.
<mgrwt>
<rscale>  0 0.47272860E+02</rscale>
<asrwt>0</asrwt>
<pdfrwt beam="2">  1        2 0.39904896E-01 0.47272860E+02</pdfrwt>
<pdfrwt beam="1">  1       -2 0.33136823E-03 0.47272860E+02</pdfrwt>
<totfact> 0.92440403E+05</totfact>
</mgrwt>
</event>
<event>
 4    1  0.3704929E-001  0.2631171E+02  0.7818608E-02  0.1642846E+00
         -2   -1    0    0    0  501 -0.00000000000E+00  0.00000000000E+00  0.25370776772E+01  0.25370790094E+01  0.26000000000E-02 0.  1.
          2   -1    0    0  501    0  0.00000000000E+00 -0.00000000000E+00 -0.68218848450E+02  0.68218848500E+02  0.26000000000E-02 0. -1.
        -13    1    1    2    0    0  0.65250713204E+01 -0.10078313051E+02 -0.47301479670E+02  0.48801537897E+02  0.10570000000E+00 0. -1.
         13    1    1    2    0    0 -0.65250713204E+01  0.10078313051E+02 -0.18380291103E+02  0.21954389612E+02  0.10570000000E+00 0.  1.
<mgrwt>
<rscale>  0 0.26311713E+02</rscale>
<asrwt>0</asrwt>
<pdfrwt beam="2">  1        2 0.10495206E-01 0.26311713E+02</pdfrwt>
<pdfrwt beam="1">  1       -2 0.39031980E-03 0.26311713E+02</pdfrwt>
<totfact> 0.26158670E+06</totfact>
</mgrwt>
</event>
<event>
 4    1  0.3704929E-001  0.3907560E+02  0.7818608E-02  0.1515126E+00
          2   -1    0    0  501    0  0.00000000000E+00  0.00000000000E+00  0.62859144815E+02  0.62859144869E+02  0.26000000000E-02 0.  1.
         -2   -1    0    0    0  501 -0.00000000000E+00 -0.00000000000E+00 -0.60727136462E+01  0.60727142028E+01  0.26000000000E-02 0. -1.
        -13    1    1    2    0    0 -0.65897764249E+01 -0.11807445179E+02  0.53270491828E+02  0.54959961673E+02  0.10570000000E+00 0.  1.
         13    1    1    2    0    0  0.65897764249E+01  0.11807445179E+02  0.35159393407E+01  0.13971897399E+02  0.10570000000E+00 0. -1.
<mgrwt>
<rscale>  0 0.39075599E+02</rscale>
<asrwt>0</asrwt>
<pdfrwt beam="1">  1        2 0.96706373E-02 0.39075599E+02</pdfrwt>
<pdfrwt beam="2">  1       -2 0.93426372E-03 0.39075599E+02</pdfrwt>
<totfact> 0.99776340E+05</totfact>
</mgrwt>
</event>
<event>
 4    1  0.3704929E-001  0.3510459E+02  0.7818608E-02  0.1547674E+00
         -2   -1    0    0    0  501 -0.00000000000E+00  0.00000000000E+00  0.77401894021E+02  0.77401894065E+02  0.26000000000E-02 0.  1.
          2   -1    0    0  501    0  0.00000000000E+00 -0.00000000000E+00 -0.39803027348E+01  0.39803035840E+01  0.26000000000E-02 0. -1.
        -13    1    1    2    0    0  0.85423827847E+01 -0.14761275248E+02  0.27095030594E+02  0.32015924256E+02  0.10570000000E+00 0.  1.
         13    1    1    2    0    0 -0.85423827847E+01  0.14761275248E+02  0.46326560692E+02  0.49366273392E+02  0.10570000000E+00 0. -1.
<mgrwt>
<rscale>  0 0.35104587E+02</rscale>
<asrwt>0</asrwt>
<pdfrwt beam="2">  1        2 0.61235432E-03 0.35104587E+02</pdfrwt>
<pdfrwt beam="1">  1       -2 0.11907984E-01 0.35104587E+02</pdfrwt>
<totfact> 0.87428133E+05</totfact>
</mgrwt>
</event>
<event>
 4    1  0.3704929E-001  0.2611511E+02  0.7818608E-02  0.1645483E+00
          2   -1    0    0  501    0  0.00000000000E+00  0.00000000000E+00  0.13682092317E+02  0.13682092564E+02  0.26000000000E-02 0. -1.
         -2   -1    0    0    0  501 -0.00000000000E+00 -0.00000000000E+00 -0.12461525696E+02  0.12461525967E+02  0.26000000000E-02 0.  1.
        -13    1    1    2    0    0  0.65155016628E+00 -0.10518333185E+02  0.83277017187E+01  0.13432112232E+02  0.10570000000E+00 0. -1.
         13    1    1    2    0    0 -0.65155016628E+00  0.10518333185E+02 -0.71071350982E+01  0.12711506299E+02  0.10570000000E+00 0.  1.
<mgrwt>
<rscale>  0 0.26115111E+02</rscale>
<asrwt>0</asrwt>
<pdfrwt beam="1">  1        2 0.21049373E-02 0.26115111E+02</pdfrwt>
<pdfrwt beam="2">  1       -2 0.19171578E-02 0.26115111E+02</pdfrwt>
<totfact> 0.21696693E+06</totfact>
</mgrwt>
</event>
<event>
 4    1  0.3704929E-001  0.2223948E+02  0.7818608E-02  0.1704143E+00
         -2   -1    0    0    0  501 -0.00000000000E+00  0.00000000000E+00  0.17225302227E+01  0.17225321850E+01  0.26000000000E-02 0. -1.
          2   -1    0    0  501    0  0.00000000000E+00 -0.00000000000E+00 -0.71783123291E+02  0.71783123339E+02  0.26000000000E-02 0.  1.
        -13    1    1    2    0    0 -0.13837348928E+01  0.10889925466E+02 -0.29180674178E+02  0.31177365458E+02  0.10570000000E+00 0. -1.
         13    1    1    2    0    0  0.13837348928E+01 -0.10889925466E+02 -0.40879918890E+02  0.42328290065E+02  0.10570000000E+00 0.  1.
<mgrwt>
<rscale>  0 0.22239485E+02</rscale>
<asrwt>0</asrwt>
<pdfrwt beam="2">  1        2 0.11043555E-01 0.22239485E+02</pdfrwt>
<pdfrwt beam="1">  1       -2 0.26500486E-03 0.22239485E+02</pdfrwt>
<totfact> 0.38835396E+06</totfact>
</mgrwt>
</event>
<event>
 4    1  0.3704929E-001  0.3122321E+02  0.7818608E-02  0.1584948E+00
         -2   -1    0    0    0  501 -0.00000000000E+00  0.00000000000E+00  0.37995075511E+01  0.37995084407E+01  0.26000000000E-02 0. -1.
          2   -1    0    0  501    0  0.00000000000E+00 -0.00000000000E+00 -0.64145711528E+02  0.64145711580E+02  0.26000000000E-02 0.  1.
        -13    1    1    2    0    0  0.65719688434E+01 -0.11411014716E+02 -0.48419901567E+02  0.50178681445E+02  0.10570000000E+00 0.  1.
         13    1    1    2    0    0 -0.65719688434E+01  0.11411014716E+02 -0.11926302410E+02  0.17766538576E+02  0.10570000000E+00 0. -1.
<mgrwt>
<rscale>  0 0.31223206E+02</rscale>
<asrwt>0</asrwt>
<pdfrwt beam="2">  1        2 0.98685703E-02 0.31223206E+02</pdfrwt>
<pdfrwt beam="1">  1       -2 0.58453974E-03 0.31223206E+02</pdfrwt>
<totfact> 0.17272758E+06</totfact>
</mgrwt>
</event>
<event>
 4    1  0.3704929E-001  0.3055257E+02  0.7818608E-02  0.1592060E+00
          2   -1    0    0  501    0  0.00000000000E+00  0.00000000000E+00  0.57191560117E+01  0.57191566027E+01  0.26000000000E-02 0. -1.
         -2   -1    0    0    0  501 -0.00000000000E+00 -0.00000000000E+00 -0.40804080838E+02  0.40804080921E+02  0.26000000000E-02 0.  1.
        -13    1    1    2    0    0  0.11412078718E+02  0.12015391992E+01 -0.32896697732E+02  0.34840825640E+02  0.10570000000E+00 0.  1.
         13    1    1    2    0    0 -0.11412078718E+02 -0.12015391992E+01 -0.21882270941E+01  0.11682411883E+02  0.10570000000E+00 0. -1.
<mgrwt>
<rscale>  0 0.30552572E+02</rscale>
<asrwt>0</asrwt>
<pdfrwt beam="1">  1        2 0.87987023E-03 0.30552572E+02</pdfrwt>
<pdfrwt beam="2">  1       -2 0.62775508E-02 0.30552572E+02</pdfrwt>
<totfact> 0.13430713E+06</totfact>
</mgrwt>
</event>
<event>
 4    1  0.3704929E-001  0.7168522E+02  0.7818608E-02  0.1354454E+00
          2   -1    0    0  501    0  0.00000000000E+00  0.00000000000E+00  0.25001382920E+03  0.25001382922E+03  0.26000000000E-02 0.  1.
         -2   -1    0    0    0  501 -0.00000000000E+00 -0.00000000000E+00 -0.51384856857E+01  0.51384863435E+01  0.26000000000E-02 0. -1.
        -13    1    1    2    0    0  0.30854958390E+02 -0.17972867671E+02  0.13348251972E+03  0.13817614364E+03  0.10570000000E+00 0.  1.
         13    1    1    2    0    0 -0.30854958390E+02  0.17972867671E+02  0.11139282380E+03  0.11697617192E+03  0.10570000000E+00 0. -1.
<mgrwt>
<rscale>  0 0.71685217E+02</rscale>
<asrwt>0</asrwt>
<pdfrwt beam="1">  1        2 0.38463654E-01 0.71685217E+02</pdfrwt>
<pdfrwt beam="2">  1       -2 0.79053655E-03 0.71685217E+02</pdfrwt>
<totfact> 0.31680430E+05</totfact>
</mgrwt>
</event>
<event>
 4    1  0.3704929E-001  0.3300191E+02  0.7818608E-02  0.1567095E+00
          2   -1    0    0  501    0  0.00000000000E+00  0.00000000000E+00  0.61958160369E+02  0.61958160424E+02  0.26000000000E-02 0.  1.
         -2   -1    0    0    0  501 -0.00000000000E+00 -0.00000000000E+00 -0.43946029239E+01  0.43946036930E+01  0.26000000000E-02 0. -1.
        -13    1    1    2    0    0  0.10909183976E+02  0.12125346480E+02  0.33802597595E+02  0.37532134217E+02  0.10570000000E+00 0.  1.
         13    1    1    2    0    0 -0.10909183976E+02 -0.12125346480E+02  0.23760959851E+02  0.28820629899E+02  0.10570000000E+00 0. -1.
<mgrwt>
<rscale>  0 0.33001911E+02</rscale>
<asrwt>0</asrwt>
<pdfrwt beam="1">  1        2 0.95320241E-02 0.33001911E+02</pdfrwt>
<pdfrwt beam="2">  1       -2 0.67609287E-03 0.33001911E+02</pdfrwt>
<totfact> 0.15023709E+06</totfact>
</mgrwt>
</event>
<event>
 4    1  0.3704929E-001  0.3069027E+02  0.7818608E-02  0.1590582E+00
          2   -1    0    0  501    0  0.00000000000E+00  0.00000000000E+00  0.72634536899E+01  0.72634541552E+01  0.26000000000E-02 0.  1.
         -2   -1    0    0    0  501 -0.00000000000E+00 -0.00000000000E+00 -0.32418895420E+02  0.32418895524E+02  0.26000000000E-02 0. -1.
        -13    1    1    2    0    0  0.82701171094E+00  0.13560798548E+02 -0.33545109884E+01  0.13994396096E+02  0.10570000000E+00 0.  1.
         13    1    1    2    0    0 -0.82701171094E+00 -0.13560798548E+02 -0.21800930742E+02  0.25687953584E+02  0.10570000000E+00 0. -1.
<mgrwt>
<rscale>  0 0.30690269E+02</rscale>
<asrwt>0</asrwt>
<pdfrwt beam="1">  1        2 0.11174545E-02 0.30690269E+02</pdfrwt>
<pdfrwt beam="2">  1       -2 0.49875223E-02 0.30690269E+02</pdfrwt>
<totfact> 0.13683694E+06</totfact>
</mgrwt>
</event>
<event>
 4    1  0.3704929E-001  0.3785906E+02  0.7818608E-02  0.1524585E+00
         -2   -1    0    0    0  501 -0.00000000000E+00  0.00000000000E+00  0.87861283815E+02  0.87861283854E+02  0.26000000000E-02 0.  1.
          2   -1    0    0  501    0  0.00000000000E+00 -0.00000000000E+00 -0.40783266427E+01  0.40783274715E+01  0.26000000000E-02 0. -1.
        -13    1    1    2    0    0  0.10257615513E+02  0.10016328202E+02  0.11875504566E+02  0.18616774367E+02  0.10570000000E+00 0. -1.
         13    1    1    2    0    0 -0.10257615513E+02 -0.10016328202E+02  0.71907452607E+02  0.73322836958E+02  0.10570000000E+00 0.  1.
<mgrwt>
<rscale>  0 0.37859057E+02</rscale>
<asrwt>0</asrwt>
<pdfrwt beam="2">  1        2 0.62743495E-03 0.37859057E+02</pdfrwt>
<pdfrwt beam="1">  1       -2 0.13517120E-01 0.37859057E+02</pdfrwt>
<totfact> 0.71157120E+05</totfact>
</mgrwt>
</event>
<event>
 4    1  0.3704929E-001  0.3788274E+02  0.7818608E-02  0.1524396E+00
         -2   -1    0    0    0  501 -0.00000000000E+00  0.00000000000E+00  0.18402914108E+02  0.18402914292E+02  0.26000000000E-02 0.  1.
          2   -1    0    0  501    0  0.00000000000E+00 -0.00000000000E+00 -0.19495584702E+02  0.19495584875E+02  0.26000000000E-02 0. -1.
        -13    1    1    2    0    0 -0.16694995028E+02 -0.86004525021E+01 -0.30118607708E+01  0.19020334382E+02  0.10570000000E+00 0. -1.
         13    1    1    2    0    0  0.16694995028E+02  0.86004525021E+01  0.19191901766E+01  0.18878164785E+02  0.10570000000E+00 0.  1.
<mgrwt>
<rscale>  0 0.37882744E+02</rscale>
<asrwt>0</asrwt>
<pdfrwt beam="2">  1        2 0.29993207E-02 0.37882744E+02</pdfrwt>
<pdfrwt beam="1">  1       -2 0.28312176E-02 0.37882744E+02</pdfrwt>
<totfact> 0.90229873E+05</totfact>
</mgrwt>
</event>
<event>
 4    1  0.3704929E-001  0.2203133E+02  0.7818608E-02  0.1707711E+00
          2   -1    0    0  501    0  0.00000000000E+00  0.00000000000E+00  0.36301653865E+02  0.36301653958E+02  0.26000000000E-02 0.  1.
         -2   -1    0    0    0  501 -0.00000000000E+00 -0.00000000000E+00 -0.33426825244E+01  0.33426835356E+01  0.26000000000E-02 0. -1.
        -13    1    1    2    0    0  0.53793852267E+00  0.11000155295E+02  0.16843664825E+02  0.20124935070E+02  0.10570000000E+00 0.  1.
         13    1    1    2    0    0 -0.53793852267E+00 -0.11000155295E+02  0.16115306516E+02  0.19519402424E+02  0.10570000000E+00 0. -1.
<mgrwt>
<rscale>  0 0.22031335E+02</rscale>
<asrwt>0</asrwt>
<pdfrwt beam="1">  1        2 0.55848697E-02 0.22031335E+02</pdfrwt>
<pdfrwt beam="2">  1       -2 0.51425895E-03 0.22031335E+02</pdfrwt>
<totfact> 0.35645303E+06</totfact>
</mgrwt>
</event>
<event>
 4    1  0.3704929E-001  0.2393654E+02  0.7818608E-02  0.1676764E+00
         -2   -1    0    0    0  501 -0.00000000000E+00  0.00000000000E+00  0.12967129526E+02  0.12967129786E+02  0.26000000000E-02 0. -1.
          2   -1    0    0  501    0  0.00000000000E+00 -0.00000000000E+00 -0.11046349833E+02  0.11046350139E+02  0.26000000000E-02 0.  1.
        -13    1    1    2    0    0  0.54638196993E+01 -0.10636581232E+02  0.47086913798E+00  0.11967584395E+02  0.10570000000E+00 0. -1.
         13    1    1    2    0    0 -0.54638196993E+01  0.10636581232E+02  0.14499105547E+01  0.12045895530E+02  0.10570000000E+00 0.  1.
<mgrwt>
<rscale>  0 0.23936537E+02</rscale>
<asrwt>0</asrwt>
<pdfrwt beam="2">  1        2 0.16994385E-02 0.23936537E+02</pdfrwt>
<pdfrwt beam="1">  1       -2 0.19949430E-02 0.23936537E+02</pdfrwt>
<totfact> 0.26191179E+06</totfact>
</mgrwt>
</event>
<event>
 4    1  0.3704929E-001  0.3372534E+02  0.7818608E-02  0.1560220E+00
         -2   -1    0    0    0  501 -0.00000000000E+00  0.00000000000E+00  0.11661599853E+03  0.11661599856E+03  0.26000000000E-02 0. -1.
          2   -1    0    0  501    0  0.00000000000E+00 -0.00000000000E+00 -0.24383414060E+01  0.24383427922E+01  0.26000000000E-02 0.  1.
        -13    1    1    2    0    0 -0.92659596488E+00  0.16477061596E+02  0.44867087833E+02  0.47806054868E+02  0.10570000000E+00 0. -1.
         13    1    1    2    0    0  0.92659596488E+00 -0.16477061596E+02  0.69310569287E+02  0.71248286480E+02  0.10570000000E+00 0.  1.
<mgrwt>
<rscale>  0 0.33725344E+02</rscale>
<asrwt>0</asrwt>
<pdfrwt beam="2">  1        2 0.37512947E-03 0.33725344E+02</pdfrwt>
<pdfrwt beam="1">  1       -2 0.17940927E-01 0.33725344E+02</pdfrwt>
<totfact> 0.87237462E+05</totfact>
</mgrwt>
</event>
<event>
 4    1  0.3704929E-001  0.4628957E+02  0.7818608E-02  0.1466448E+00
         -2   -1    0    0    0  501 -0.00000000000E+00  0.00000000000E+00  0.36199317318E+02  0.36199317411E+02  0.26000000000E-02 0.  1.
          2   -1    0    0  501    0  0.00000000000E+00 -0.00000000000E+00 -0.14798101561E+02  0.14798101789E+02  0.26000000000E-02 0. -1.
        -13    1    1    2    0    0  0.18749288584E+02 -0.49136403622E+01 -0.32345492163E+01  0.19650780268E+02  0.10570000000E+00 0. -1.
         13    1    1    2    0    0 -0.18749288584E+02  0.49136403622E+01  0.24635764974E+02  0.31346638932E+02  0.10570000000E+00 0.  1.
<mgrwt>
<rscale>  0 0.46289575E+02</rscale>
<asrwt>0</asrwt>
<pdfrwt beam="2">  1        2 0.22766311E-02 0.46289575E+02</pdfrwt>
<pdfrwt beam="1">  1       -2 0.55691257E-02 0.46289575E+02</pdfrwt>
<totfact> 0.51634268E+05</totfact>
</mgrwt>
</event>
<event>
 4    1  0.3704929E-001  0.2507537E+02  0.7818608E-02  0.1659922E+00
         -2   -1    0    0    0  501 -0.00000000000E+00  0.00000000000E+00  0.29924260189E+01  0.29924271484E+01  0.26000000000E-02 0. -1.
          2   -1    0    0  501    0  0.00000000000E+00 -0.00000000000E+00 -0.52530440684E+02  0.52530440749E+02  0.26000000000E-02 0.  1.
        -13    1    1    2    0    0 -0.97520132565E+01  0.70142582591E+01 -0.16822158232E+02  0.20671181910E+02  0.10570000000E+00 0. -1.
         13    1    1    2    0    0  0.97520132565E+01 -0.70142582591E+01 -0.32715856434E+02  0.34851685987E+02  0.10570000000E+00 0.  1.
<mgrwt>
<rscale>  0 0.25075366E+02</rscale>
<asrwt>0</asrwt>
<pdfrwt beam="2">  1        2 0.80816057E-02 0.25075366E+02</pdfrwt>
<pdfrwt beam="1">  1       -2 0.46037336E-03 0.25075366E+02</pdfrwt>
<totfact> 0.27928742E+06</totfact>
</mgrwt>
</event>
<event>
 4    1  0.3704929E-001  0.2948404E+02  0.7818608E-02  0.1603863E+00
         -2   -1    0    0    0  501 -0.00000000000E+00  0.00000000000E+00  0.60690301443E+01  0.60690307012E+01  0.26000000000E-02 0. -1.
          2   -1    0    0  501    0  0.00000000000E+00 -0.00000000000E+00 -0.35809199719E+02  0.35809199813E+02  0.26000000000E-02 0.  1.
        -13    1    1    2    0    0 -0.11539352884E+02  0.95691588120E+00 -0.19109267078E+01  0.11736062643E+02  0.10570000000E+00 0. -1.
         13    1    1    2    0    0  0.11539352884E+02 -0.95691588120E+00 -0.27829242867E+02  0.30142167872E+02  0.10570000000E+00 0.  1.
<mgrwt>
<rscale>  0 0.29484038E+02</rscale>
<asrwt>0</asrwt>
<pdfrwt beam="2">  1        2 0.55091076E-02 0.29484038E+02</pdfrwt>
<pdfrwt beam="1">  1       -2 0.93369702E-03 0.29484038E+02</pdfrwt>
<totfact> 0.18032880E+06</totfact>
</mgrwt>
</event>
<event>
 4    1  0.3704929E-001  0.2272148E+02  0.7818608E-02  0.1696065E+00
         -2   -1    0    0    0  501 -0.00000000000E+00  0.00000000000E+00  0.86924748603E+02  0.86924748642E+02  0.26000000000E-02 0.  1.
          2   -1    0    0  501    0  0.00000000000E+00 -0.00000000000E+00 -0.14848048712E+01  0.14848071476E+01  0.26000000000E-02 0. -1.
        -13    1    1    2    0    0  0.25952944314E+01  0.10555588817E+02  0.29874201085E+02  0.31790487122E+02  0.10570000000E+00 0. -1.
         13    1    1    2    0    0 -0.25952944314E+01 -0.10555588817E+02  0.55565742647E+02  0.56619068668E+02  0.10570000000E+00 0.  1.
<mgrwt>
<rscale>  0 0.22721478E+02</rscale>
<asrwt>0</asrwt>
<pdfrwt beam="2">  1        2 0.22843169E-03 0.22721478E+02</pdfrwt>
<pdfrwt beam="1">  1       -2 0.13373039E-01 0.22721478E+02</pdfrwt>
<totfact> 0.23177215E+06</totfact>
</mgrwt>
</event>
<event>
 4    1  0.3704929E-001  0.2800803E+02  0.7818608E-02  0.1621212E+00
         -2   -1    0    0    0  501 -0.00000000000E+00  0.00000000000E+00  0.88442841288E+02  0.88442841326E+02  0.26000000000E-02 0.  1.
          2   -1    0    0  501    0  0.00000000000E+00 -0.00000000000E+00 -0.22173909809E+01  0.22173925052E+01  0.26000000000E-02 0. -1.
        -13    1    1    2    0    0  0.72002243344E+01  0.11891476729E+02  0.48578078409E+02  0.50528124086E+02  0.10570000000E+00 0.  1.
         13    1    1    2    0    0 -0.72002243344E+01 -0.11891476729E+02  0.37647371898E+02  0.40132109745E+02  0.10570000000E+00 0. -1.
<mgrwt>
<rscale>  0 0.28008030E+02</rscale>
<asrwt>0</asrwt>
<pdfrwt beam="2">  1        2 0.34113724E-03 0.28008030E+02</pdfrwt>
<pdfrwt beam="1">  1       -2 0.13606589E-01 0.28008030E+02</pdfrwt>
<totfact> 0.14380180E+06</totfact>
</mgrwt>
</event>
<event>
 4    1  0.3704929E-001  0.2214111E+02  0.7818608E-02  0.1705823E+00
         -2   -1    0    0    0  501 -0.00000000000E+00  0.00000000000E+00  0.10034581626E+02  0.10034581963E+02  0.26000000000E-02 0.  1.
          2   -1    0    0  501    0  0.00000000000E+00 -0.00000000000E+00 -0.12213478362E+02  0.12213478639E+02  0.26000000000E-02 0. -1.
        -13    1    1    2    0    0 -0.36422817711E+01  0.96414980228E+01  0.29700271863E+01  0.10726459556E+02  0.10570000000E+00 0.  1.
         13    1    1    2    0    0  0.36422817711E+01 -0.96414980228E+01 -0.51489239220E+01  0.11521601046E+02  0.10570000000E+00 0. -1.
<mgrwt>
<rscale>  0 0.22141107E+02</rscale>
<asrwt>0</asrwt>
<pdfrwt beam="2">  1        2 0.18789967E-02 0.22141107E+02</pdfrwt>
<pdfrwt beam="1">  1       -2 0.15437818E-02 0.22141107E+02</pdfrwt>
<totfact> 0.31698154E+06</totfact>
</mgrwt>
</event>
<event>
 4    1  0.3704929E-001  0.2651505E+02  0.7818608E-02  0.1640148E+00
         -2   -1    0    0    0  501 -0.00000000000E+00  0.00000000000E+00  0.14037405953E+02  0.14037406194E+02  0.26000000000E-02 0. -1.
          2   -1    0    0  501    0  0.00000000000E+00 -0.00000000000E+00 -0.12520970138E+02  0.12520970408E+02  0.26000000000E-02 0.  1.
        -13    1    1    2    0    0  0.39648303101E+01  0.11560274959E+02 -0.43873879689E+01  0.12985383406E+02  0.10570000000E+00 0.  1.
         13    1    1    2    0    0 -0.39648303101E+01 -0.11560274959E+02  0.59038237842E+01  0.13572993196E+02  0.10570000000E+00 0. -1.
<mgrwt>
<rscale>  0 0.26515048E+02</rscale>
<asrwt>0</asrwt>
<pdfrwt beam="2">  1        2 0.19263031E-02 0.26515048E+02</pdfrwt>
<pdfrwt beam="1">  1       -2 0.21596009E-02 0.26515048E+02</pdfrwt>
<totfact> 0.20750775E+06</totfact>
</mgrwt>
</event>
<event>
 4    1  0.3704929E-001  0.5560706E+02  0.7818608E-02  0.1417250E+00
         -2   -1    0    0    0  501 -0.00000000000E+00  0.00000000000E+00  0.17175287099E+03  0.17175287101E+03  0.26000000000E-02 0. -1.
          2   -1    0    0  501    0  0.00000000000E+00 -0.00000000000E+00 -0.45008639962E+01  0.45008647471E+01  0.26000000000E-02 0.  1.
        -13    1    1    2    0    0 -0.17037606626E+02 -0.20684303057E+02  0.60139766924E+02  0.65840133435E+02  0.10570000000E+00 0. -1.
         13    1    1    2    0    0  0.17037606626E+02  0.20684303057E+02  0.10711224007E+03  0.11041360232E+03  0.10570000000E+00 0.  1.
<mgrwt>
<rscale>  0 0.55607064E+02</rscale>
<asrwt>0</asrwt>
<pdfrwt beam="2">  1        2 0.69244076E-03 0.55607064E+02</pdfrwt>
<pdfrwt beam="1">  1       -2 0.26423515E-01 0.55607064E+02</pdfrwt>
<totfact> 0.23019355E+05</totfact>
</mgrwt>
</event>
<event>
 4    1  0.3704929E-001  0.3920323E+02  0.7818608E-02  0.1514158E+00
          2   -1    0    0  501    0  0.00000000000E+00  0.00000000000E+00  0.11132303083E+02  0.11132303387E+02  0.26000000000E-02 0. -1.
         -2   -1    0    0    0  501 -0.00000000000E+00 -0.00000000000E+00 -0.34514260196E+02  0.34514260294E+02  0.26000000000E-02 0.  1.
        -13    1    1    2    0    0  0.17293961283E+02  0.66142220905E+01 -0.42007109007E+01  0.18986473482E+02  0.10570000000E+00 0. -1.
         13    1    1    2    0    0 -0.17293961283E+02 -0.66142220905E+01 -0.19181246212E+02  0.26660090200E+02  0.10570000000E+00 0.  1.
<mgrwt>
<rscale>  0 0.39203225E+02</rscale>
<asrwt>0</asrwt>
<pdfrwt beam="1">  1        2 0.17126621E-02 0.39203225E+02</pdfrwt>
<pdfrwt beam="2">  1       -2 0.53098862E-02 0.39203225E+02</pdfrwt>
<totfact> 0.76888653E+05</totfact>
</mgrwt>
</event>
<event>
 4    1  0.3704929E-001  0.2821423E+02  0.7818608E-02  0.1618710E+00
         -2   -1    0    0    0  501 -0.00000000000E+00  0.00000000000E+00  0.60928076014E+01  0.60928081561E+01  0.26000000000E-02 0. -1.
          2   -1    0    0  501    0  0.00000000000E+00 -0.00000000000E+00 -0.32663218847E+02  0.32663218950E+02  0.26000000000E-02 0.  1.
        -13    1    1    2    0    0  0.11131609323E+02  0.76499972034E+01 -0.76946056888E+01  0.15545202235E+02  0.10570000000E+00 0. -1.
         13    1    1    2    0    0 -0.11131609323E+02 -0.76499972034E+01 -0.18875805556E+02  0.23210824872E+02  0.10570000000E+00 0.  1.
<mgrwt>
<rscale>  0 0.28214232E+02</rscale>
<asrwt>0</asrwt>
<pdfrwt beam="2">  1        2 0.50251105E-02 0.28214232E+02</pdfrwt>
<pdfrwt beam="1">  1       -2 0.93735509E-03 0.28214232E+02</pdfrwt>
<totfact> 0.19784797E+06</totfact>
</mgrwt>
</event>
<event>
 4    1  0.3704929E-001  0.2294508E+02  0.7818608E-02  0.1692402E+00
          2   -1    0    0  501    0  0.00000000000E+00  0.00000000000E+00  0.28933995067E+02  0.28933995183E+02  0.26000000000E-02 0. -1.
         -2   -1    0    0    0  501 -0.00000000000E+00 -0.00000000000E+00 -0.45489455079E+01  0.45489462509E+01  0.26000000000E-02 0.  1.
        -13    1    1    2    0    0 -0.82261672260E+01 -0.79403575247E+01  0.13568344183E+02  0.17743456293E+02  0.10570000000E+00 0. -1.
         13    1    1    2    0    0  0.82261672260E+01  0.79403575247E+01  0.10816705376E+02  0.15739485142E+02  0.10570000000E+00 0.  1.
<mgrwt>
<rscale>  0 0.22945081E+02</rscale>
<asrwt>0</asrwt>
<pdfrwt beam="1">  1        2 0.44513837E-02 0.22945081E+02</pdfrwt>
<pdfrwt beam="2">  1       -2 0.69983786E-03 0.22945081E+02</pdfrwt>
<totfact> 0.31618117E+06</totfact>
</mgrwt>
</event>
<event>
 4    1  0.3704929E-001  0.2412065E+02  0.7818608E-02  0.1673963E+00
          2   -1    0    0  501    0  0.00000000000E+00  0.00000000000E+00  0.15702063007E+01  0.15702084533E+01  0.26000000000E-02 0.  1.
         -2   -1    0    0    0  501 -0.00000000000E+00 -0.00000000000E+00 -0.92631992637E+02  0.92631992673E+02  0.26000000000E-02 0. -1.
        -13    1    1    2    0    0 -0.11972066335E+02 -0.14433675860E+01 -0.46167695826E+02  0.47716674158E+02  0.10570000000E+00 0.  1.
         13    1    1    2    0    0  0.11972066335E+02  0.14433675860E+01 -0.44894090510E+02  0.46485526968E+02  0.10570000000E+00 0. -1.
<mgrwt>
<rscale>  0 0.24120650E+02</rscale>
<asrwt>0</asrwt>
<pdfrwt beam="1">  1        2 0.24157044E-03 0.24120650E+02</pdfrwt>
<pdfrwt beam="2">  1       -2 0.14251072E-01 0.24120650E+02</pdfrwt>
<totfact> 0.19989373E+06</totfact>
</mgrwt>
</event>
<event>
 4    1  0.3704929E-001  0.3553258E+02  0.7818608E-02  0.1543921E+00
         -2   -1    0    0    0  501 -0.00000000000E+00  0.00000000000E+00  0.50161191453E+01  0.50161198191E+01  0.26000000000E-02 0.  1.
          2   -1    0    0  501    0  0.00000000000E+00 -0.00000000000E+00 -0.62925338493E+02  0.62925338547E+02  0.26000000000E-02 0. -1.
        -13    1    1    2    0    0  0.17713777655E+02  0.50781725987E+00 -0.26540488046E+02  0.31913076871E+02  0.10570000000E+00 0. -1.
         13    1    1    2    0    0 -0.17713777655E+02 -0.50781725987E+00 -0.31368731301E+02  0.36028381495E+02  0.10570000000E+00 0.  1.
<mgrwt>
<rscale>  0 0.35532578E+02</rscale>
<asrwt>0</asrwt>
<pdfrwt beam="2">  1        2 0.96808208E-02 0.35532578E+02</pdfrwt>
<pdfrwt beam="1">  1       -2 0.77171074E-03 0.35532578E+02</pdfrwt>
<totfact> 0.12600550E+06</totfact>
</mgrwt>
</event>
<event>
 4    1  0.3704929E-001  0.2447057E+02  0.7818608E-02  0.1668725E+00
          2   -1    0    0  501    0  0.00000000000E+00  0.00000000000E+00  0.15056567408E+02  0.15056567632E+02  0.26000000000E-02 0. -1.
         -2   -1    0    0    0  501 -0.00000000000E+00 -0.00000000000E+00 -0.99426503372E+01  0.99426506771E+01  0.26000000000E-02 0.  1.
        -13    1    1    2    0    0  0.32706861144E+01 -0.99944668624E+01  0.89453925302E+01  0.13806446883E+02  0.10570000000E+00 0. -1.
         13    1    1    2    0    0 -0.32706861144E+01  0.99944668624E+01 -0.38314754595E+01  0.11192771427E+02  0.10570000000E+00 0.  1.
<mgrwt>
<rscale>  0 0.24470569E+02</rscale>
<asrwt>0</asrwt>
<pdfrwt beam="1">  1        2 0.23163950E-02 0.24470569E+02</pdfrwt>
<pdfrwt beam="2">  1       -2 0.15296386E-02 0.24470569E+02</pdfrwt>
<totfact> 0.25538495E+06</totfact>
</mgrwt>
</event>
<event>
 4    1  0.3704929E-001  0.8712370E+02  0.7818608E-02  0.1309970E+00
         -2   -1    0    0    0  501 -0.00000000000E+00  0.00000000000E+00  0.11182368782E+02  0.11182369084E+02  0.26000000000E-02 0.  1.
          2   -1    0    0  501    0  0.00000000000E+00 -0.00000000000E+00 -0.16969879703E+03  0.16969879705E+03  0.26000000000E-02 0. -1.
        -13    1    1    2    0    0  0.76550523808E+01 -0.24257146745E+02 -0.58374713009E+01  0.26097820576E+02  0.10570000000E+00 0.  1.
         13    1    1    2    0    0 -0.76550523808E+01  0.24257146745E+02 -0.15267895695E+03  0.15478334556E+03  0.10570000000E+00 0. -1.
<mgrwt>
<rscale>  0 0.87123695E+02</rscale>
<asrwt>0</asrwt>
<pdfrwt beam="2">  1        2 0.26107505E-01 0.87123695E+02</pdfrwt>
<pdfrwt beam="1">  1       -2 0.17203646E-02 0.87123695E+02</pdfrwt>
<totfact> 0.16490481E+05</totfact>
</mgrwt>
</event>
<event>
 4    1  0.3704929E-001  0.4805618E+02  0.7818608E-02  0.1456117E+00
         -2   -1    0    0    0  501 -0.00000000000E+00  0.00000000000E+00  0.24470270978E+01  0.24470284791E+01  0.26000000000E-02 0. -1.
          2   -1    0    0  501    0  0.00000000000E+00 -0.00000000000E+00 -0.23593894994E+03  0.23593894996E+03  0.26000000000E-02 0.  1.
        -13    1    1    2    0    0 -0.14767707245E+02  0.18440958017E+02 -0.13847296086E+03  0.14047393413E+03  0.10570000000E+00 0. -1.
         13    1    1    2    0    0  0.14767707245E+02 -0.18440958017E+02 -0.95018961989E+02  0.97912044304E+02  0.10570000000E+00 0.  1.
<mgrwt>
<rscale>  0 0.48056183E+02</rscale>
<asrwt>0</asrwt>
<pdfrwt beam="2">  1        2 0.36298282E-01 0.48056183E+02</pdfrwt>
<pdfrwt beam="1">  1       -2 0.37646600E-03 0.48056183E+02</pdfrwt>
<totfact> 0.85916560E+05</totfact>
</mgrwt>
</event>
<event>
 4    1  0.3704929E-001  0.4836045E+02  0.7818608E-02  0.1454391E+00
          2   -1    0    0  501    0  0.00000000000E+00  0.00000000000E+00  0.98634510674E+02  0.98634510708E+02  0.26000000000E-02 0.  1.
         -2   -1    0    0    0  501 -0.00000000000E+00 -0.00000000000E+00 -0.59277760059E+01  0.59277765761E+01  0.26000000000E-02 0. -1.
        -13    1    1    2    0    0 -0.57519455321E+01 -0.19466995766E+02  0.74760963775E+02  0.77467810596E+02  0.10570000000E+00 0.  1.
         13    1    1    2    0    0  0.57519455321E+01  0.19466995766E+02  0.17945770893E+02  0.27094476688E+02  0.10570000000E+00 0. -1.
<mgrwt>
<rscale>  0 0.48360452E+02</rscale>
<asrwt>0</asrwt>
<pdfrwt beam="1">  1        2 0.15174540E-01 0.48360452E+02</pdfrwt>
<pdfrwt beam="2">  1       -2 0.91196561E-03 0.48360452E+02</pdfrwt>
<totfact> 0.64904646E+05</totfact>
</mgrwt>
</event>
<event>
 4    1  0.3704929E-001  0.4435347E+02  0.7818608E-02  0.1478419E+00
          2   -1    0    0  501    0  0.00000000000E+00  0.00000000000E+00  0.80044349621E+01  0.80044353844E+01  0.26000000000E-02 0. -1.
         -2   -1    0    0    0  501 -0.00000000000E+00 -0.00000000000E+00 -0.61441873543E+02  0.61441873598E+02  0.26000000000E-02 0.  1.
        -13    1    1    2    0    0  0.14302357265E+02 -0.99879681761E+01 -0.52800231107E+01  0.18226539665E+02  0.10570000000E+00 0. -1.
         13    1    1    2    0    0 -0.14302357265E+02  0.99879681761E+01 -0.48157415470E+02  0.51219769317E+02  0.10570000000E+00 0.  1.
<mgrwt>
<rscale>  0 0.44353466E+02</rscale>
<asrwt>0</asrwt>
<pdfrwt beam="1">  1        2 0.12314516E-02 0.44353466E+02</pdfrwt>
<pdfrwt beam="2">  1       -2 0.94525956E-02 0.44353466E+02</pdfrwt>
<totfact> 0.52390724E+05</totfact>
</mgrwt>
</event>
<event>
 4    1  0.3704929E-001  0.3889313E+02  0.7818608E-02  0.1516518E+00
          2   -1    0    0  501    0  0.00000000000E+00  0.00000000000E+00  0.12115805056E+02  0.12115805335E+02  0.26000000000E-02 0. -1.
         -2   -1    0    0    0  501 -0.00000000000E+00 -0.00000000000E+00 -0.31212860699E+02  0.31212860807E+02  0.26000000000E-02 0.  1.
        -13    1    1    2    0    0  0.12704015565E+02 -0.14399663137E+02 -0.12966930328E+02  0.23170989719E+02  0.10570000000E+00 0. -1.
         13    1    1    2    0    0 -0.12704015565E+02  0.14399663137E+02 -0.61301253146E+01  0.20157676423E+02  0.10570000000E+00 0.  1.
<mgrwt>
<rscale>  0 0.38893133E+02</rscale>
<asrwt>0</asrwt>
<pdfrwt beam="1">  1        2 0.18639701E-02 0.38893133E+02</pdfrwt>
<pdfrwt beam="2">  1       -2 0.48019786E-02 0.38893133E+02</pdfrwt>
<totfact> 0.79398676E+05</totfact>
</mgrwt>
</event>
<event>
 4    1  0.3704929E-001  0.4265792E+02  0.7818608E-02  0.1489516E+00
          2   -1    0    0  501    0  0.00000000000E+00  0.00000000000E+00  0.10030419128E+03  0.10030419131E+03  0.26000000000E-02 0. -1.
         -2   -1    0    0    0  501 -0.00000000000E+00 -0.00000000000E+00 -0.45354476040E+01  0.45354483493E+01  0.26000000000E-02 0.  1.
        -13    1    1    2    0    0  0.12086580613E+02 -0.17110867747E+02  0.57729240093E+02  0.61412894088E+02  0.10570000000E+00 0. -1.
         13    1    1    2    0    0 -0.12086580613E+02  0.17110867747E+02  0.38039503583E+02  0.43426745575E+02  0.10570000000E+00 0.  1.
<mgrwt>
<rscale>  0 0.42657916E+02</rscale>
<asrwt>0</asrwt>
<pdfrwt beam="1">  1        2 0.15431413E-01 0.42657916E+02</pdfrwt>
<pdfrwt beam="2">  1       -2 0.69776128E-03 0.42657916E+02</pdfrwt>
<totfact> 0.89216195E+05</totfact>
</mgrwt>
</event>
<event>
 4    1  0.3704929E-001  0.3696113E+02  0.7818608E-02  0.1531844E+00
         -2   -1    0    0    0  501 -0.00000000000E+00  0.00000000000E+00  0.51685017494E+01  0.51685024033E+01  0.26000000000E-02 0.  1.
          2   -1    0    0  501    0  0.00000000000E+00 -0.00000000000E+00 -0.66079347477E+02  0.66079347528E+02  0.26000000000E-02 0. -1.
        -13    1    1    2    0    0 -0.97287248352E+01 -0.11197933217E+02 -0.51701358553E+02  0.53787391124E+02  0.10570000000E+00 0. -1.
         13    1    1    2    0    0  0.97287248352E+01  0.11197933217E+02 -0.92094871748E+01  0.17460458807E+02  0.10570000000E+00 0.  1.
<mgrwt>
<rscale>  0 0.36961128E+02</rscale>
<asrwt>0</asrwt>
<pdfrwt beam="2">  1        2 0.10166053E-01 0.36961128E+02</pdfrwt>
<pdfrwt beam="1">  1       -2 0.79515421E-03 0.36961128E+02</pdfrwt>
<totfact> 0.11554281E+06</totfact>
</mgrwt>
</event>
<event>
 4    1  0.3704929E-001  0.2518101E+02  0.7818608E-02  0.1658415E+00
         -2   -1    0    0    0  501 -0.00000000000E+00  0.00000000000E+00  0.19646619743E+02  0.19646619915E+02  0.26000000000E-02 0. -1.
          2   -1    0    0  501    0  0.00000000000E+00 -0.00000000000E+00 -0.80686067201E+01  0.80686071390E+01  0.26000000000E-02 0.  1.
        -13    1    1    2    0    0 -0.60713624996E+01  0.81850841948E+01 -0.23477403448E+01  0.10458494303E+02  0.10570000000E+00 0.  1.
         13    1    1    2    0    0  0.60713624996E+01 -0.81850841948E+01  0.13925753368E+02  0.17256732750E+02  0.10570000000E+00 0. -1.
<mgrwt>
<rscale>  0 0.25181013E+02</rscale>
<asrwt>0</asrwt>
<pdfrwt beam="2">  1        2 0.12413242E-02 0.25181013E+02</pdfrwt>
<pdfrwt beam="1">  1       -2 0.30225569E-02 0.25181013E+02</pdfrwt>
<totfact> 0.22573155E+06</totfact>
</mgrwt>
</event>
<event>
 4    1  0.3704929E-001  0.2690423E+02  0.7818608E-02  0.1635067E+00
         -2   -1    0    0    0  501 -0.00000000000E+00  0.00000000000E+00  0.10161124755E+03  0.10161124758E+03  0.26000000000E-02 0. -1.
          2   -1    0    0  501    0  0.00000000000E+00 -0.00000000000E+00 -0.17808987779E+01  0.17809006758E+01  0.26000000000E-02 0.  1.
        -13    1    1    2    0    0  0.46103175669E+01  0.11658232073E+02  0.68654870643E+02  0.69790198729E+02  0.10570000000E+00 0.  1.
         13    1    1    2    0    0 -0.46103175669E+01 -0.11658232073E+02  0.31175478127E+02  0.33601949528E+02  0.10570000000E+00 0. -1.
<mgrwt>
<rscale>  0 0.26904234E+02</rscale>
<asrwt>0</asrwt>
<pdfrwt beam="2">  1        2 0.27398448E-03 0.26904234E+02</pdfrwt>
<pdfrwt beam="1">  1       -2 0.15632505E-01 0.26904234E+02</pdfrwt>
<totfact> 0.15266351E+06</totfact>
</mgrwt>
</event>
<event>
 4    1  0.3704929E-001  0.6811558E+02  0.7818608E-02  0.1366621E+00
         -2   -1    0    0    0  501 -0.00000000000E+00  0.00000000000E+00  0.16363513736E+02  0.16363513943E+02  0.26000000000E-02 0. -1.
          2   -1    0    0  501    0  0.00000000000E+00 -0.00000000000E+00 -0.70885322680E+02  0.70885322728E+02  0.26000000000E-02 0.  1.
        -13    1    1    2    0    0  0.19287954165E+02 -0.15688035503E+02 -0.57075268711E+02  0.62255418276E+02  0.10570000000E+00 0.  1.
         13    1    1    2    0    0 -0.19287954165E+02  0.15688035503E+02  0.25534597662E+01  0.24993418395E+02  0.10570000000E+00 0. -1.
<mgrwt>
<rscale>  0 0.68115577E+02</rscale>
<asrwt>0</asrwt>
<pdfrwt beam="2">  1        2 0.10905434E-01 0.68115577E+02</pdfrwt>
<pdfrwt beam="1">  1       -2 0.25174637E-02 0.68115577E+02</pdfrwt>
<totfact> 0.24602834E+05</totfact>
</mgrwt>
</event>
<event>
 4    1  0.3704929E-001  0.4345977E+02  0.7818608E-02  0.1484193E+00
          2   -1    0    0  501    0  0.00000000000E+00  0.00000000000E+00  0.37957300790E+01  0.37957309694E+01  0.26000000000E-02 0. -1.
         -2   -1    0    0    0  501 -0.00000000000E+00 -0.00000000000E+00 -0.12439973388E+03  0.12439973391E+03  0.26000000000E-02 0.  1.
        -13    1    1    2    0    0  0.91654152721E+01 -0.19516526841E+02 -0.68259245665E+02  0.71583765257E+02  0.10570000000E+00 0. -1.
         13    1    1    2    0    0 -0.91654152721E+01  0.19516526841E+02 -0.52344758136E+02  0.56611699620E+02  0.10570000000E+00 0.  1.
<mgrwt>
<rscale>  0 0.43459769E+02</rscale>
<asrwt>0</asrwt>
<pdfrwt beam="1">  1        2 0.58395864E-03 0.43459769E+02</pdfrwt>
<pdfrwt beam="2">  1       -2 0.19138418E-01 0.43459769E+02</pdfrwt>
<totfact> 0.46785211E+05</totfact>
</mgrwt>
</event>
<event>
 4    1  0.3704929E-001  0.5745055E+02  0.7818608E-02  0.1408853E+00
         -2   -1    0    0    0  501 -0.00000000000E+00  0.00000000000E+00  0.16578569147E+02  0.16578569351E+02  0.26000000000E-02 0.  1.
          2   -1    0    0  501    0  0.00000000000E+00 -0.00000000000E+00 -0.49771563629E+02  0.49771563697E+02  0.26000000000E-02 0. -1.
        -13    1    1    2    0    0  0.18084133958E+02 -0.63178118454E+01 -0.41317464604E+02  0.45542229868E+02  0.10570000000E+00 0. -1.
         13    1    1    2    0    0 -0.18084133958E+02  0.63178118454E+01  0.81244701222E+01  0.20807903181E+02  0.10570000000E+00 0.  1.
<mgrwt>
<rscale>  0 0.57450546E+02</rscale>
<asrwt>0</asrwt>
<pdfrwt beam="2">  1        2 0.76571636E-02 0.57450546E+02</pdfrwt>
<pdfrwt beam="1">  1       -2 0.25505491E-02 0.57450546E+02</pdfrwt>
<totfact> 0.35707726E+05</totfact>
</mgrwt>
</event>
<event>
 4    1  0.3704929E-001  0.3172664E+02  0.7818608E-02  0.1579751E+00
          2   -1    0    0  501    0  0.00000000000E+00  0.00000000000E+00  0.14421898216E+02  0.14421898450E+02  0.26000000000E-02 0. -1.
         -2   -1    0    0    0  501 -0.00000000000E+00 -0.00000000000E+00 -0.17448801292E+02  0.17448801486E+02  0.26000000000E-02 0.  1.
        -13    1    1    2    0    0  0.14485123493E+02 -0.55447494842E+01  0.18289112090E+01  0.15617910812E+02  0.10570000000E+00 0. -1.
         13    1    1    2    0    0 -0.14485123493E+02  0.55447494842E+01 -0.48558142857E+01  0.16252789124E+02  0.10570000000E+00 0.  1.
<mgrwt>
<rscale>  0 0.31726635E+02</rscale>
<asrwt>0</asrwt>
<pdfrwt beam="1">  1        2 0.22187536E-02 0.31726635E+02</pdfrwt>
<pdfrwt beam="2">  1       -2 0.26844310E-02 0.31726635E+02</pdfrwt>
<totfact> 0.13584771E+06</totfact>
</mgrwt>
</event>
<event>
 4    1  0.3704929E-001  0.2751306E+02  0.7818608E-02  0.1627326E+00
         -2   -1    0    0    0  501 -0.00000000000E+00  0.00000000000E+00  0.42705918698E+02  0.42705918777E+02  0.26000000000E-02 0. -1.
          2   -1    0    0  501    0  0.00000000000E+00 -0.00000000000E+00 -0.44312860743E+01  0.44312868371E+01  0.26000000000E-02 0.  1.
        -13    1    1    2    0    0  0.14618789240E+01 -0.13670637400E+02  0.18356748582E+02  0.22934794699E+02  0.10570000000E+00 0. -1.
         13    1    1    2    0    0 -0.14618789240E+01  0.13670637400E+02  0.19917884042E+02  0.24202410915E+02  0.10570000000E+00 0.  1.
<mgrwt>
<rscale>  0 0.27513063E+02</rscale>
<asrwt>0</asrwt>
<pdfrwt beam="2">  1        2 0.68173639E-03 0.27513063E+02</pdfrwt>
<pdfrwt beam="1">  1       -2 0.65701414E-02 0.27513063E+02</pdfrwt>
<totfact> 0.16975723E+06</totfact>
</mgrwt>
</event>
<event>
 4    1  0.3704929E-001  0.3784093E+02  0.7818608E-02  0.1524729E+00
          2   -1    0    0  501    0  0.00000000000E+00  0.00000000000E+00  0.21054235751E+02  0.21054235912E+02  0.26000000000E-02 0.  1.
         -2   -1    0    0    0  501 -0.00000000000E+00 -0.00000000000E+00 -0.17002939931E+02  0.17002940129E+02  0.26000000000E-02 0. -1.
        -13    1    1    2    0    0 -0.13268349649E+02 -0.21171519362E+01 -0.11371185909E+02  0.17602456539E+02  0.10570000000E+00 0. -1.
         13    1    1    2    0    0  0.13268349649E+02  0.21171519362E+01  0.15422481729E+02  0.20454719502E+02  0.10570000000E+00 0.  1.
<mgrwt>
<rscale>  0 0.37840926E+02</rscale>
<asrwt>0</asrwt>
<pdfrwt beam="1">  1        2 0.32391132E-02 0.37840926E+02</pdfrwt>
<pdfrwt beam="2">  1       -2 0.26158369E-02 0.37840926E+02</pdfrwt>
<totfact> 0.91358480E+05</totfact>
</mgrwt>
</event>
<event>
 4    1  0.3704929E-001  0.6390424E+02  0.7818608E-02  0.1382141E+00
          2   -1    0    0  501    0  0.00000000000E+00  0.00000000000E+00  0.84252324700E+02  0.84252324740E+02  0.26000000000E-02 0.  1.
         -2   -1    0    0    0  501 -0.00000000000E+00 -0.00000000000E+00 -0.12117624257E+02  0.12117624536E+02  0.26000000000E-02 0. -1.
        -13    1    1    2    0    0 -0.27853946150E+02  0.85114069381E+01  0.16252842964E+02  0.33353447215E+02  0.10570000000E+00 0. -1.
         13    1    1    2    0    0  0.27853946150E+02 -0.85114069381E+01  0.55881857479E+02  0.63016502061E+02  0.10570000000E+00 0.  1.
<mgrwt>
<rscale>  0 0.63904242E+02</rscale>
<asrwt>0</asrwt>
<pdfrwt beam="1">  1        2 0.12961896E-01 0.63904242E+02</pdfrwt>
<pdfrwt beam="2">  1       -2 0.18642499E-02 0.63904242E+02</pdfrwt>
<totfact> 0.30420952E+05</totfact>
</mgrwt>
</event>
<event>
 4    1  0.3704929E-001  0.3498383E+02  0.7818608E-02  0.1548744E+00
         -2   -1    0    0    0  501 -0.00000000000E+00  0.00000000000E+00  0.85003263647E+01  0.85003267623E+01  0.26000000000E-02 0. -1.
          2   -1    0    0  501    0  0.00000000000E+00 -0.00000000000E+00 -0.35994735689E+02  0.35994735783E+02  0.26000000000E-02 0.  1.
        -13    1    1    2    0    0 -0.99080457461E+01 -0.35558363446E+01 -0.31514464426E+02  0.33226284522E+02  0.10570000000E+00 0.  1.
         13    1    1    2    0    0  0.99080457461E+01  0.35558363446E+01  0.40200551017E+01  0.11268778023E+02  0.10570000000E+00 0. -1.
<mgrwt>
<rscale>  0 0.34983826E+02</rscale>
<asrwt>0</asrwt>
<pdfrwt beam="2">  1        2 0.55376516E-02 0.34983826E+02</pdfrwt>
<pdfrwt beam="1">  1       -2 0.13077426E-02 0.34983826E+02</pdfrwt>
<totfact> 0.11924989E+06</totfact>
</mgrwt>
</event>
<event>
 4    1  0.3704929E-001  0.2446519E+02  0.7818608E-02  0.1668804E+00
         -2   -1    0    0    0  501 -0.00000000000E+00  0.00000000000E+00  0.35948820188E+01  0.35948829590E+01  0.26000000000E-02 0. -1.
          2   -1    0    0  501    0  0.00000000000E+00 -0.00000000000E+00 -0.41624846336E+02  0.41624846418E+02  0.26000000000E-02 0.  1.
        -13    1    1    2    0    0  0.67914005480E+01 -0.94619435917E+01 -0.25924313086E+02  0.28420638265E+02  0.10570000000E+00 0.  1.
         13    1    1    2    0    0 -0.67914005480E+01  0.94619435917E+01 -0.12105651232E+02  0.16799091111E+02  0.10570000000E+00 0. -1.
<mgrwt>
<rscale>  0 0.24465194E+02</rscale>
<asrwt>0</asrwt>
<pdfrwt beam="2">  1        2 0.64038222E-02 0.24465194E+02</pdfrwt>
<pdfrwt beam="1">  1       -2 0.55305888E-03 0.24465194E+02</pdfrwt>
<totfact> 0.28546103E+06</totfact>
</mgrwt>
</event>
<event>
 4    1  0.3704929E-001  0.2512439E+02  0.7818608E-02  0.1659222E+00
          2   -1    0    0  501    0  0.00000000000E+00  0.00000000000E+00  0.52568918214E+02  0.52568918278E+02  0.26000000000E-02 0. -1.
         -2   -1    0    0    0  501 -0.00000000000E+00 -0.00000000000E+00 -0.30019403988E+01  0.30019415248E+01  0.26000000000E-02 0.  1.
        -13    1    1    2    0    0 -0.89099792547E+01 -0.81641047991E+01  0.32367605437E+02  0.34550157622E+02  0.10570000000E+00 0. -1.
         13    1    1    2    0    0  0.89099792547E+01  0.81641047991E+01  0.17199372378E+02  0.21020702181E+02  0.10570000000E+00 0.  1.
<mgrwt>
<rscale>  0 0.25124394E+02</rscale>
<asrwt>0</asrwt>
<pdfrwt beam="1">  1        2 0.80875254E-02 0.25124394E+02</pdfrwt>
<pdfrwt beam="2">  1       -2 0.46183711E-03 0.25124394E+02</pdfrwt>
<totfact> 0.27805966E+06</totfact>
</mgrwt>
</event>
<event>
 4    1  0.3704929E-001  0.2888530E+02  0.7818608E-02  0.1610747E+00
          2   -1    0    0  501    0  0.00000000000E+00  0.00000000000E+00  0.23279962330E+02  0.23279962475E+02  0.26000000000E-02 0.  1.
         -2   -1    0    0    0  501 -0.00000000000E+00 -0.00000000000E+00 -0.89600726380E+01  0.89600730152E+01  0.26000000000E-02 0. -1.
        -13    1    1    2    0    0  0.11682745436E+02  0.73725673657E+01  0.24591938723E+01  0.14032109516E+02  0.10570000000E+00 0. -1.
         13    1    1    2    0    0 -0.11682745436E+02 -0.73725673657E+01  0.11860695820E+02  0.18207925974E+02  0.10570000000E+00 0.  1.
<mgrwt>
<rscale>  0 0.28885302E+02</rscale>
<asrwt>0</asrwt>
<pdfrwt beam="1">  1        2 0.35815327E-02 0.28885302E+02</pdfrwt>
<pdfrwt beam="2">  1       -2 0.13784728E-02 0.28885302E+02</pdfrwt>
<totfact> 0.17972144E+06</totfact>
</mgrwt>
</event>
<event>
 4    1  0.3704929E-001  0.4629604E+02  0.7818608E-02  0.1466409E+00
         -2   -1    0    0    0  501 -0.00000000000E+00  0.00000000000E+00  0.12000193729E+02  0.12000194011E+02  0.26000000000E-02 0. -1.
          2   -1    0    0  501    0  0.00000000000E+00 -0.00000000000E+00 -0.44651840260E+02  0.44651840336E+02  0.26000000000E-02 0.  1.
        -13    1    1    2    0    0  0.11202556997E+02  0.20238733807E+02 -0.17361228940E+02  0.28922777739E+02  0.10570000000E+00 0.  1.
         13    1    1    2    0    0 -0.11202556997E+02 -0.20238733807E+02 -0.15290417591E+02  0.27729256607E+02  0.10570000000E+00 0. -1.
<mgrwt>
<rscale>  0 0.46296036E+02</rscale>
<asrwt>0</asrwt>
<pdfrwt beam="2">  1        2 0.68695138E-02 0.46296036E+02</pdfrwt>
<pdfrwt beam="1">  1       -2 0.18461837E-02 0.46296036E+02</pdfrwt>
<totfact> 0.61199812E+05</totfact>
</mgrwt>
</event>
<event>
 4    1  0.3704929E-001  0.3011658E+02  0.7818608E-02  0.1596804E+00
          2   -1    0    0  501    0  0.00000000000E+00  0.00000000000E+00  0.36211541303E+02  0.36211541396E+02  0.26000000000E-02 0.  1.
         -2   -1    0    0    0  501 -0.00000000000E+00 -0.00000000000E+00 -0.62618745774E+01  0.62618751172E+01  0.26000000000E-02 0. -1.
        -13    1    1    2    0    0 -0.73432861821E+01  0.12878363896E+02  0.11252907088E+02  0.18612232511E+02  0.10570000000E+00 0. -1.
         13    1    1    2    0    0  0.73432861821E+01 -0.12878363896E+02  0.18696759637E+02  0.23861184003E+02  0.10570000000E+00 0.  1.
<mgrwt>
<rscale>  0 0.30116583E+02</rscale>
<asrwt>0</asrwt>
<pdfrwt beam="1">  1        2 0.55710064E-02 0.30116583E+02</pdfrwt>
<pdfrwt beam="2">  1       -2 0.96336537E-03 0.30116583E+02</pdfrwt>
<totfact> 0.17164895E+06</totfact>
</mgrwt>
</event>
<event>
 4    1  0.3704929E-001  0.3867983E+02  0.7818608E-02  0.1518157E+00
         -2   -1    0    0    0  501 -0.00000000000E+00  0.00000000000E+00  0.23892254179E+01  0.23892268325E+01  0.26000000000E-02 0. -1.
          2   -1    0    0  501    0  0.00000000000E+00 -0.00000000000E+00 -0.15654955597E+03  0.15654955599E+03  0.26000000000E-02 0.  1.
        -13    1    1    2    0    0 -0.93282314390E+01  0.15748085771E+02 -0.51417933991E+02  0.54578688291E+02  0.10570000000E+00 0. -1.
         13    1    1    2    0    0  0.93282314390E+01 -0.15748085771E+02 -0.10274239656E+03  0.10436009453E+03  0.10570000000E+00 0.  1.
<mgrwt>
<rscale>  0 0.38679829E+02</rscale>
<asrwt>0</asrwt>
<pdfrwt beam="2">  1        2 0.24084539E-01 0.38679829E+02</pdfrwt>
<pdfrwt beam="1">  1       -2 0.36757337E-03 0.38679829E+02</pdfrwt>
<totfact> 0.12834700E+06</totfact>
</mgrwt>
</event>
<event>
 4    1  0.3704929E-001  0.2956513E+02  0.7818608E-02  0.1602946E+00
         -2   -1    0    0    0  501 -0.00000000000E+00  0.00000000000E+00  0.73273130023E+01  0.73273134635E+01  0.26000000000E-02 0. -1.
          2   -1    0    0  501    0  0.00000000000E+00 -0.00000000000E+00 -0.29823232150E+02  0.29823232264E+02  0.26000000000E-02 0.  1.
        -13    1    1    2    0    0  0.11826647054E+02 -0.25977743969E+01 -0.21902500852E+02  0.25026960032E+02  0.10570000000E+00 0.  1.
         13    1    1    2    0    0 -0.11826647054E+02  0.25977743969E+01 -0.59341829568E+00  0.12123585695E+02  0.10570000000E+00 0. -1.
<mgrwt>
<rscale>  0 0.29565126E+02</rscale>
<asrwt>0</asrwt>
<pdfrwt beam="2">  1        2 0.45881895E-02 0.29565126E+02</pdfrwt>
<pdfrwt beam="1">  1       -2 0.11272790E-02 0.29565126E+02</pdfrwt>
<totfact> 0.17495810E+06</totfact>
</mgrwt>
</event>
<event>
 4    1  0.3704929E-001  0.3149790E+02  0.7818608E-02  0.1582098E+00
          2   -1    0    0  501    0  0.00000000000E+00  0.00000000000E+00  0.38415611483E+02  0.38415611571E+02  0.26000000000E-02 0.  1.
         -2   -1    0    0    0  501 -0.00000000000E+00 -0.00000000000E+00 -0.64564730992E+01  0.64564736227E+01  0.26000000000E-02 0. -1.
        -13    1    1    2    0    0 -0.66877988908E+00 -0.14397037300E+02  0.69362672322E+01  0.15995153177E+02  0.10570000000E+00 0.  1.
         13    1    1    2    0    0  0.66877988908E+00  0.14397037300E+02  0.25022871152E+02  0.28876932017E+02  0.10570000000E+00 0. -1.
<mgrwt>
<rscale>  0 0.31497897E+02</rscale>
<asrwt>0</asrwt>
<pdfrwt beam="1">  1        2 0.59100942E-02 0.31497897E+02</pdfrwt>
<pdfrwt beam="2">  1       -2 0.99330358E-03 0.31497897E+02</pdfrwt>
<totfact> 0.15537603E+06</totfact>
</mgrwt>
</event>
<event>
 4    1  0.3704929E-001  0.5069695E+02  0.7818608E-02  0.1441618E+00
          2   -1    0    0  501    0  0.00000000000E+00  0.00000000000E+00  0.22635757710E+03  0.22635757711E+03  0.26000000000E-02 0. -1.
         -2   -1    0    0    0  501 -0.00000000000E+00 -0.00000000000E+00 -0.28386278748E+01  0.28386290655E+01  0.26000000000E-02 0.  1.
        -13    1    1    2    0    0 -0.14111837697E+02  0.21055796894E+02  0.11081821730E+03  0.11368016100E+03  0.10570000000E+00 0. -1.
         13    1    1    2    0    0  0.14111837697E+02 -0.21055796894E+02  0.11270073192E+03  0.11551604518E+03  0.10570000000E+00 0.  1.
<mgrwt>
<rscale>  0 0.50696945E+02</rscale>
<asrwt>0</asrwt>
<pdfrwt beam="1">  1        2 0.34824241E-01 0.50696945E+02</pdfrwt>
<pdfrwt beam="2">  1       -2 0.43671210E-03 0.50696945E+02</pdfrwt>
<totfact> 0.74133966E+05</totfact>
</mgrwt>
</event>
<event>
 4    1  0.3704929E-001  0.8808790E+02  0.7818608E-02  0.1307549E+00
         -2   -1    0    0    0  501 -0.00000000000E+00  0.00000000000E+00  0.78415090843E+01  0.78415095154E+01  0.26000000000E-02 0.  1.
          2   -1    0    0  501    0  0.00000000000E+00 -0.00000000000E+00 -0.24738472284E+03  0.24738472285E+03  0.26000000000E-02 0. -1.
        -13    1    1    2    0    0  0.33546685036E+02 -0.19629383324E+02 -0.59748077115E+02  0.71277883372E+02  0.10570000000E+00 0.  1.
         13    1    1    2    0    0 -0.33546685036E+02  0.19629383324E+02 -0.17979513664E+03  0.18394834900E+03  0.10570000000E+00 0. -1.
<mgrwt>
<rscale>  0 0.88087902E+02</rscale>
<asrwt>0</asrwt>
<pdfrwt beam="2">  1        2 0.38059182E-01 0.88087902E+02</pdfrwt>
<pdfrwt beam="1">  1       -2 0.12063862E-02 0.88087902E+02</pdfrwt>
<totfact> 0.18333714E+05</totfact>
</mgrwt>
</event>
<event>
 4    1  0.3704929E-001  0.2040184E+02  0.7818608E-02  0.1737453E+00
         -2   -1    0    0    0  501 -0.00000000000E+00  0.00000000000E+00  0.12176712147E+02  0.12176712425E+02  0.26000000000E-02 0. -1.
          2   -1    0    0  501    0  0.00000000000E+00 -0.00000000000E+00 -0.85457190144E+01  0.85457194099E+01  0.26000000000E-02 0.  1.
        -13    1    1    2    0    0  0.80446547099E+01 -0.62703176701E+01  0.16942817361E+01  0.10339976604E+02  0.10570000000E+00 0. -1.
         13    1    1    2    0    0 -0.80446547099E+01  0.62703176701E+01  0.19367113967E+01  0.10382455230E+02  0.10570000000E+00 0.  1.
<mgrwt>
<rscale>  0 0.20401840E+02</rscale>
<asrwt>0</asrwt>
<pdfrwt beam="2">  1        2 0.13147260E-02 0.20401840E+02</pdfrwt>
<pdfrwt beam="1">  1       -2 0.18733404E-02 0.20401840E+02</pdfrwt>
<totfact> 0.37266973E+06</totfact>
</mgrwt>
</event>
<event>
 4    1  0.3704929E-001  0.2826520E+02  0.7818608E-02  0.1618096E+00
         -2   -1    0    0    0  501 -0.00000000000E+00  0.00000000000E+00  0.10337243143E+02  0.10337243470E+02  0.26000000000E-02 0. -1.
          2   -1    0    0  501    0  0.00000000000E+00 -0.00000000000E+00 -0.19321431327E+02  0.19321431502E+02  0.26000000000E-02 0.  1.
        -13    1    1    2    0    0 -0.10293223641E+02  0.23088626768E+01 -0.14359860520E+02  0.17818475424E+02  0.10570000000E+00 0.  1.
         13    1    1    2    0    0  0.10293223641E+02 -0.23088626768E+01  0.53756723360E+01  0.11840199548E+02  0.10570000000E+00 0. -1.
<mgrwt>
<rscale>  0 0.28265197E+02</rscale>
<asrwt>0</asrwt>
<pdfrwt beam="2">  1        2 0.29725279E-02 0.28265197E+02</pdfrwt>
<pdfrwt beam="1">  1       -2 0.15903451E-02 0.28265197E+02</pdfrwt>
<totfact> 0.18560791E+06</totfact>
</mgrwt>
</event>
<event>
 4    1  0.3704929E-001  0.2181126E+02  0.7818608E-02  0.1711537E+00
         -2   -1    0    0    0  501 -0.00000000000E+00  0.00000000000E+00  0.25410597887E+02  0.25410598020E+02  0.26000000000E-02 0. -1.
          2   -1    0    0  501    0  0.00000000000E+00 -0.00000000000E+00 -0.46804391663E+01  0.46804398885E+01  0.26000000000E-02 0.  1.
        -13    1    1    2    0    0 -0.76874592022E+01  0.69684490708E+01  0.14995575490E+02  0.18235535863E+02  0.10570000000E+00 0. -1.
         13    1    1    2    0    0  0.76874592022E+01 -0.69684490708E+01  0.57345832309E+01  0.11855502046E+02  0.10570000000E+00 0.  1.
<mgrwt>
<rscale>  0 0.21811260E+02</rscale>
<asrwt>0</asrwt>
<pdfrwt beam="2">  1        2 0.72006762E-03 0.21811260E+02</pdfrwt>
<pdfrwt beam="1">  1       -2 0.39093229E-02 0.21811260E+02</pdfrwt>
<totfact> 0.30308844E+06</totfact>
</mgrwt>
</event>
<event>
 4    1  0.3704929E-001  0.2863467E+02  0.7818608E-02  0.1613690E+00
          2   -1    0    0  501    0  0.00000000000E+00  0.00000000000E+00  0.41856487183E+01  0.41856495259E+01  0.26000000000E-02 0. -1.
         -2   -1    0    0    0  501 -0.00000000000E+00 -0.00000000000E+00 -0.48973559418E+02  0.48973559487E+02  0.26000000000E-02 0.  1.
        -13    1    1    2    0    0 -0.11603471061E+02  0.75793590908E+01 -0.29058564501E+02  0.32194697828E+02  0.10570000000E+00 0.  1.
         13    1    1    2    0    0  0.11603471061E+02 -0.75793590908E+01 -0.15729346199E+02  0.20964511185E+02  0.10570000000E+00 0. -1.
<mgrwt>
<rscale>  0 0.28634674E+02</rscale>
<asrwt>0</asrwt>
<pdfrwt beam="1">  1        2 0.64394606E-03 0.28634674E+02</pdfrwt>
<pdfrwt beam="2">  1       -2 0.75343934E-02 0.28634674E+02</pdfrwt>
<totfact> 0.15199469E+06</totfact>
</mgrwt>
</event>
<event>
 4    1  0.3704929E-001  0.2692337E+02  0.7818608E-02  0.1634820E+00
          2   -1    0    0  501    0  0.00000000000E+00  0.00000000000E+00  0.52258778795E+02  0.52258778860E+02  0.26000000000E-02 0.  1.
         -2   -1    0    0    0  501 -0.00000000000E+00 -0.00000000000E+00 -0.34676846750E+01  0.34676856497E+01  0.26000000000E-02 0. -1.
        -13    1    1    2    0    0 -0.11964968256E+02  0.61616052146E+01  0.23810192409E+02  0.27350727216E+02  0.10570000000E+00 0.  1.
         13    1    1    2    0    0  0.11964968256E+02 -0.61616052146E+01  0.24980901710E+02  0.28375737293E+02  0.10570000000E+00 0. -1.
<mgrwt>
<rscale>  0 0.26923372E+02</rscale>
<asrwt>0</asrwt>
<pdfrwt beam="1">  1        2 0.80398115E-02 0.26923372E+02</pdfrwt>
<pdfrwt beam="2">  1       -2 0.53349008E-03 0.26923372E+02</pdfrwt>
<totfact> 0.23646535E+06</totfact>
</mgrwt>
</event>
<event>
 4    1  0.3704929E-001  0.2063530E+02  0.7818608E-02  0.1732982E+00
          2   -1    0    0  501    0  0.00000000000E+00  0.00000000000E+00  0.14155393686E+02  0.14155393925E+02  0.26000000000E-02 0.  1.
         -2   -1    0    0    0  501 -0.00000000000E+00 -0.00000000000E+00 -0.75203756834E+01  0.75203761328E+01  0.26000000000E-02 0. -1.
        -13    1    1    2    0    0 -0.10727546383E+01  0.10016424805E+02  0.56576512824E+01  0.11554209576E+02  0.10570000000E+00 0.  1.
         13    1    1    2    0    0  0.10727546383E+01 -0.10016424805E+02  0.97736672034E+00  0.10121560482E+02  0.10570000000E+00 0. -1.
<mgrwt>
<rscale>  0 0.20635298E+02</rscale>
<asrwt>0</asrwt>
<pdfrwt beam="1">  1        2 0.21777529E-02 0.20635298E+02</pdfrwt>
<pdfrwt beam="2">  1       -2 0.11569809E-02 0.20635298E+02</pdfrwt>
<totfact> 0.37721553E+06</totfact>
</mgrwt>
</event>
<event>
 4    1  0.3704929E-001  0.8223066E+02  0.7818608E-02  0.1322838E+00
         -2   -1    0    0    0  501 -0.00000000000E+00  0.00000000000E+00  0.18006859318E+02  0.18006859506E+02  0.26000000000E-02 0.  1.
          2   -1    0    0  501    0  0.00000000000E+00 -0.00000000000E+00 -0.93879255726E+02  0.93879255762E+02  0.26000000000E-02 0. -1.
        -13    1    1    2    0    0 -0.10659191755E+02  0.24451157632E+02 -0.80508754375E+02  0.84812429407E+02  0.10570000000E+00 0. -1.
         13    1    1    2    0    0  0.10659191755E+02 -0.24451157632E+02  0.46363579676E+01  0.27073685861E+02  0.10570000000E+00 0.  1.
<mgrwt>
<rscale>  0 0.82230665E+02</rscale>
<asrwt>0</asrwt>
<pdfrwt beam="2">  1        2 0.14442962E-01 0.82230665E+02</pdfrwt>
<pdfrwt beam="1">  1       -2 0.27702861E-02 0.82230665E+02</pdfrwt>
<totfact> 0.15967775E+05</totfact>
</mgrwt>
</event>
<event>
 4    1  0.3704929E-001  0.2295090E+02  0.7818608E-02  0.1692307E+00
         -2   -1    0    0    0  501 -0.00000000000E+00  0.00000000000E+00  0.37492403086E+02  0.37492403176E+02  0.26000000000E-02 0. -1.
          2   -1    0    0  501    0  0.00000000000E+00 -0.00000000000E+00 -0.35123377596E+01  0.35123387220E+01  0.26000000000E-02 0.  1.
        -13    1    1    2    0    0 -0.39398990372E+01 -0.10298767793E+02  0.11315578326E+02  0.15800028729E+02  0.10570000000E+00 0.  1.
         13    1    1    2    0    0  0.39398990372E+01  0.10298767793E+02  0.22664486999E+02  0.25204713169E+02  0.10570000000E+00 0. -1.
<mgrwt>
<rscale>  0 0.22950905E+02</rscale>
<asrwt>0</asrwt>
<pdfrwt beam="2">  1        2 0.54035975E-03 0.22950905E+02</pdfrwt>
<pdfrwt beam="1">  1       -2 0.57680619E-02 0.22950905E+02</pdfrwt>
<totfact> 0.25974114E+06</totfact>
</mgrwt>
</event>
<event>
 4    1  0.3704929E-001  0.2479935E+02  0.7818608E-02  0.1663901E+00
          2   -1    0    0  501    0  0.00000000000E+00  0.00000000000E+00  0.11517604117E+02  0.11517604410E+02  0.26000000000E-02 0. -1.
         -2   -1    0    0    0  501 -0.00000000000E+00 -0.00000000000E+00 -0.13349294470E+02  0.13349294723E+02  0.26000000000E-02 0.  1.
        -13    1    1    2    0    0 -0.15423790498E+01  0.11860510936E+02  0.23626283506E+01  0.12191957923E+02  0.10570000000E+00 0. -1.
         13    1    1    2    0    0  0.15423790498E+01 -0.11860510936E+02 -0.41943187037E+01  0.12674941210E+02  0.10570000000E+00 0.  1.
<mgrwt>
<rscale>  0 0.24799346E+02</rscale>
<asrwt>0</asrwt>
<pdfrwt beam="1">  1        2 0.17719391E-02 0.24799346E+02</pdfrwt>
<pdfrwt beam="2">  1       -2 0.20537377E-02 0.24799346E+02</pdfrwt>
<totfact> 0.24169198E+06</totfact>
</mgrwt>
</event>
<event>
 4    1  0.3704929E-001  0.5863870E+02  0.7818608E-02  0.1403635E+00
          2   -1    0    0  501    0  0.00000000000E+00  0.00000000000E+00  0.61858351490E+02  0.61858351545E+02  0.26000000000E-02 0. -1.
         -2   -1    0    0    0  501 -0.00000000000E+00 -0.00000000000E+00 -0.13896654846E+02  0.13896655090E+02  0.26000000000E-02 0.  1.
        -13    1    1    2    0    0  0.49000183848E+00  0.28062777225E+02  0.34931773006E+02  0.44810707484E+02  0.10570000000E+00 0. -1.
         13    1    1    2    0    0 -0.49000183848E+00 -0.28062777225E+02  0.13029923638E+02  0.30944299150E+02  0.10570000000E+00 0.  1.
<mgrwt>
<rscale>  0 0.58638696E+02</rscale>
<asrwt>0</asrwt>
<pdfrwt beam="1">  1        2 0.95166693E-02 0.58638696E+02</pdfrwt>
<pdfrwt beam="2">  1       -2 0.21379470E-02 0.58638696E+02</pdfrwt>
<totfact> 0.35421990E+05</totfact>
</mgrwt>
</event>
<event>
 4    1  0.3704929E-001  0.3212827E+02  0.7818608E-02  0.1575689E+00
          2   -1    0    0  501    0  0.00000000000E+00  0.00000000000E+00  0.65227710950E+01  0.65227716131E+01  0.26000000000E-02 0. -1.
         -2   -1    0    0    0  501 -0.00000000000E+00 -0.00000000000E+00 -0.39562382968E+02  0.39562383054E+02  0.26000000000E-02 0.  1.
        -13    1    1    2    0    0 -0.29904181248E+01 -0.11491632470E+02 -0.32038321282E+02  0.34168193110E+02  0.10570000000E+00 0.  1.
         13    1    1    2    0    0  0.29904181248E+01  0.11491632470E+02 -0.10012905916E+01  0.11916961556E+02  0.10570000000E+00 0. -1.
<mgrwt>
<rscale>  0 0.32128267E+02</rscale>
<asrwt>0</asrwt>
<pdfrwt beam="1">  1        2 0.10035033E-02 0.32128267E+02</pdfrwt>
<pdfrwt beam="2">  1       -2 0.60865204E-02 0.32128267E+02</pdfrwt>
<totfact> 0.12006004E+06</totfact>
</mgrwt>
</event>
<event>
 4    1  0.3704929E-001  0.2507784E+02  0.7818608E-02  0.1659886E+00
          2   -1    0    0  501    0  0.00000000000E+00  0.00000000000E+00  0.14617203582E+02  0.14617203813E+02  0.26000000000E-02 0. -1.
         -2   -1    0    0    0  501 -0.00000000000E+00 -0.00000000000E+00 -0.10756128390E+02  0.10756128704E+02  0.26000000000E-02 0.  1.
        -13    1    1    2    0    0  0.74420394224E+01  0.72823460292E+01  0.89983206666E+01  0.13762175037E+02  0.10570000000E+00 0. -1.
         13    1    1    2    0    0 -0.74420394224E+01 -0.72823460292E+01 -0.51372454748E+01  0.11611157479E+02  0.10570000000E+00 0.  1.
<mgrwt>
<rscale>  0 0.25077841E+02</rscale>
<asrwt>0</asrwt>
<pdfrwt beam="1">  1        2 0.22488006E-02 0.25077841E+02</pdfrwt>
<pdfrwt beam="2">  1       -2 0.16547890E-02 0.25077841E+02</pdfrwt>
<totfact> 0.24037208E+06</totfact>
</mgrwt>
</event>
<event>
 4    1  0.3704929E-001  0.2936740E+02  0.7818608E-02  0.1605188E+00
         -2   -1    0    0    0  501 -0.00000000000E+00  0.00000000000E+00  0.22966243191E+01  0.22966257908E+01  0.26000000000E-02 0.  1.
          2   -1    0    0  501    0  0.00000000000E+00 -0.00000000000E+00 -0.93881665528E+02  0.93881665564E+02  0.26000000000E-02 0. -1.
        -13    1    1    2    0    0  0.90686438382E+01 -0.11366282613E+02 -0.39107074604E+02  0.41722980934E+02  0.10570000000E+00 0.  1.
         13    1    1    2    0    0 -0.90686438382E+01  0.11366282613E+02 -0.52477966606E+02  0.54455310421E+02  0.10570000000E+00 0. -1.
<mgrwt>
<rscale>  0 0.29367396E+02</rscale>
<asrwt>0</asrwt>
<pdfrwt beam="2">  1        2 0.14443330E-01 0.29367396E+02</pdfrwt>
<pdfrwt beam="1">  1       -2 0.35332701E-03 0.29367396E+02</pdfrwt>
<totfact> 0.21646221E+06</totfact>
</mgrwt>
</event>
<event>
 4    1  0.3704929E-001  0.2446257E+02  0.7818608E-02  0.1668843E+00
          2   -1    0    0  501    0  0.00000000000E+00  0.00000000000E+00  0.50490466011E+01  0.50490472705E+01  0.26000000000E-02 0.  1.
         -2   -1    0    0    0  501 -0.00000000000E+00 -0.00000000000E+00 -0.29630207664E+02  0.29630207778E+02  0.26000000000E-02 0. -1.
        -13    1    1    2    0    0 -0.66390128822E+01 -0.77753271895E+01 -0.27742874532E+01  0.10594340391E+02  0.10570000000E+00 0.  1.
         13    1    1    2    0    0  0.66390128822E+01  0.77753271895E+01 -0.21806873610E+02  0.24084914658E+02  0.10570000000E+00 0. -1.
<mgrwt>
<rscale>  0 0.24462568E+02</rscale>
<asrwt>0</asrwt>
<pdfrwt beam="1">  1        2 0.77677648E-03 0.24462568E+02</pdfrwt>
<pdfrwt beam="2">  1       -2 0.45584935E-02 0.24462568E+02</pdfrwt>
<totfact> 0.23130833E+06</totfact>
</mgrwt>
</event>
<event>
 4    1  0.3704929E-001  0.4345493E+02  0.7818608E-02  0.1484224E+00
         -2   -1    0    0    0  501 -0.00000000000E+00  0.00000000000E+00  0.51131117906E+01  0.51131124516E+01  0.26000000000E-02 0. -1.
          2   -1    0    0  501    0  0.00000000000E+00 -0.00000000000E+00 -0.92327880254E+02  0.92327880290E+02  0.26000000000E-02 0.  1.
        -13    1    1    2    0    0  0.40509820404E+01 -0.16063079856E+02 -0.75131182944E+02  0.76935939671E+02  0.10570000000E+00 0.  1.
         13    1    1    2    0    0 -0.40509820404E+01  0.16063079856E+02 -0.12083585519E+02  0.20505053071E+02  0.10570000000E+00 0. -1.
<mgrwt>
<rscale>  0 0.43454933E+02</rscale>
<asrwt>0</asrwt>
<pdfrwt beam="2">  1        2 0.14204288E-01 0.43454933E+02</pdfrwt>
<pdfrwt beam="1">  1       -2 0.78663271E-03 0.43454933E+02</pdfrwt>
<totfact> 0.83465107E+05</totfact>
</mgrwt>
</event>
<event>
 4    1  0.3704929E-001  0.2216579E+02  0.7818608E-02  0.1705400E+00
          2   -1    0    0  501    0  0.00000000000E+00  0.00000000000E+00  0.18173837585E+02  0.18173837771E+02  0.26000000000E-02 0.  1.
         -2   -1    0    0    0  501 -0.00000000000E+00 -0.00000000000E+00 -0.67586441784E+01  0.67586446785E+01  0.26000000000E-02 0. -1.
        -13    1    1    2    0    0 -0.10238653216E+01  0.10146852879E+02  0.10586302885E+02  0.14699928735E+02  0.10570000000E+00 0. -1.
         13    1    1    2    0    0  0.10238653216E+01 -0.10146852879E+02  0.82889052219E+00  0.10232553715E+02  0.10570000000E+00 0.  1.
<mgrwt>
<rscale>  0 0.22165785E+02</rscale>
<asrwt>0</asrwt>
<pdfrwt beam="1">  1        2 0.27959751E-02 0.22165785E+02</pdfrwt>
<pdfrwt beam="2">  1       -2 0.10397915E-02 0.22165785E+02</pdfrwt>
<totfact> 0.32688891E+06</totfact>
</mgrwt>
</event>
<event>
 4    1  0.3704929E-001  0.2230329E+02  0.7818608E-02  0.1703059E+00
         -2   -1    0    0    0  501 -0.00000000000E+00  0.00000000000E+00  0.27012818900E+01  0.27012831412E+01  0.26000000000E-02 0.  1.
          2   -1    0    0  501    0  0.00000000000E+00 -0.00000000000E+00 -0.46037075169E+02  0.46037075243E+02  0.26000000000E-02 0. -1.
        -13    1    1    2    0    0  0.24841975055E+01 -0.10274266742E+02 -0.13906032847E+02  0.17467704954E+02  0.10570000000E+00 0.  1.
         13    1    1    2    0    0 -0.24841975055E+01  0.10274266742E+02 -0.29429760433E+02  0.31270653430E+02  0.10570000000E+00 0. -1.
<mgrwt>
<rscale>  0 0.22303287E+02</rscale>
<asrwt>0</asrwt>
<pdfrwt beam="2">  1        2 0.70826265E-02 0.22303287E+02</pdfrwt>
<pdfrwt beam="1">  1       -2 0.41558196E-03 0.22303287E+02</pdfrwt>
<totfact> 0.35802852E+06</totfact>
</mgrwt>
</event>
<event>
 4    1  0.3704929E-001  0.2386719E+02  0.7818608E-02  0.1677827E+00
          2   -1    0    0  501    0  0.00000000000E+00  0.00000000000E+00  0.10002201674E+03  0.10002201678E+03  0.26000000000E-02 0.  1.
         -2   -1    0    0    0  501 -0.00000000000E+00 -0.00000000000E+00 -0.14237918746E+01  0.14237942485E+01  0.26000000000E-02 0. -1.
        -13    1    1    2    0    0 -0.35856178257E+01 -0.11337634599E+02  0.45046831990E+02  0.46589986675E+02  0.10570000000E+00 0. -1.
         13    1    1    2    0    0  0.35856178257E+01  0.11337634599E+02  0.53551392877E+02  0.54855824349E+02  0.10570000000E+00 0.  1.
<mgrwt>
<rscale>  0 0.23867187E+02</rscale>
<asrwt>0</asrwt>
<pdfrwt beam="1">  1        2 0.15388005E-01 0.23867187E+02</pdfrwt>
<pdfrwt beam="2">  1       -2 0.21904506E-03 0.23867187E+02</pdfrwt>
<totfact> 0.35502449E+06</totfact>
</mgrwt>
</event>
<event>
 4    1  0.3704929E-001  0.2694242E+02  0.7818608E-02  0.1634574E+00
         -2   -1    0    0    0  501 -0.00000000000E+00  0.00000000000E+00  0.33587707494E+01  0.33587717558E+01  0.26000000000E-02 0. -1.
          2   -1    0    0  501    0  0.00000000000E+00 -0.00000000000E+00 -0.54029720809E+02  0.54029720872E+02  0.26000000000E-02 0.  1.
        -13    1    1    2    0    0 -0.12464672129E+02 -0.46356300502E+01 -0.29906481835E+02  0.32730199289E+02  0.10570000000E+00 0.  1.
         13    1    1    2    0    0  0.12464672129E+02  0.46356300502E+01 -0.20764468225E+02  0.24658293339E+02  0.10570000000E+00 0. -1.
<mgrwt>
<rscale>  0 0.26942418E+02</rscale>
<asrwt>0</asrwt>
<pdfrwt beam="2">  1        2 0.83122642E-02 0.26942418E+02</pdfrwt>
<pdfrwt beam="1">  1       -2 0.51673408E-03 0.26942418E+02</pdfrwt>
<totfact> 0.23738321E+06</totfact>
</mgrwt>
</event>
<event>
 4    1  0.3704929E-001  0.7013051E+02  0.7818608E-02  0.1359650E+00
          2   -1    0    0  501    0  0.00000000000E+00  0.00000000000E+00  0.49892239210E+02  0.49892239277E+02  0.26000000000E-02 0.  1.
         -2   -1    0    0    0  501 -0.00000000000E+00 -0.00000000000E+00 -0.24644557965E+02  0.24644558102E+02  0.26000000000E-02 0. -1.
        -13    1    1    2    0    0 -0.13665756809E+02  0.29918884674E+02  0.25539231990E+02  0.41643200075E+02  0.10570000000E+00 0.  1.
         13    1    1    2    0    0  0.13665756809E+02 -0.29918884674E+02 -0.29155074523E+00  0.32893597305E+02  0.10570000000E+00 0. -1.
<mgrwt>
<rscale>  0 0.70130512E+02</rscale>
<asrwt>0</asrwt>
<pdfrwt beam="1">  1        2 0.76757291E-02 0.70130512E+02</pdfrwt>
<pdfrwt beam="2">  1       -2 0.37914705E-02 0.70130512E+02</pdfrwt>
<totfact> 0.20964682E+05</totfact>
</mgrwt>
</event>
<event>
 4    1  0.3704929E-001  0.2723608E+02  0.7818608E-02  0.1630817E+00
         -2   -1    0    0    0  501 -0.00000000000E+00  0.00000000000E+00  0.38004097608E+01  0.38004106502E+01  0.26000000000E-02 0. -1.
          2   -1    0    0  501    0  0.00000000000E+00 -0.00000000000E+00 -0.48797644220E+02  0.48797644289E+02  0.26000000000E-02 0.  1.
        -13    1    1    2    0    0  0.12721352550E+02 -0.33454225503E+01 -0.29303215061E+02  0.32120308968E+02  0.10570000000E+00 0.  1.
         13    1    1    2    0    0 -0.12721352550E+02  0.33454225503E+01 -0.15694019398E+02  0.20477745972E+02  0.10570000000E+00 0. -1.
<mgrwt>
<rscale>  0 0.27236084E+02</rscale>
<asrwt>0</asrwt>
<pdfrwt beam="2">  1        2 0.75073295E-02 0.27236084E+02</pdfrwt>
<pdfrwt beam="1">  1       -2 0.58467853E-03 0.27236084E+02</pdfrwt>
<totfact> 0.22762184E+06</totfact>
</mgrwt>
</event>
<event>
 4    1  0.3704929E-001  0.3198182E+02  0.7818608E-02  0.1577162E+00
         -2   -1    0    0    0  501 -0.00000000000E+00  0.00000000000E+00  0.45965316402E+02  0.45965316475E+02  0.26000000000E-02 0.  1.
          2   -1    0    0  501    0  0.00000000000E+00 -0.00000000000E+00 -0.55630914867E+01  0.55630920943E+01  0.26000000000E-02 0. -1.
        -13    1    1    2    0    0  0.10239753850E+02  0.34630652368E+01  0.12156711839E+01  0.10878162008E+02  0.10570000000E+00 0. -1.
         13    1    1    2    0    0 -0.10239753850E+02 -0.34630652368E+01  0.39186553731E+02  0.40650246562E+02  0.10570000000E+00 0.  1.
<mgrwt>
<rscale>  0 0.31981825E+02</rscale>
<asrwt>0</asrwt>
<pdfrwt beam="2">  1        2 0.85586027E-03 0.31981825E+02</pdfrwt>
<pdfrwt beam="1">  1       -2 0.70715873E-02 0.31981825E+02</pdfrwt>
<totfact> 0.11884312E+06</totfact>
</mgrwt>
</event>
<event>
 4    1  0.3704929E-001  0.2700159E+02  0.7818608E-02  0.1633812E+00
          2   -1    0    0  501    0  0.00000000000E+00  0.00000000000E+00  0.77125584479E+02  0.77125584523E+02  0.26000000000E-02 0. -1.
         -2   -1    0    0    0  501 -0.00000000000E+00 -0.00000000000E+00 -0.23633074615E+01  0.23633088917E+01  0.26000000000E-02 0.  1.
        -13    1    1    2    0    0 -0.42473589783E+00  0.13403097782E+02  0.41976694765E+02  0.44066739233E+02  0.10570000000E+00 0. -1.
         13    1    1    2    0    0  0.42473589783E+00 -0.13403097782E+02  0.32785582252E+02  0.35422154181E+02  0.10570000000E+00 0.  1.
<mgrwt>
<rscale>  0 0.27001595E+02</rscale>
<asrwt>0</asrwt>
<pdfrwt beam="1">  1        2 0.11865473E-01 0.27001595E+02</pdfrwt>
<pdfrwt beam="2">  1       -2 0.36358593E-03 0.27001595E+02</pdfrwt>
<totfact> 0.25237970E+06</totfact>
</mgrwt>
</event>
<event>
 4    1  0.3704929E-001  0.2511811E+02  0.7818608E-02  0.1659311E+00
         -2   -1    0    0    0  501 -0.00000000000E+00  0.00000000000E+00  0.37711086909E+01  0.37711095872E+01  0.26000000000E-02 0.  1.
          2   -1    0    0  501    0  0.00000000000E+00 -0.00000000000E+00 -0.41825852968E+02  0.41825853048E+02  0.26000000000E-02 0. -1.
        -13    1    1    2    0    0 -0.38865648578E+01 -0.94435908741E+01 -0.57580347269E+01  0.11724032216E+02  0.10570000000E+00 0.  1.
         13    1    1    2    0    0  0.38865648578E+01  0.94435908741E+01 -0.32296709550E+02  0.33872930420E+02  0.10570000000E+00 0. -1.
<mgrwt>
<rscale>  0 0.25118110E+02</rscale>
<asrwt>0</asrwt>
<pdfrwt beam="2">  1        2 0.64347464E-02 0.25118110E+02</pdfrwt>
<pdfrwt beam="1">  1       -2 0.58017067E-03 0.25118110E+02</pdfrwt>
<totfact> 0.26872638E+06</totfact>
</mgrwt>
</event>
<event>
 4    1  0.3704929E-001  0.2746524E+02  0.7818608E-02  0.1627925E+00
          2   -1    0    0  501    0  0.00000000000E+00  0.00000000000E+00  0.26892174291E+02  0.26892174416E+02  0.26000000000E-02 0. -1.
         -2   -1    0    0    0  501 -0.00000000000E+00 -0.00000000000E+00 -0.70126266231E+01  0.70126271051E+01  0.26000000000E-02 0.  1.
        -13    1    1    2    0    0 -0.32684370307E+01  0.10991437420E+02  0.19266236702E+02  0.22420825728E+02  0.10570000000E+00 0. -1.
         13    1    1    2    0    0  0.32684370307E+01 -0.10991437420E+02  0.61331096558E+00  0.11483975793E+02  0.10570000000E+00 0.  1.
<mgrwt>
<rscale>  0 0.27465235E+02</rscale>
<asrwt>0</asrwt>
<pdfrwt beam="1">  1        2 0.41372576E-02 0.27465235E+02</pdfrwt>
<pdfrwt beam="2">  1       -2 0.10788657E-02 0.27465235E+02</pdfrwt>
<totfact> 0.20600210E+06</totfact>
</mgrwt>
</event>
<event>
 4    1  0.3704929E-001  0.3832171E+02  0.7818608E-02  0.1520938E+00
         -2   -1    0    0    0  501 -0.00000000000E+00  0.00000000000E+00  0.76018606235E+01  0.76018610682E+01  0.26000000000E-02 0.  1.
          2   -1    0    0  501    0  0.00000000000E+00 -0.00000000000E+00 -0.48295862212E+02  0.48295862282E+02  0.26000000000E-02 0. -1.
        -13    1    1    2    0    0 -0.15532155404E+02 -0.16041780845E+01 -0.41497489085E+01  0.16157129303E+02  0.10570000000E+00 0.  1.
         13    1    1    2    0    0  0.15532155404E+02  0.16041780845E+01 -0.36544252680E+02  0.39740594047E+02  0.10570000000E+00 0. -1.
<mgrwt>
<rscale>  0 0.38321713E+02</rscale>
<asrwt>0</asrwt>
<pdfrwt beam="2">  1        2 0.74301325E-02 0.38321713E+02</pdfrwt>
<pdfrwt beam="1">  1       -2 0.11695171E-02 0.38321713E+02</pdfrwt>
<totfact> 0.99748861E+05</totfact>
</mgrwt>
</event>
<event>
 4    1  0.3704929E-001  0.3123084E+02  0.7818608E-02  0.1584869E+00
         -2   -1    0    0    0  501 -0.00000000000E+00  0.00000000000E+00  0.49959470966E+01  0.49959477731E+01  0.26000000000E-02 0.  1.
          2   -1    0    0  501    0  0.00000000000E+00 -0.00000000000E+00 -0.48807839482E+02  0.48807839551E+02  0.26000000000E-02 0. -1.
        -13    1    1    2    0    0 -0.10423938601E+02  0.92153427008E+01 -0.96937526486E+01  0.16957625127E+02  0.10570000000E+00 0.  1.
         13    1    1    2    0    0  0.10423938601E+02 -0.92153427008E+01 -0.34118139737E+02  0.36846162197E+02  0.10570000000E+00 0. -1.
<mgrwt>
<rscale>  0 0.31230844E+02</rscale>
<asrwt>0</asrwt>
<pdfrwt beam="2">  1        2 0.75088981E-02 0.31230844E+02</pdfrwt>
<pdfrwt beam="1">  1       -2 0.76860734E-03 0.31230844E+02</pdfrwt>
<totfact> 0.16450291E+06</totfact>
</mgrwt>
</event>
<event>
 4    1  0.3704929E-001  0.3998556E+02  0.7818608E-02  0.1508318E+00
          2   -1    0    0  501    0  0.00000000000E+00  0.00000000000E+00  0.10685178926E+03  0.10685178929E+03  0.26000000000E-02 0. -1.
         -2   -1    0    0    0  501 -0.00000000000E+00 -0.00000000000E+00 -0.37407998910E+01  0.37408007946E+01  0.26000000000E-02 0.  1.
        -13    1    1    2    0    0  0.11130525748E+02  0.14806269975E+02  0.72360921237E+02  0.74694232232E+02  0.10570000000E+00 0. -1.
         13    1    1    2    0    0 -0.11130525748E+02 -0.14806269975E+02  0.30750068134E+02  0.35898357856E+02  0.10570000000E+00 0.  1.
<mgrwt>
<rscale>  0 0.39985558E+02</rscale>
<asrwt>0</asrwt>
<pdfrwt beam="1">  1        2 0.16438736E-01 0.39985558E+02</pdfrwt>
<pdfrwt beam="2">  1       -2 0.57550779E-03 0.39985558E+02</pdfrwt>
<totfact> 0.10635329E+06</totfact>
</mgrwt>
</event>
<event>
 4    1  0.3704929E-001  0.2442994E+02  0.7818608E-02  0.1669327E+00
         -2   -1    0    0    0  501 -0.00000000000E+00  0.00000000000E+00  0.21829378542E+01  0.21829394026E+01  0.26000000000E-02 0. -1.
          2   -1    0    0  501    0  0.00000000000E+00 -0.00000000000E+00 -0.68350752833E+02  0.68350752882E+02  0.26000000000E-02 0.  1.
        -13    1    1    2    0    0  0.95038570304E+01 -0.41139852363E+01 -0.51782989697E+02  0.52808497114E+02  0.10570000000E+00 0.  1.
         13    1    1    2    0    0 -0.95038570304E+01  0.41139852363E+01 -0.14384825282E+02  0.17725195171E+02  0.10570000000E+00 0. -1.
<mgrwt>
<rscale>  0 0.24429941E+02</rscale>
<asrwt>0</asrwt>
<pdfrwt beam="2">  1        2 0.10515499E-01 0.24429941E+02</pdfrwt>
<pdfrwt beam="1">  1       -2 0.33583677E-03 0.24429941E+02</pdfrwt>
<totfact> 0.31064762E+06</totfact>
</mgrwt>
</event>
<event>
 4    1  0.3704929E-001  0.2111753E+02  0.7818608E-02  0.1723976E+00
          2   -1    0    0  501    0  0.00000000000E+00  0.00000000000E+00  0.12175532156E+02  0.12175532434E+02  0.26000000000E-02 0. -1.
         -2   -1    0    0    0  501 -0.00000000000E+00 -0.00000000000E+00 -0.91566868697E+01  0.91566872388E+01  0.26000000000E-02 0.  1.
        -13    1    1    2    0    0  0.65833978677E+01  0.81861636283E+01  0.25794207260E+01  0.10817531428E+02  0.10570000000E+00 0.  1.
         13    1    1    2    0    0 -0.65833978677E+01 -0.81861636283E+01  0.43942456032E+00  0.10514688244E+02  0.10570000000E+00 0. -1.
<mgrwt>
<rscale>  0 0.21117532E+02</rscale>
<asrwt>0</asrwt>
<pdfrwt beam="1">  1        2 0.18731588E-02 0.21117532E+02</pdfrwt>
<pdfrwt beam="2">  1       -2 0.14087211E-02 0.21117532E+02</pdfrwt>
<totfact> 0.35355321E+06</totfact>
</mgrwt>
</event>
<event>
 4    1  0.3704929E-001  0.3041910E+02  0.7818608E-02  0.1593502E+00
         -2   -1    0    0    0  501 -0.00000000000E+00  0.00000000000E+00  0.30212574358E+02  0.30212574470E+02  0.26000000000E-02 0.  1.
          2   -1    0    0  501    0  0.00000000000E+00 -0.00000000000E+00 -0.76567568011E+01  0.76567572425E+01  0.26000000000E-02 0. -1.
        -13    1    1    2    0    0 -0.29434704340E+01 -0.96650542778E+01 -0.28749109875E+01  0.10504931131E+02  0.10570000000E+00 0. -1.
         13    1    1    2    0    0  0.29434704340E+01  0.96650542778E+01  0.25430728544E+02  0.27364400581E+02  0.10570000000E+00 0.  1.
<mgrwt>
<rscale>  0 0.30419096E+02</rscale>
<asrwt>0</asrwt>
<pdfrwt beam="2">  1        2 0.11779627E-02 0.30419096E+02</pdfrwt>
<pdfrwt beam="1">  1       -2 0.46480882E-02 0.30419096E+02</pdfrwt>
<totfact> 0.14082010E+06</totfact>
</mgrwt>
</event>
<event>
 4    1  0.3704929E-001  0.4093312E+02  0.7818608E-02  0.1501455E+00
          2   -1    0    0  501    0  0.00000000000E+00  0.00000000000E+00  0.30856002068E+02  0.30856002177E+02  0.26000000000E-02 0.  1.
         -2   -1    0    0    0  501 -0.00000000000E+00 -0.00000000000E+00 -0.13575321709E+02  0.13575321958E+02  0.26000000000E-02 0. -1.
        -13    1    1    2    0    0  0.40518133517E+01  0.12287401382E+02 -0.85727485305E+01  0.15520973359E+02  0.10570000000E+00 0. -1.
         13    1    1    2    0    0 -0.40518133517E+01 -0.12287401382E+02  0.25853428889E+02  0.28910350776E+02  0.10570000000E+00 0.  1.
<mgrwt>
<rscale>  0 0.40933124E+02</rscale>
<asrwt>0</asrwt>
<pdfrwt beam="1">  1        2 0.47470773E-02 0.40933124E+02</pdfrwt>
<pdfrwt beam="2">  1       -2 0.20885111E-02 0.40933124E+02</pdfrwt>
<totfact> 0.78874067E+05</totfact>
</mgrwt>
</event>
<event>
 4    1  0.3704929E-001  0.2830548E+02  0.7818608E-02  0.1617612E+00
          2   -1    0    0  501    0  0.00000000000E+00  0.00000000000E+00  0.45127771431E+02  0.45127771506E+02  0.26000000000E-02 0.  1.
         -2   -1    0    0    0  501 -0.00000000000E+00 -0.00000000000E+00 -0.44385091579E+01  0.44385099195E+01  0.26000000000E-02 0. -1.
        -13    1    1    2    0    0 -0.75800389402E+01  0.11878955056E+02  0.22642745623E+02  0.26669676889E+02  0.10570000000E+00 0.  1.
         13    1    1    2    0    0  0.75800389402E+01 -0.11878955056E+02  0.18046516650E+02  0.22896604536E+02  0.10570000000E+00 0. -1.
<mgrwt>
<rscale>  0 0.28305480E+02</rscale>
<asrwt>0</asrwt>
<pdfrwt beam="1">  1        2 0.69427343E-02 0.28305480E+02</pdfrwt>
<pdfrwt beam="2">  1       -2 0.68284761E-03 0.28305480E+02</pdfrwt>
<totfact> 0.20537566E+06</totfact>
</mgrwt>
</event>
<event>
 4    1  0.3704929E-001  0.2802938E+02  0.7818608E-02  0.1620952E+00
          2   -1    0    0  501    0  0.00000000000E+00  0.00000000000E+00  0.13552787491E+02  0.13552787740E+02  0.26000000000E-02 0. -1.
         -2   -1    0    0    0  501 -0.00000000000E+00 -0.00000000000E+00 -0.14492337627E+02  0.14492337860E+02  0.26000000000E-02 0.  1.
        -13    1    1    2    0    0 -0.10381721850E+02 -0.56143469982E+01 -0.80304312970E+01  0.14275855144E+02  0.10570000000E+00 0.  1.
         13    1    1    2    0    0  0.10381721850E+02  0.56143469982E+01  0.70908811612E+01  0.13769270457E+02  0.10570000000E+00 0. -1.
<mgrwt>
<rscale>  0 0.28029383E+02</rscale>
<asrwt>0</asrwt>
<pdfrwt beam="1">  1        2 0.20850443E-02 0.28029383E+02</pdfrwt>
<pdfrwt beam="2">  1       -2 0.22295904E-02 0.28029383E+02</pdfrwt>
<totfact> 0.18285268E+06</totfact>
</mgrwt>
</event>
<event>
 4    1  0.3704929E-001  0.4796656E+02  0.7818608E-02  0.1456628E+00
         -2   -1    0    0    0  501 -0.00000000000E+00  0.00000000000E+00  0.95552709388E+02  0.95552709424E+02  0.26000000000E-02 0.  1.
          2   -1    0    0  501    0  0.00000000000E+00 -0.00000000000E+00 -0.60196898675E+01  0.60196904290E+01  0.26000000000E-02 0. -1.
        -13    1    1    2    0    0  0.22170054220E+02  0.81443252335E+01  0.53585660379E+02  0.58560016294E+02  0.10570000000E+00 0.  1.
         13    1    1    2    0    0 -0.22170054220E+02 -0.81443252335E+01  0.35947359142E+02  0.43012383559E+02  0.10570000000E+00 0. -1.
<mgrwt>
<rscale>  0 0.47966559E+02</rscale>
<asrwt>0</asrwt>
<pdfrwt beam="2">  1        2 0.92610617E-03 0.47966559E+02</pdfrwt>
<pdfrwt beam="1">  1       -2 0.14700417E-01 0.47966559E+02</pdfrwt>
<totfact> 0.39494558E+05</totfact>
</mgrwt>
</event>
<event>
 4    1  0.3704929E-001  0.2664897E+02  0.7818608E-02  0.1638388E+00
         -2   -1    0    0    0  501 -0.00000000000E+00  0.00000000000E+00  0.52298314159E+01  0.52298320622E+01  0.26000000000E-02 0.  1.
          2   -1    0    0  501    0  0.00000000000E+00 -0.00000000000E+00 -0.33947915236E+02  0.33947915335E+02  0.26000000000E-02 0. -1.
        -13    1    1    2    0    0 -0.75545015520E+01 -0.69456231175E+01 -0.26852521327E+02  0.28746847624E+02  0.10570000000E+00 0. -1.
         13    1    1    2    0    0  0.75545015520E+01  0.69456231175E+01 -0.18655624930E+01  0.10430899774E+02  0.10570000000E+00 0.  1.
<mgrwt>
<rscale>  0 0.26648969E+02</rscale>
<asrwt>0</asrwt>
<pdfrwt beam="2">  1        2 0.52227561E-02 0.26648969E+02</pdfrwt>
<pdfrwt beam="1">  1       -2 0.80458953E-03 0.26648969E+02</pdfrwt>
<totfact> 0.22753654E+06</totfact>
</mgrwt>
</event>
<event>
 4    1  0.3704929E-001  0.2654533E+02  0.7818608E-02  0.1639749E+00
         -2   -1    0    0    0  501 -0.00000000000E+00  0.00000000000E+00  0.81910539560E+02  0.81910539601E+02  0.26000000000E-02 0. -1.
          2   -1    0    0  501    0  0.00000000000E+00 -0.00000000000E+00 -0.21506828345E+01  0.21506844061E+01  0.26000000000E-02 0.  1.
        -13    1    1    2    0    0 -0.14665853347E-01  0.11803662487E+02  0.59096848537E+02  0.60264212786E+02  0.10570000000E+00 0.  1.
         13    1    1    2    0    0  0.14665853347E-01 -0.11803662487E+02  0.20663008188E+02  0.23797011221E+02  0.10570000000E+00 0. -1.
<mgrwt>
<rscale>  0 0.26545332E+02</rscale>
<asrwt>0</asrwt>
<pdfrwt beam="2">  1        2 0.33087449E-03 0.26545332E+02</pdfrwt>
<pdfrwt beam="1">  1       -2 0.12601618E-01 0.26545332E+02</pdfrwt>
<totfact> 0.16527653E+06</totfact>
</mgrwt>
</event>
<event>
 4    1  0.3704929E-001  0.2327236E+02  0.7818608E-02  0.1687133E+00
          2   -1    0    0  501    0  0.00000000000E+00  0.00000000000E+00  0.18081322084E+01  0.18081340778E+01  0.26000000000E-02 0. -1.
         -2   -1    0    0    0  501 -0.00000000000E+00 -0.00000000000E+00 -0.74884243219E+02  0.74884243264E+02  0.26000000000E-02 0.  1.
        -13    1    1    2    0    0 -0.50069693705E+01  0.10173585243E+02 -0.27933307222E+02  0.30147179036E+02  0.10570000000E+00 0. -1.
         13    1    1    2    0    0  0.50069693705E+01 -0.10173585243E+02 -0.45142803788E+02  0.46545198306E+02  0.10570000000E+00 0.  1.
<mgrwt>
<rscale>  0 0.23272360E+02</rscale>
<asrwt>0</asrwt>
<pdfrwt beam="1">  1        2 0.27817439E-03 0.23272360E+02</pdfrwt>
<pdfrwt beam="2">  1       -2 0.11520651E-01 0.23272360E+02</pdfrwt>
<totfact> 0.22654590E+06</totfact>
</mgrwt>
</event>
<event>
 4    1  0.3704929E-001  0.2481494E+02  0.7818608E-02  0.1663674E+00
         -2   -1    0    0    0  501 -0.00000000000E+00  0.00000000000E+00  0.62199975205E+02  0.62199975259E+02  0.26000000000E-02 0. -1.
          2   -1    0    0  501    0  0.00000000000E+00 -0.00000000000E+00 -0.24750051129E+01  0.24750064785E+01  0.26000000000E-02 0.  1.
        -13    1    1    2    0    0  0.10152213361E+02 -0.67477916327E+01  0.23843133792E+02  0.26778841079E+02  0.10570000000E+00 0.  1.
         13    1    1    2    0    0 -0.10152213361E+02  0.67477916327E+01  0.35881836300E+02  0.37896140658E+02  0.10570000000E+00 0. -1.
<mgrwt>
<rscale>  0 0.24814939E+02</rscale>
<asrwt>0</asrwt>
<pdfrwt beam="2">  1        2 0.38077014E-03 0.24814939E+02</pdfrwt>
<pdfrwt beam="1">  1       -2 0.95692267E-02 0.24814939E+02</pdfrwt>
<totfact> 0.20283540E+06</totfact>
</mgrwt>
</event>
<event>
 4    1  0.3704929E-001  0.3088783E+02  0.7818608E-02  0.1588477E+00
          2   -1    0    0  501    0  0.00000000000E+00  0.00000000000E+00  0.33948750229E+01  0.33948760185E+01  0.26000000000E-02 0.  1.
         -2   -1    0    0    0  501 -0.00000000000E+00 -0.00000000000E+00 -0.70257216800E+02  0.70257216848E+02  0.26000000000E-02 0. -1.
        -13    1    1    2    0    0  0.18966954820E+01  0.14550672503E+02 -0.21949895816E+02  0.26403193421E+02  0.10570000000E+00 0.  1.
         13    1    1    2    0    0 -0.18966954820E+01 -0.14550672503E+02 -0.44912445961E+02  0.47248899445E+02  0.10570000000E+00 0. -1.
<mgrwt>
<rscale>  0 0.30887830E+02</rscale>
<asrwt>0</asrwt>
<pdfrwt beam="1">  1        2 0.52228860E-03 0.30887830E+02</pdfrwt>
<pdfrwt beam="2">  1       -2 0.10808802E-01 0.30887830E+02</pdfrwt>
<totfact> 0.12019325E+06</totfact>
</mgrwt>
</event>
<event>
 4    1  0.3704929E-001  0.2479654E+02  0.7818608E-02  0.1663942E+00
          2   -1    0    0  501    0  0.00000000000E+00  0.00000000000E+00  0.58113545898E+01  0.58113551714E+01  0.26000000000E-02 0. -1.
         -2   -1    0    0    0  501 -0.00000000000E+00 -0.00000000000E+00 -0.26451169050E+02  0.26451169178E+02  0.26000000000E-02 0.  1.
        -13    1    1    2    0    0  0.48045146846E+01  0.10744437546E+02 -0.52507208194E+01  0.12888271457E+02  0.10570000000E+00 0. -1.
         13    1    1    2    0    0 -0.48045146846E+01 -0.10744437546E+02 -0.15389093641E+02  0.19374252892E+02  0.10570000000E+00 0.  1.
<mgrwt>
<rscale>  0 0.24796543E+02</rscale>
<asrwt>0</asrwt>
<pdfrwt beam="1">  1        2 0.89405462E-03 0.24796543E+02</pdfrwt>
<pdfrwt beam="2">  1       -2 0.40694106E-02 0.24796543E+02</pdfrwt>
<totfact> 0.22704055E+06</totfact>
</mgrwt>
</event>
<event>
 4    1  0.3704929E-001  0.4065250E+02  0.7818608E-02  0.1503464E+00
         -2   -1    0    0    0  501 -0.00000000000E+00  0.00000000000E+00  0.10347045812E+02  0.10347046138E+02  0.26000000000E-02 0.  1.
          2   -1    0    0  501    0  0.00000000000E+00 -0.00000000000E+00 -0.39929900261E+02  0.39929900345E+02  0.26000000000E-02 0. -1.
        -13    1    1    2    0    0  0.15115040692E+02  0.83209895081E+01 -0.15033066836E+01  0.17319769773E+02  0.10570000000E+00 0.  1.
         13    1    1    2    0    0 -0.15115040692E+02 -0.83209895081E+01 -0.28079547766E+02  0.32957176711E+02  0.10570000000E+00 0. -1.
<mgrwt>
<rscale>  0 0.40652504E+02</rscale>
<asrwt>0</asrwt>
<pdfrwt beam="2">  1        2 0.61430615E-02 0.40652504E+02</pdfrwt>
<pdfrwt beam="1">  1       -2 0.15918533E-02 0.40652504E+02</pdfrwt>
<totfact> 0.83449653E+05</totfact>
</mgrwt>
</event>
<event>
 4    1  0.3704929E-001  0.3855966E+02  0.7818608E-02  0.1519086E+00
         -2   -1    0    0    0  501 -0.00000000000E+00  0.00000000000E+00  0.12076692398E+02  0.12076692678E+02  0.26000000000E-02 0. -1.
          2   -1    0    0  501    0  0.00000000000E+00 -0.00000000000E+00 -0.30779270603E+02  0.30779270713E+02  0.26000000000E-02 0.  1.
        -13    1    1    2    0    0  0.14208937116E+02  0.14834604217E+01  0.50374576712E+01  0.15148653441E+02  0.10570000000E+00 0. -1.
         13    1    1    2    0    0 -0.14208937116E+02 -0.14834604217E+01 -0.23740035876E+02  0.27707309950E+02  0.10570000000E+00 0.  1.
<mgrwt>
<rscale>  0 0.38559657E+02</rscale>
<asrwt>0</asrwt>
<pdfrwt beam="2">  1        2 0.47352724E-02 0.38559657E+02</pdfrwt>
<pdfrwt beam="1">  1       -2 0.18579527E-02 0.38559657E+02</pdfrwt>
<totfact> 0.91625618E+05</totfact>
</mgrwt>
</event>
<event>
 4    1  0.3704929E-001  0.2049079E+02  0.7818608E-02  0.1735741E+00
         -2   -1    0    0    0  501 -0.00000000000E+00  0.00000000000E+00  0.15325737323E+02  0.15325737543E+02  0.26000000000E-02 0. -1.
          2   -1    0    0  501    0  0.00000000000E+00 -0.00000000000E+00 -0.68491374982E+01  0.68491379917E+01  0.26000000000E-02 0.  1.
        -13    1    1    2    0    0 -0.94511248886E+01 -0.39327172812E+01  0.37962017966E+01  0.10918440706E+02  0.10570000000E+00 0.  1.
         13    1    1    2    0    0  0.94511248886E+01  0.39327172812E+01  0.46803980278E+01  0.11256434829E+02  0.10570000000E+00 0. -1.
<mgrwt>
<rscale>  0 0.20490787E+02</rscale>
<asrwt>0</asrwt>
<pdfrwt beam="2">  1        2 0.10537135E-02 0.20490787E+02</pdfrwt>
<pdfrwt beam="1">  1       -2 0.23578058E-02 0.20490787E+02</pdfrwt>
<totfact> 0.36279337E+06</totfact>
</mgrwt>
</event>
<event>
 4    1  0.3704929E-001  0.2688917E+02  0.7818608E-02  0.1635261E+00
          2   -1    0    0  501    0  0.00000000000E+00  0.00000000000E+00  0.39206475357E+01  0.39206483978E+01  0.26000000000E-02 0. -1.
         -2   -1    0    0    0  501 -0.00000000000E+00 -0.00000000000E+00 -0.46103825544E+02  0.46103825617E+02  0.26000000000E-02 0.  1.
        -13    1    1    2    0    0 -0.10892323480E+02 -0.77260767253E+01 -0.18203043054E+02  0.22576468308E+02  0.10570000000E+00 0.  1.
         13    1    1    2    0    0  0.10892323480E+02  0.77260767253E+01 -0.23980134954E+02  0.27448005707E+02  0.10570000000E+00 0. -1.
<mgrwt>
<rscale>  0 0.26889171E+02</rscale>
<asrwt>0</asrwt>
<pdfrwt beam="1">  1        2 0.60317665E-03 0.26889171E+02</pdfrwt>
<pdfrwt beam="2">  1       -2 0.70928959E-02 0.26889171E+02</pdfrwt>
<totfact> 0.17700741E+06</totfact>
</mgrwt>
</event>
<event>
 4    1  0.3704929E-001  0.2607893E+02  0.7818608E-02  0.1645972E+00
         -2   -1    0    0    0  501 -0.00000000000E+00  0.00000000000E+00  0.74658967101E+01  0.74658971628E+01  0.26000000000E-02 0. -1.
          2   -1    0    0  501    0  0.00000000000E+00 -0.00000000000E+00 -0.22773907274E+02  0.22773907422E+02  0.26000000000E-02 0.  1.
        -13    1    1    2    0    0 -0.48900313739E+01  0.11023886782E+02 -0.19054013655E+01  0.12209840846E+02  0.10570000000E+00 0. -1.
         13    1    1    2    0    0  0.48900313739E+01 -0.11023886782E+02 -0.13402609199E+02  0.18029963739E+02  0.10570000000E+00 0.  1.
<mgrwt>
<rscale>  0 0.26078930E+02</rscale>
<asrwt>0</asrwt>
<pdfrwt beam="2">  1        2 0.35036781E-02 0.26078930E+02</pdfrwt>
<pdfrwt beam="1">  1       -2 0.11485995E-02 0.26078930E+02</pdfrwt>
<totfact> 0.22867208E+06</totfact>
</mgrwt>
</event>
<event>
 4    1  0.3704929E-001  0.2526210E+02  0.7818608E-02  0.1657266E+00
          2   -1    0    0  501    0  0.00000000000E+00  0.00000000000E+00  0.15698991942E+01  0.15699013472E+01  0.26000000000E-02 0. -1.
         -2   -1    0    0    0  501 -0.00000000000E+00 -0.00000000000E+00 -0.10162644396E+03  0.10162644400E+03  0.26000000000E-02 0.  1.
        -13    1    1    2    0    0 -0.11264880475E+02  0.45130364137E+01 -0.35720654191E+02  0.37725870939E+02  0.10570000000E+00 0. -1.
         13    1    1    2    0    0  0.11264880475E+02 -0.45130364137E+01 -0.64335890578E+02  0.65470474405E+02  0.10570000000E+00 0.  1.
<mgrwt>
<rscale>  0 0.25262097E+02</rscale>
<asrwt>0</asrwt>
<pdfrwt beam="1">  1        2 0.24152320E-03 0.25262097E+02</pdfrwt>
<pdfrwt beam="2">  1       -2 0.15634833E-01 0.25262097E+02</pdfrwt>
<totfact> 0.17617294E+06</totfact>
</mgrwt>
</event>
<event>
 4    1  0.3704929E-001  0.3645035E+02  0.7818608E-02  0.1536086E+00
         -2   -1    0    0    0  501 -0.00000000000E+00  0.00000000000E+00  0.28387263870E+01  0.28387275777E+01  0.26000000000E-02 0. -1.
          2   -1    0    0  501    0  0.00000000000E+00 -0.00000000000E+00 -0.11700914730E+03  0.11700914733E+03  0.26000000000E-02 0.  1.
        -13    1    1    2    0    0 -0.34981078507E+01 -0.15130694217E+02 -0.25724885509E+02  0.30049219174E+02  0.10570000000E+00 0. -1.
         13    1    1    2    0    0  0.34981078507E+01  0.15130694217E+02 -0.88445535402E+02  0.89798655731E+02  0.10570000000E+00 0.  1.
<mgrwt>
<rscale>  0 0.36450351E+02</rscale>
<asrwt>0</asrwt>
<pdfrwt beam="2">  1        2 0.18001404E-01 0.36450351E+02</pdfrwt>
<pdfrwt beam="1">  1       -2 0.43672732E-03 0.36450351E+02</pdfrwt>
<totfact> 0.13649361E+06</totfact>
</mgrwt>
</event>
<event>
 4    1  0.3704929E-001  0.2429196E+02  0.7818608E-02  0.1671385E+00
          2   -1    0    0  501    0  0.00000000000E+00  0.00000000000E+00  0.38387512405E+02  0.38387512493E+02  0.26000000000E-02 0.  1.
         -2   -1    0    0    0  501 -0.00000000000E+00 -0.00000000000E+00 -0.38430429235E+01  0.38430438030E+01  0.26000000000E-02 0. -1.
        -13    1    1    2    0    0 -0.44971978902E+00 -0.11817105442E+02  0.12458408465E+02  0.17177582568E+02  0.10570000000E+00 0. -1.
         13    1    1    2    0    0  0.44971978902E+00  0.11817105442E+02  0.22086061016E+02  0.25052973728E+02  0.10570000000E+00 0.  1.
<mgrwt>
<rscale>  0 0.24291964E+02</rscale>
<asrwt>0</asrwt>
<pdfrwt beam="1">  1        2 0.59057712E-02 0.24291964E+02</pdfrwt>
<pdfrwt beam="2">  1       -2 0.59123745E-03 0.24291964E+02</pdfrwt>
<totfact> 0.28698836E+06</totfact>
</mgrwt>
</event>
<event>
 4    1  0.3704929E-001  0.2865993E+02  0.7818608E-02  0.1613392E+00
         -2   -1    0    0    0  501 -0.00000000000E+00  0.00000000000E+00  0.49071877767E+01  0.49071884655E+01  0.26000000000E-02 0. -1.
          2   -1    0    0  501    0  0.00000000000E+00 -0.00000000000E+00 -0.41846340814E+02  0.41846340895E+02  0.26000000000E-02 0.  1.
        -13    1    1    2    0    0 -0.12974797239E+02 -0.59551255173E+01 -0.16453186249E+02  0.21783649684E+02  0.10570000000E+00 0.  1.
         13    1    1    2    0    0  0.12974797239E+02  0.59551255173E+01 -0.20485966789E+02  0.24969879677E+02  0.10570000000E+00 0. -1.
<mgrwt>
<rscale>  0 0.28659928E+02</rscale>
<asrwt>0</asrwt>
<pdfrwt beam="2">  1        2 0.64378984E-02 0.28659928E+02</pdfrwt>
<pdfrwt beam="1">  1       -2 0.75495205E-03 0.28659928E+02</pdfrwt>
<totfact> 0.19718000E+06</totfact>
</mgrwt>
</event>
<event>
 4    1  0.3704929E-001  0.4630541E+02  0.7818608E-02  0.1466353E+00
          2   -1    0    0  501    0  0.00000000000E+00  0.00000000000E+00  0.67585571140E+01  0.67585576141E+01  0.26000000000E-02 0. -1.
         -2   -1    0    0    0  501 -0.00000000000E+00 -0.00000000000E+00 -0.79313943469E+02  0.79313943511E+02  0.26000000000E-02 0.  1.
        -13    1    1    2    0    0  0.87759909779E+00  0.16683543568E+02 -0.66072224820E+02  0.68151748850E+02  0.10570000000E+00 0.  1.
         13    1    1    2    0    0 -0.87759909779E+00 -0.16683543568E+02 -0.64831615351E+01  0.17920752276E+02  0.10570000000E+00 0. -1.
<mgrwt>
<rscale>  0 0.46305414E+02</rscale>
<asrwt>0</asrwt>
<pdfrwt beam="1">  1        2 0.10397781E-02 0.46305414E+02</pdfrwt>
<pdfrwt beam="2">  1       -2 0.12202145E-01 0.46305414E+02</pdfrwt>
<totfact> 0.44891112E+05</totfact>
</mgrwt>
</event>
<event>
 4    1  0.3704929E-001  0.4265259E+02  0.7818608E-02  0.1489552E+00
          2   -1    0    0  501    0  0.00000000000E+00  0.00000000000E+00  0.10226310695E+03  0.10226310698E+03  0.26000000000E-02 0. -1.
         -2   -1    0    0    0  501 -0.00000000000E+00 -0.00000000000E+00 -0.44474565381E+01  0.44474572980E+01  0.26000000000E-02 0.  1.
        -13    1    1    2    0    0  0.16923594904E+02 -0.11654438005E+02  0.34630672013E+02  0.40268208382E+02  0.10570000000E+00 0.  1.
         13    1    1    2    0    0 -0.16923594904E+02  0.11654438005E+02  0.63184978397E+02  0.66442355897E+02  0.10570000000E+00 0. -1.
<mgrwt>
<rscale>  0 0.42652586E+02</rscale>
<asrwt>0</asrwt>
<pdfrwt beam="1">  1        2 0.15732785E-01 0.42652586E+02</pdfrwt>
<pdfrwt beam="2">  1       -2 0.68422417E-03 0.42652586E+02</pdfrwt>
<totfact> 0.89684239E+05</totfact>
</mgrwt>
</event>
<event>
 4    1  0.3704929E-001  0.2688293E+02  0.7818608E-02  0.1635342E+00
          2   -1    0    0  501    0  0.00000000000E+00  0.00000000000E+00  0.24903231879E+02  0.24903232015E+02  0.26000000000E-02 0.  1.
         -2   -1    0    0    0  501 -0.00000000000E+00 -0.00000000000E+00 -0.72550003463E+01  0.72550008122E+01  0.26000000000E-02 0. -1.
        -13    1    1    2    0    0  0.10166547751E+02 -0.64111049511E+01  0.16021503116E+02  0.20028996342E+02  0.10570000000E+00 0.  1.
         13    1    1    2    0    0 -0.10166547751E+02  0.64111049511E+01  0.16267284166E+01  0.12129236485E+02  0.10570000000E+00 0. -1.
<mgrwt>
<rscale>  0 0.26882929E+02</rscale>
<asrwt>0</asrwt>
<pdfrwt beam="1">  1        2 0.38312665E-02 0.26882929E+02</pdfrwt>
<pdfrwt beam="2">  1       -2 0.11161539E-02 0.26882929E+02</pdfrwt>
<totfact> 0.21487589E+06</totfact>
</mgrwt>
</event>
<event>
 4    1  0.3704929E-001  0.2075107E+02  0.7818608E-02  0.1730792E+00
         -2   -1    0    0    0  501 -0.00000000000E+00  0.00000000000E+00  0.14784188277E+01  0.14784211140E+01  0.26000000000E-02 0.  1.
          2   -1    0    0  501    0  0.00000000000E+00 -0.00000000000E+00 -0.72815399991E+02  0.72815400038E+02  0.26000000000E-02 0. -1.
        -13    1    1    2    0    0 -0.27058526858E+01 -0.97073879096E+01 -0.44500554674E+02  0.45627464948E+02  0.10570000000E+00 0.  1.
         13    1    1    2    0    0  0.27058526858E+01  0.97073879096E+01 -0.26836426489E+02  0.28666356204E+02  0.10570000000E+00 0. -1.
<mgrwt>
<rscale>  0 0.20751072E+02</rscale>
<asrwt>0</asrwt>
<pdfrwt beam="2">  1        2 0.11202367E-01 0.20751072E+02</pdfrwt>
<pdfrwt beam="1">  1       -2 0.22744929E-03 0.20751072E+02</pdfrwt>
<totfact> 0.45496289E+06</totfact>
</mgrwt>
</event>
<event>
 4    1  0.3704929E-001  0.3690221E+02  0.7818608E-02  0.1532329E+00
          2   -1    0    0  501    0  0.00000000000E+00  0.00000000000E+00  0.35031210648E+01  0.35031220296E+01  0.26000000000E-02 0. -1.
         -2   -1    0    0    0  501 -0.00000000000E+00 -0.00000000000E+00 -0.97182834085E+02  0.97182834120E+02  0.26000000000E-02 0.  1.
        -13    1    1    2    0    0  0.11074335019E+02 -0.13721721888E+02 -0.32019164802E+02  0.36553585799E+02  0.10570000000E+00 0. -1.
         13    1    1    2    0    0 -0.11074335019E+02  0.13721721888E+02 -0.61660548218E+02  0.64132370350E+02  0.10570000000E+00 0.  1.
<mgrwt>
<rscale>  0 0.36902210E+02</rscale>
<asrwt>0</asrwt>
<pdfrwt beam="1">  1        2 0.53894185E-03 0.36902210E+02</pdfrwt>
<pdfrwt beam="2">  1       -2 0.14951203E-01 0.36902210E+02</pdfrwt>
<totfact> 0.73877924E+05</totfact>
</mgrwt>
</event>
<event>
 4    1  0.3704929E-001  0.6383235E+02  0.7818608E-02  0.1382418E+00
          2   -1    0    0  501    0  0.00000000000E+00  0.00000000000E+00  0.90313830567E+02  0.90313830604E+02  0.26000000000E-02 0.  1.
         -2   -1    0    0    0  501 -0.00000000000E+00 -0.00000000000E+00 -0.11278917528E+02  0.11278917828E+02  0.26000000000E-02 0. -1.
        -13    1    1    2    0    0 -0.87717333832E+01  0.18683188711E+02  0.78262157051E+02  0.80938132211E+02  0.10570000000E+00 0.  1.
         13    1    1    2    0    0  0.87717333832E+01 -0.18683188711E+02  0.77275598679E+00  0.20654616221E+02  0.10570000000E+00 0. -1.
<mgrwt>
<rscale>  0 0.63832351E+02</rscale>
<asrwt>0</asrwt>
<pdfrwt beam="1">  1        2 0.13894436E-01 0.63832351E+02</pdfrwt>
<pdfrwt beam="2">  1       -2 0.17352181E-02 0.63832351E+02</pdfrwt>
<totfact> 0.31066652E+05</totfact>
</mgrwt>
</event>
<event>
 4    1  0.3704929E-001  0.2401271E+02  0.7818608E-02  0.1675601E+00
          2   -1    0    0  501    0  0.00000000000E+00  0.00000000000E+00  0.25722930722E+01  0.25722943862E+01  0.26000000000E-02 0.  1.
         -2   -1    0    0    0  501 -0.00000000000E+00 -0.00000000000E+00 -0.56040472352E+02  0.56040472412E+02  0.26000000000E-02 0. -1.
        -13    1    1    2    0    0  0.81578087468E+01 -0.81046725202E+01 -0.35156391854E+02  0.36989439316E+02  0.10570000000E+00 0. -1.
         13    1    1    2    0    0 -0.81578087468E+01  0.81046725202E+01 -0.18311787426E+02  0.21623327483E+02  0.10570000000E+00 0.  1.
<mgrwt>
<rscale>  0 0.24012710E+02</rscale>
<asrwt>0</asrwt>
<pdfrwt beam="1">  1        2 0.39573754E-03 0.24012710E+02</pdfrwt>
<pdfrwt beam="2">  1       -2 0.86216103E-02 0.24012710E+02</pdfrwt>
<totfact> 0.22216990E+06</totfact>
</mgrwt>
</event>
<event>
 4    1  0.3704929E-001  0.2489860E+02  0.7818608E-02  0.1662463E+00
         -2   -1    0    0    0  501 -0.00000000000E+00  0.00000000000E+00  0.66751788376E+02  0.66751788427E+02  0.26000000000E-02 0. -1.
          2   -1    0    0  501    0  0.00000000000E+00 -0.00000000000E+00 -0.23218107246E+01  0.23218121804E+01  0.26000000000E-02 0.  1.
        -13    1    1    2    0    0 -0.99193297643E+01  0.35405780240E+01  0.13803624279E+02  0.17363179762E+02  0.10570000000E+00 0.  1.
         13    1    1    2    0    0  0.99193297643E+01 -0.35405780240E+01  0.50626353372E+02  0.51710420845E+02  0.10570000000E+00 0. -1.
<mgrwt>
<rscale>  0 0.24898600E+02</rscale>
<asrwt>0</asrwt>
<pdfrwt beam="2">  1        2 0.35720180E-03 0.24898600E+02</pdfrwt>
<pdfrwt beam="1">  1       -2 0.10269505E-01 0.24898600E+02</pdfrwt>
<totfact> 0.19883858E+06</totfact>
</mgrwt>
</event>
<event>
 4    1  0.3704929E-001  0.8465339E+02  0.7818608E-02  0.1316341E+00
          2   -1    0    0  501    0  0.00000000000E+00  0.00000000000E+00  0.15553594033E+03  0.15553594035E+03  0.26000000000E-02 0. -1.
         -2   -1    0    0    0  501 -0.00000000000E+00 -0.00000000000E+00 -0.11518554927E+02  0.11518555220E+02  0.26000000000E-02 0.  1.
        -13    1    1    2    0    0  0.32779343472E+02  0.12497151189E+02  0.11874414350E+03  0.12381779733E+03  0.10570000000E+00 0.  1.
         13    1    1    2    0    0 -0.32779343472E+02 -0.12497151189E+02  0.25273241896E+02  0.43236698241E+02  0.10570000000E+00 0. -1.
<mgrwt>
<rscale>  0 0.84653394E+02</rscale>
<asrwt>0</asrwt>
<pdfrwt beam="1">  1        2 0.23928605E-01 0.84653394E+02</pdfrwt>
<pdfrwt beam="2">  1       -2 0.17720855E-02 0.84653394E+02</pdfrwt>
<totfact> 0.17292116E+05</totfact>
</mgrwt>
</event>
<event>
 4    1  0.3704929E-001  0.5588560E+02  0.7818608E-02  0.1415957E+00
         -2   -1    0    0    0  501 -0.00000000000E+00  0.00000000000E+00  0.45796828273E+01  0.45796835653E+01  0.26000000000E-02 0.  1.
          2   -1    0    0  501    0  0.00000000000E+00 -0.00000000000E+00 -0.17049217003E+03  0.17049217005E+03  0.26000000000E-02 0. -1.
        -13    1    1    2    0    0  0.17324455582E+02 -0.19380311459E+02 -0.11506520480E+03  0.11796501923E+03  0.10570000000E+00 0. -1.
         13    1    1    2    0    0 -0.17324455582E+02  0.19380311459E+02 -0.50847282408E+02  0.57106834391E+02  0.10570000000E+00 0.  1.
<mgrwt>
<rscale>  0 0.55885602E+02</rscale>
<asrwt>0</asrwt>
<pdfrwt beam="2">  1        2 0.26229560E-01 0.55885602E+02</pdfrwt>
<pdfrwt beam="1">  1       -2 0.70456678E-03 0.55885602E+02</pdfrwt>
<totfact> 0.52755249E+05</totfact>
</mgrwt>
</event>
<event>
 4    1  0.3704929E-001  0.5877904E+02  0.7818608E-02  0.1403028E+00
          2   -1    0    0  501    0  0.00000000000E+00  0.00000000000E+00  0.29376445813E+02  0.29376445928E+02  0.26000000000E-02 0. -1.
         -2   -1    0    0    0  501 -0.00000000000E+00 -0.00000000000E+00 -0.29402594846E+02  0.29402594961E+02  0.26000000000E-02 0.  1.
        -13    1    1    2    0    0 -0.15850891025E+02 -0.22705452961E+02  0.98329524626E+01  0.29385140243E+02  0.10570000000E+00 0. -1.
         13    1    1    2    0    0  0.15850891025E+02  0.22705452961E+02 -0.98591014954E+01  0.29393900647E+02  0.10570000000E+00 0.  1.
<mgrwt>
<rscale>  0 0.58779035E+02</rscale>
<asrwt>0</asrwt>
<pdfrwt beam="1">  1        2 0.45194532E-02 0.58779035E+02</pdfrwt>
<pdfrwt beam="2">  1       -2 0.45234761E-02 0.58779035E+02</pdfrwt>
<totfact> 0.30429715E+05</totfact>
</mgrwt>
</event>
<event>
 4    1  0.3704929E-001  0.3235174E+02  0.7818608E-02  0.1573459E+00
          2   -1    0    0  501    0  0.00000000000E+00  0.00000000000E+00  0.43345536648E+02  0.43345536726E+02  0.26000000000E-02 0.  1.
         -2   -1    0    0    0  501 -0.00000000000E+00 -0.00000000000E+00 -0.60365793048E+01  0.60365798647E+01  0.26000000000E-02 0. -1.
        -13    1    1    2    0    0 -0.13550054339E+02 -0.86524429318E+01  0.15932977477E+02  0.22634921803E+02  0.10570000000E+00 0. -1.
         13    1    1    2    0    0  0.13550054339E+02  0.86524429318E+01  0.21375979867E+02  0.26747194788E+02  0.10570000000E+00 0.  1.
<mgrwt>
<rscale>  0 0.32351741E+02</rscale>
<asrwt>0</asrwt>
<pdfrwt beam="1">  1        2 0.66685444E-02 0.32351741E+02</pdfrwt>
<pdfrwt beam="2">  1       -2 0.92870452E-03 0.32351741E+02</pdfrwt>
<totfact> 0.14829736E+06</totfact>
</mgrwt>
</event>
<event>
 4    1  0.3704929E-001  0.7657139E+02  0.7818608E-02  0.1339073E+00
         -2   -1    0    0    0  501 -0.00000000000E+00  0.00000000000E+00  0.14378316738E+03  0.14378316740E+03  0.26000000000E-02 0.  1.
          2   -1    0    0  501    0  0.00000000000E+00 -0.00000000000E+00 -0.10194478320E+02  0.10194478652E+02  0.26000000000E-02 0. -1.
        -13    1    1    2    0    0  0.10078884077E+02 -0.35697099884E+02  0.47726105452E+02  0.60445505693E+02  0.10570000000E+00 0. -1.
         13    1    1    2    0    0 -0.10078884077E+02  0.35697099884E+02  0.85862583608E+02  0.93532140362E+02  0.10570000000E+00 0.  1.
<mgrwt>
<rscale>  0 0.76571389E+02</rscale>
<asrwt>0</asrwt>
<pdfrwt beam="2">  1        2 0.15683814E-02 0.76571389E+02</pdfrwt>
<pdfrwt beam="1">  1       -2 0.22120487E-01 0.76571389E+02</pdfrwt>
<totfact> 0.11018272E+05</totfact>
</mgrwt>
</event>
<event>
 4    1  0.3704929E-001  0.4614202E+02  0.7818608E-02  0.1467336E+00
          2   -1    0    0  501    0  0.00000000000E+00  0.00000000000E+00  0.46069534479E+02  0.46069534552E+02  0.26000000000E-02 0. -1.
         -2   -1    0    0    0  501 -0.00000000000E+00 -0.00000000000E+00 -0.11553655894E+02  0.11553656187E+02  0.26000000000E-02 0.  1.
        -13    1    1    2    0    0  0.24398202421E+00  0.22998948676E+02  0.19509015422E+02  0.30159973850E+02  0.10570000000E+00 0. -1.
         13    1    1    2    0    0 -0.24398202421E+00 -0.22998948676E+02  0.15006863162E+02  0.27463216889E+02  0.10570000000E+00 0.  1.
<mgrwt>
<rscale>  0 0.46142022E+02</rscale>
<asrwt>0</asrwt>
<pdfrwt beam="1">  1        2 0.70876207E-02 0.46142022E+02</pdfrwt>
<pdfrwt beam="2">  1       -2 0.17774855E-02 0.46142022E+02</pdfrwt>
<totfact> 0.62064457E+05</totfact>
</mgrwt>
</event>
<event>
 4    1  0.3704929E-001  0.3708172E+02  0.7818608E-02  0.1530855E+00
         -2   -1    0    0    0  501 -0.00000000000E+00  0.00000000000E+00  0.73922472021E+01  0.73922476594E+01  0.26000000000E-02 0. -1.
          2   -1    0    0  501    0  0.00000000000E+00 -0.00000000000E+00 -0.46503242525E+02  0.46503242598E+02  0.26000000000E-02 0.  1.
        -13    1    1    2    0    0  0.67143445926E+01 -0.15225777529E+02 -0.76724205203E+01  0.18324408143E+02  0.10570000000E+00 0. -1.
         13    1    1    2    0    0 -0.67143445926E+01  0.15225777529E+02 -0.31438574803E+02  0.35571082114E+02  0.10570000000E+00 0.  1.
<mgrwt>
<rscale>  0 0.37081719E+02</rscale>
<asrwt>0</asrwt>
<pdfrwt beam="2">  1        2 0.71543449E-02 0.37081719E+02</pdfrwt>
<pdfrwt beam="1">  1       -2 0.11372689E-02 0.37081719E+02</pdfrwt>
<totfact> 0.10750479E+06</totfact>
</mgrwt>
</event>
<event>
 4    1  0.3704929E-001  0.8410673E+02  0.7818608E-02  0.1317785E+00
         -2   -1    0    0    0  501 -0.00000000000E+00  0.00000000000E+00  0.80875738915E+01  0.80875743094E+01  0.26000000000E-02 0. -1.
          2   -1    0    0  501    0  0.00000000000E+00 -0.00000000000E+00 -0.21866699755E+03  0.21866699756E+03  0.26000000000E-02 0.  1.
        -13    1    1    2    0    0 -0.31059574011E+02 -0.28344972560E+02 -0.10371819991E+03  0.11191787512E+03  0.10570000000E+00 0.  1.
         13    1    1    2    0    0  0.31059574011E+02  0.28344972560E+02 -0.10686122375E+03  0.11483669675E+03  0.10570000000E+00 0. -1.
<mgrwt>
<rscale>  0 0.84106731E+02</rscale>
<asrwt>0</asrwt>
<pdfrwt beam="2">  1        2 0.33641072E-01 0.84106731E+02</pdfrwt>
<pdfrwt beam="1">  1       -2 0.12442423E-02 0.84106731E+02</pdfrwt>
<totfact> 0.19824604E+05</totfact>
</mgrwt>
</event>
<event>
 4    1  0.3704929E-001  0.9288346E+02  0.7818608E-02  0.1296015E+00
         -2   -1    0    0    0  501 -0.00000000000E+00  0.00000000000E+00  0.87471482135E+01  0.87471485999E+01  0.26000000000E-02 0.  1.
          2   -1    0    0  501    0  0.00000000000E+00 -0.00000000000E+00 -0.24657572846E+03  0.24657572847E+03  0.26000000000E-02 0. -1.
        -13    1    1    2    0    0 -0.11975223121E+02 -0.44487823558E+02 -0.10282683437E+03  0.11267626837E+03  0.10570000000E+00 0.  1.
         13    1    1    2    0    0  0.11975223121E+02  0.44487823558E+02 -0.13500174587E+03  0.14264660870E+03  0.10570000000E+00 0. -1.
<mgrwt>
<rscale>  0 0.92883464E+02</rscale>
<asrwt>0</asrwt>
<pdfrwt beam="2">  1        2 0.37934722E-01 0.92883464E+02</pdfrwt>
<pdfrwt beam="1">  1       -2 0.13457153E-02 0.92883464E+02</pdfrwt>
<totfact> 0.15889842E+05</totfact>
</mgrwt>
</event>
<event>
 4    1  0.3704929E-001  0.3571774E+02  0.7818608E-02  0.1542318E+00
         -2   -1    0    0    0  501 -0.00000000000E+00  0.00000000000E+00  0.38087633945E+02  0.38087634034E+02  0.26000000000E-02 0.  1.
          2   -1    0    0  501    0  0.00000000000E+00 -0.00000000000E+00 -0.83738253177E+01  0.83738257214E+01  0.26000000000E-02 0. -1.
        -13    1    1    2    0    0 -0.11890506946E+02 -0.78721268257E+01  0.87269142093E+00  0.14287312519E+02  0.10570000000E+00 0. -1.
         13    1    1    2    0    0  0.11890506946E+02  0.78721268257E+01  0.28841117206E+02  0.32174147237E+02  0.10570000000E+00 0.  1.
<mgrwt>
<rscale>  0 0.35717738E+02</rscale>
<asrwt>0</asrwt>
<pdfrwt beam="2">  1        2 0.12882809E-02 0.35717738E+02</pdfrwt>
<pdfrwt beam="1">  1       -2 0.58596360E-02 0.35717738E+02</pdfrwt>
<totfact> 0.94342734E+05</totfact>
</mgrwt>
</event>
<event>
 4    1  0.3704929E-001  0.2263115E+02  0.7818608E-02  0.1697560E+00
         -2   -1    0    0    0  501 -0.00000000000E+00  0.00000000000E+00  0.84407150131E+02  0.84407150172E+02  0.26000000000E-02 0.  1.
          2   -1    0    0  501    0  0.00000000000E+00 -0.00000000000E+00 -0.15169589369E+01  0.15169611650E+01  0.26000000000E-02 0. -1.
        -13    1    1    2    0    0  0.29128853601E+01 -0.10206717477E+02  0.56329549283E+02  0.57320949727E+02  0.10570000000E+00 0.  1.
         13    1    1    2    0    0 -0.29128853601E+01  0.10206717477E+02  0.26560641912E+02  0.28603161609E+02  0.10570000000E+00 0. -1.
<mgrwt>
<rscale>  0 0.22631154E+02</rscale>
<asrwt>0</asrwt>
<pdfrwt beam="2">  1        2 0.23337851E-03 0.22631154E+02</pdfrwt>
<pdfrwt beam="1">  1       -2 0.12985714E-01 0.22631154E+02</pdfrwt>
<totfact> 0.23532602E+06</totfact>
</mgrwt>
</event>
<event>
 4    1  0.3704929E-001  0.4343755E+02  0.7818608E-02  0.1484338E+00
          2   -1    0    0  501    0  0.00000000000E+00  0.00000000000E+00  0.12175792281E+03  0.12175792284E+03  0.26000000000E-02 0. -1.
         -2   -1    0    0    0  501 -0.00000000000E+00 -0.00000000000E+00 -0.38741231918E+01  0.38741240642E+01  0.26000000000E-02 0.  1.
        -13    1    1    2    0    0  0.14166743305E+02 -0.15970619104E+02  0.70488003636E+02  0.73650031362E+02  0.10570000000E+00 0. -1.
         13    1    1    2    0    0 -0.14166743305E+02  0.15970619104E+02  0.47395795984E+02  0.51982015542E+02  0.10570000000E+00 0.  1.
<mgrwt>
<rscale>  0 0.43437553E+02</rscale>
<asrwt>0</asrwt>
<pdfrwt beam="1">  1        2 0.18731986E-01 0.43437553E+02</pdfrwt>
<pdfrwt beam="2">  1       -2 0.59601910E-03 0.43437553E+02</pdfrwt>
<totfact> 0.89793499E+05</totfact>
</mgrwt>
</event>
<event>
 4    1  0.3704929E-001  0.7776929E+02  0.7818608E-02  0.1335504E+00
          2   -1    0    0  501    0  0.00000000000E+00  0.00000000000E+00  0.18240876972E+02  0.18240877157E+02  0.26000000000E-02 0. -1.
         -2   -1    0    0    0  501 -0.00000000000E+00 -0.00000000000E+00 -0.82891605843E+02  0.82891605884E+02  0.26000000000E-02 0.  1.
        -13    1    1    2    0    0 -0.36575701192E+02 -0.87767962845E+01 -0.45145544282E+02  0.58761768283E+02  0.10570000000E+00 0.  1.
         13    1    1    2    0    0  0.36575701192E+02  0.87767962845E+01 -0.19505184589E+02  0.42370714758E+02  0.10570000000E+00 0. -1.
<mgrwt>
<rscale>  0 0.77769289E+02</rscale>
<asrwt>0</asrwt>
<pdfrwt beam="1">  1        2 0.28062888E-02 0.77769289E+02</pdfrwt>
<pdfrwt beam="2">  1       -2 0.12752555E-01 0.77769289E+02</pdfrwt>
<totfact> 0.12471556E+05</totfact>
</mgrwt>
</event>
<event>
 4    1  0.3704929E-001  0.3139707E+02  0.7818608E-02  0.1583140E+00
          2   -1    0    0  501    0  0.00000000000E+00  0.00000000000E+00  0.67095639713E+02  0.67095639763E+02  0.26000000000E-02 0.  1.
         -2   -1    0    0    0  501 -0.00000000000E+00 -0.00000000000E+00 -0.36730252891E+01  0.36730262093E+01  0.26000000000E-02 0. -1.
        -13    1    1    2    0    0 -0.25773031481E+01 -0.12499789708E+02  0.11109102911E+02  0.16920714354E+02  0.10570000000E+00 0. -1.
         13    1    1    2    0    0  0.25773031481E+01  0.12499789708E+02  0.52313511513E+02  0.53847951619E+02  0.10570000000E+00 0.  1.
<mgrwt>
<rscale>  0 0.31397071E+02</rscale>
<asrwt>0</asrwt>
<pdfrwt beam="1">  1        2 0.10322406E-01 0.31397071E+02</pdfrwt>
<pdfrwt beam="2">  1       -2 0.56508091E-03 0.31397071E+02</pdfrwt>
<totfact> 0.17193678E+06</totfact>
</mgrwt>
</event>
<event>
 4    1  0.3704929E-001  0.2333981E+02  0.7818608E-02  0.1686060E+00
          2   -1    0    0  501    0  0.00000000000E+00  0.00000000000E+00  0.21618546188E+02  0.21618546344E+02  0.26000000000E-02 0.  1.
         -2   -1    0    0    0  501 -0.00000000000E+00 -0.00000000000E+00 -0.62995315796E+01  0.62995321161E+01  0.26000000000E-02 0. -1.
        -13    1    1    2    0    0  0.97487716203E+01  0.59684681110E+01  0.48506029266E+01  0.12417756679E+02  0.10570000000E+00 0.  1.
         13    1    1    2    0    0 -0.97487716203E+01 -0.59684681110E+01  0.10468411682E+02  0.15500321781E+02  0.10570000000E+00 0. -1.
<mgrwt>
<rscale>  0 0.23339814E+02</rscale>
<asrwt>0</asrwt>
<pdfrwt beam="1">  1        2 0.33259302E-02 0.23339814E+02</pdfrwt>
<pdfrwt beam="2">  1       -2 0.96915877E-03 0.23339814E+02</pdfrwt>
<totfact> 0.29488639E+06</totfact>
</mgrwt>
</event>
<event>
 4    1  0.3704929E-001  0.2215130E+02  0.7818608E-02  0.1705648E+00
          2   -1    0    0  501    0  0.00000000000E+00  0.00000000000E+00  0.10573622533E+02  0.10573622852E+02  0.26000000000E-02 0. -1.
         -2   -1    0    0    0  501 -0.00000000000E+00 -0.00000000000E+00 -0.11601513070E+02  0.11601513361E+02  0.26000000000E-02 0.  1.
        -13    1    1    2    0    0  0.35826140506E+01 -0.10036223007E+02  0.25055826445E+01  0.10947603051E+02  0.10570000000E+00 0. -1.
         13    1    1    2    0    0 -0.35826140506E+01  0.10036223007E+02 -0.35334731816E+01  0.11227533162E+02  0.10570000000E+00 0.  1.
<mgrwt>
<rscale>  0 0.22151300E+02</rscale>
<asrwt>0</asrwt>
<pdfrwt beam="1">  1        2 0.16267112E-02 0.22151300E+02</pdfrwt>
<pdfrwt beam="2">  1       -2 0.17848482E-02 0.22151300E+02</pdfrwt>
<totfact> 0.31301563E+06</totfact>
</mgrwt>
</event>
<event>
 4    1  0.3704929E-001  0.2513772E+02  0.7818608E-02  0.1659032E+00
          2   -1    0    0  501    0  0.00000000000E+00  0.00000000000E+00  0.40372527948E+02  0.40372528032E+02  0.26000000000E-02 0.  1.
         -2   -1    0    0    0  501 -0.00000000000E+00 -0.00000000000E+00 -0.39129626124E+01  0.39129634762E+01  0.26000000000E-02 0. -1.
        -13    1    1    2    0    0  0.59368959258E+01  0.84357695255E+01  0.55802158608E+01  0.11728551584E+02  0.10570000000E+00 0. -1.
         13    1    1    2    0    0 -0.59368959258E+01 -0.84357695255E+01  0.30879349475E+02  0.32556939924E+02  0.10570000000E+00 0.  1.
<mgrwt>
<rscale>  0 0.25137718E+02</rscale>
<asrwt>0</asrwt>
<pdfrwt beam="1">  1        2 0.62111587E-02 0.25137718E+02</pdfrwt>
<pdfrwt beam="2">  1       -2 0.60199428E-03 0.25137718E+02</pdfrwt>
<totfact> 0.26691236E+06</totfact>
</mgrwt>
</event>
<event>
 4    1  0.3704929E-001  0.2374854E+02  0.7818608E-02  0.1679656E+00
          2   -1    0    0  501    0  0.00000000000E+00  0.00000000000E+00  0.82742936626E+02  0.82742936667E+02  0.26000000000E-02 0. -1.
         -2   -1    0    0    0  501 -0.00000000000E+00 -0.00000000000E+00 -0.17040507772E+01  0.17040527607E+01  0.26000000000E-02 0.  1.
        -13    1    1    2    0    0  0.59241925957E+01 -0.10122380005E+02  0.33935352052E+02  0.35905123955E+02  0.10570000000E+00 0.  1.
         13    1    1    2    0    0 -0.59241925957E+01  0.10122380005E+02  0.47103533797E+02  0.48541865472E+02  0.10570000000E+00 0. -1.
<mgrwt>
<rscale>  0 0.23748537E+02</rscale>
<asrwt>0</asrwt>
<pdfrwt beam="1">  1        2 0.12729686E-01 0.23748537E+02</pdfrwt>
<pdfrwt beam="2">  1       -2 0.26216175E-03 0.23748537E+02</pdfrwt>
<totfact> 0.34429607E+06</totfact>
</mgrwt>
</event>
<event>
 4    1  0.3704929E-001  0.3893276E+02  0.7818608E-02  0.1516215E+00
         -2   -1    0    0    0  501 -0.00000000000E+00  0.00000000000E+00  0.17044894265E+03  0.17044894267E+03  0.26000000000E-02 0. -1.
          2   -1    0    0  501    0  0.00000000000E+00 -0.00000000000E+00 -0.22231864816E+01  0.22231880019E+01  0.26000000000E-02 0.  1.
        -13    1    1    2    0    0  0.68936298833E+01  0.17551400108E+02  0.10554655607E+03  0.10721781778E+03  0.10570000000E+00 0. -1.
         13    1    1    2    0    0 -0.68936298833E+01 -0.17551400108E+02  0.62679200101E+02  0.65454312895E+02  0.10570000000E+00 0.  1.
<mgrwt>
<rscale>  0 0.38932758E+02</rscale>
<asrwt>0</asrwt>
<pdfrwt beam="2">  1        2 0.34202888E-03 0.38932758E+02</pdfrwt>
<pdfrwt beam="1">  1       -2 0.26222909E-01 0.38932758E+02</pdfrwt>
<totfact> 0.55032886E+05</totfact>
</mgrwt>
</event>
<event>
 4    1  0.3704929E-001  0.2060963E+02  0.7818608E-02  0.1733470E+00
         -2   -1    0    0    0  501 -0.00000000000E+00  0.00000000000E+00  0.13542316875E+02  0.13542317124E+02  0.26000000000E-02 0.  1.
          2   -1    0    0  501    0  0.00000000000E+00 -0.00000000000E+00 -0.78412848929E+01  0.78412853240E+01  0.26000000000E-02 0. -1.
        -13    1    1    2    0    0  0.14498197113E+01  0.10025239283E+02  0.88995057898E+00  0.10169099488E+02  0.10570000000E+00 0. -1.
         13    1    1    2    0    0 -0.14498197113E+01 -0.10025239283E+02  0.48110814026E+01  0.11214502960E+02  0.10570000000E+00 0.  1.
<mgrwt>
<rscale>  0 0.20609626E+02</rscale>
<asrwt>0</asrwt>
<pdfrwt beam="2">  1        2 0.12063516E-02 0.20609626E+02</pdfrwt>
<pdfrwt beam="1">  1       -2 0.20834334E-02 0.20609626E+02</pdfrwt>
<totfact> 0.36168579E+06</totfact>
</mgrwt>
</event>
<event>
 4    1  0.3704929E-001  0.4081463E+02  0.7818608E-02  0.1502301E+00
         -2   -1    0    0    0  501 -0.00000000000E+00  0.00000000000E+00  0.42478523468E+02  0.42478523547E+02  0.26000000000E-02 0. -1.
          2   -1    0    0  501    0  0.00000000000E+00 -0.00000000000E+00 -0.98039759507E+01  0.98039762954E+01  0.26000000000E-02 0.  1.
        -13    1    1    2    0    0 -0.30124591622E+01 -0.18548009560E+02  0.61421569551E+01  0.19769694823E+02  0.10570000000E+00 0.  1.
         13    1    1    2    0    0  0.30124591622E+01  0.18548009560E+02  0.26532390562E+02  0.32512805020E+02  0.10570000000E+00 0. -1.
<mgrwt>
<rscale>  0 0.40814626E+02</rscale>
<asrwt>0</asrwt>
<pdfrwt beam="2">  1        2 0.15083040E-02 0.40814626E+02</pdfrwt>
<pdfrwt beam="1">  1       -2 0.65351575E-02 0.40814626E+02</pdfrwt>
<totfact> 0.67888198E+05</totfact>
</mgrwt>
</event>
<event>
 4    1  0.3704929E-001  0.2874394E+02  0.7818608E-02  0.1612403E+00
          2   -1    0    0  501    0  0.00000000000E+00  0.00000000000E+00  0.42249388102E+02  0.42249388182E+02  0.26000000000E-02 0. -1.
         -2   -1    0    0    0  501 -0.00000000000E+00 -0.00000000000E+00 -0.48889109145E+01  0.48889116059E+01  0.26000000000E-02 0.  1.
        -13    1    1    2    0    0 -0.84021186177E+01 -0.73214129316E+01  0.37988760304E+01  0.11774604714E+02  0.10570000000E+00 0.  1.
         13    1    1    2    0    0  0.84021186177E+01  0.73214129316E+01  0.33561601157E+02  0.35363695074E+02  0.10570000000E+00 0. -1.
<mgrwt>
<rscale>  0 0.28743939E+02</rscale>
<asrwt>0</asrwt>
<pdfrwt beam="1">  1        2 0.64999060E-02 0.28743939E+02</pdfrwt>
<pdfrwt beam="2">  1       -2 0.75214019E-03 0.28743939E+02</pdfrwt>
<totfact> 0.19609219E+06</totfact>
</mgrwt>
</event>
<event>
 4    1  0.3704929E-001  0.2314069E+02  0.7818608E-02  0.1689240E+00
         -2   -1    0    0    0  501 -0.00000000000E+00  0.00000000000E+00  0.76519048488E+01  0.76519052905E+01  0.26000000000E-02 0. -1.
          2   -1    0    0  501    0  0.00000000000E+00 -0.00000000000E+00 -0.17495368634E+02  0.17495368827E+02  0.26000000000E-02 0.  1.
        -13    1    1    2    0    0 -0.88984869109E+01  0.66285327616E+01 -0.13601634311E+01  0.11179522929E+02  0.10570000000E+00 0.  1.
         13    1    1    2    0    0  0.88984869109E+01 -0.66285327616E+01 -0.84833003540E+01  0.13967751188E+02  0.10570000000E+00 0. -1.
<mgrwt>
<rscale>  0 0.23140692E+02</rscale>
<asrwt>0</asrwt>
<pdfrwt beam="2">  1        2 0.26915952E-02 0.23140692E+02</pdfrwt>
<pdfrwt beam="1">  1       -2 0.11772162E-02 0.23140692E+02</pdfrwt>
<totfact> 0.29491908E+06</totfact>
</mgrwt>
</event>
<event>
 4    1  0.3704929E-001  0.2281647E+02  0.7818608E-02  0.1694502E+00
          2   -1    0    0  501    0  0.00000000000E+00  0.00000000000E+00  0.18172100371E+01  0.18172118971E+01  0.26000000000E-02 0.  1.
         -2   -1    0    0    0  501 -0.00000000000E+00 -0.00000000000E+00 -0.71619553263E+02  0.71619553310E+02  0.26000000000E-02 0. -1.
        -13    1    1    2    0    0  0.25651837789E+01  0.97495572113E+01 -0.52084510843E+02  0.53051309842E+02  0.10570000000E+00 0. -1.
         13    1    1    2    0    0 -0.25651837789E+01 -0.97495572113E+01 -0.17717832383E+02  0.20385455366E+02  0.10570000000E+00 0.  1.
<mgrwt>
<rscale>  0 0.22816471E+02</rscale>
<asrwt>0</asrwt>
<pdfrwt beam="1">  1        2 0.27957098E-03 0.22816471E+02</pdfrwt>
<pdfrwt beam="2">  1       -2 0.11018391E-01 0.22816471E+02</pdfrwt>
<totfact> 0.23880740E+06</totfact>
</mgrwt>
</event>
<event>
 4    1  0.3704929E-001  0.2406606E+03  0.7818608E-02  0.1119354E+00
         -2   -1    0    0    0  501 -0.00000000000E+00  0.00000000000E+00  0.17290826556E+03  0.17290826558E+03  0.26000000000E-02 0. -1.
          2   -1    0    0  501    0  0.00000000000E+00 -0.00000000000E+00 -0.83740262886E+02  0.83740262926E+02  0.26000000000E-02 0.  1.
        -13    1    1    2    0    0  0.32804843460E+02  0.11296588814E+03  0.17564635611E+02  0.11893686239E+03  0.10570000000E+00 0. -1.
         13    1    1    2    0    0 -0.32804843460E+02 -0.11296588814E+03  0.71603367064E+02  0.13771166612E+03  0.10570000000E+00 0.  1.
<mgrwt>
<rscale>  0 0.24066062E+03</rscale>
<asrwt>0</asrwt>
<pdfrwt beam="2">  1        2 0.12883117E-01 0.24066062E+03</pdfrwt>
<pdfrwt beam="1">  1       -2 0.26601271E-01 0.24066062E+03</pdfrwt>
<totfact> 0.58701190E+03</totfact>
</mgrwt>
</event>
<event>
 4    1  0.3704929E-001  0.3772771E+02  0.7818608E-02  0.1525631E+00
          2   -1    0    0  501    0  0.00000000000E+00  0.00000000000E+00  0.22742794440E+01  0.22742809301E+01  0.26000000000E-02 0. -1.
         -2   -1    0    0    0  501 -0.00000000000E+00 -0.00000000000E+00 -0.15646490805E+03  0.15646490807E+03  0.26000000000E-02 0.  1.
        -13    1    1    2    0    0  0.64924295892E+01 -0.17709175827E+02 -0.76003626770E+02  0.78309188510E+02  0.10570000000E+00 0.  1.
         13    1    1    2    0    0 -0.64924295892E+01  0.17709175827E+02 -0.78187001837E+02  0.80430000492E+02  0.10570000000E+00 0. -1.
<mgrwt>
<rscale>  0 0.37727711E+02</rscale>
<asrwt>0</asrwt>
<pdfrwt beam="1">  1        2 0.34988938E-03 0.37727711E+02</pdfrwt>
<pdfrwt beam="2">  1       -2 0.24071516E-01 0.37727711E+02</pdfrwt>
<totfact> 0.61140790E+05</totfact>
</mgrwt>
</event>
<event>
 4    1  0.3704929E-001  0.2909533E+02  0.7818608E-02  0.1608309E+00
         -2   -1    0    0    0  501 -0.00000000000E+00  0.00000000000E+00  0.10153769368E+02  0.10153769700E+02  0.26000000000E-02 0. -1.
          2   -1    0    0  501    0  0.00000000000E+00 -0.00000000000E+00 -0.20842951239E+02  0.20842951401E+02  0.26000000000E-02 0.  1.
        -13    1    1    2    0    0 -0.15707749312E+01 -0.12072887957E+02 -0.13827443404E+02  0.18423661989E+02  0.10570000000E+00 0.  1.
         13    1    1    2    0    0  0.15707749312E+01  0.12072887957E+02  0.31382615328E+01  0.12573059112E+02  0.10570000000E+00 0. -1.
<mgrwt>
<rscale>  0 0.29095328E+02</rscale>
<asrwt>0</asrwt>
<pdfrwt beam="2">  1        2 0.32066079E-02 0.29095328E+02</pdfrwt>
<pdfrwt beam="1">  1       -2 0.15621184E-02 0.29095328E+02</pdfrwt>
<totfact> 0.17451177E+06</totfact>
</mgrwt>
</event>
<event>
 4    1  0.3704929E-001  0.8117804E+02  0.7818608E-02  0.1325741E+00
          2   -1    0    0  501    0  0.00000000000E+00  0.00000000000E+00  0.32954660267E+02  0.32954660370E+02  0.26000000000E-02 0.  1.
         -2   -1    0    0    0  501 -0.00000000000E+00 -0.00000000000E+00 -0.49991974337E+02  0.49991974405E+02  0.26000000000E-02 0. -1.
        -13    1    1    2    0    0  0.27248241216E+02 -0.24426388354E+02  0.94235862672E+01  0.37787964327E+02  0.10570000000E+00 0.  1.
         13    1    1    2    0    0 -0.27248241216E+02  0.24426388354E+02 -0.26460900337E+02  0.45158670447E+02  0.10570000000E+00 0. -1.
<mgrwt>
<rscale>  0 0.81178040E+02</rscale>
<asrwt>0</asrwt>
<pdfrwt beam="1">  1        2 0.50699478E-02 0.81178040E+02</pdfrwt>
<pdfrwt beam="2">  1       -2 0.76910729E-02 0.81178040E+02</pdfrwt>
<totfact> 0.12704269E+05</totfact>
</mgrwt>
</event>
<event>
 4    1  0.3704929E-001  0.3028737E+02  0.7818608E-02  0.1594934E+00
          2   -1    0    0  501    0  0.00000000000E+00  0.00000000000E+00  0.59073836699E+01  0.59073842420E+01  0.26000000000E-02 0.  1.
         -2   -1    0    0    0  501 -0.00000000000E+00 -0.00000000000E+00 -0.38821098488E+02  0.38821098575E+02  0.26000000000E-02 0. -1.
        -13    1    1    2    0    0 -0.13417518032E+02  0.62065802627E+01 -0.21303053766E+02  0.25930343248E+02  0.10570000000E+00 0. -1.
         13    1    1    2    0    0  0.13417518032E+02 -0.62065802627E+01 -0.11610661053E+02  0.18798139570E+02  0.10570000000E+00 0.  1.
<mgrwt>
<rscale>  0 0.30287366E+02</rscale>
<asrwt>0</asrwt>
<pdfrwt beam="1">  1        2 0.90882833E-03 0.30287366E+02</pdfrwt>
<pdfrwt beam="2">  1       -2 0.59724766E-02 0.30287366E+02</pdfrwt>
<totfact> 0.13793539E+06</totfact>
</mgrwt>
</event>
<event>
 4    1  0.3704929E-001  0.3797987E+02  0.7818608E-02  0.1523626E+00
          2   -1    0    0  501    0  0.00000000000E+00  0.00000000000E+00  0.30275572364E+02  0.30275572476E+02  0.26000000000E-02 0.  1.
         -2   -1    0    0    0  501 -0.00000000000E+00 -0.00000000000E+00 -0.11911173174E+02  0.11911173458E+02  0.26000000000E-02 0. -1.
        -13    1    1    2    0    0 -0.12694534908E+02  0.52131132537E+01  0.23761554642E+02  0.27439942016E+02  0.10570000000E+00 0.  1.
         13    1    1    2    0    0  0.12694534908E+02 -0.52131132537E+01 -0.53971554519E+01  0.14746803918E+02  0.10570000000E+00 0. -1.
<mgrwt>
<rscale>  0 0.37979868E+02</rscale>
<asrwt>0</asrwt>
<pdfrwt beam="1">  1        2 0.46577803E-02 0.37979868E+02</pdfrwt>
<pdfrwt beam="2">  1       -2 0.18324882E-02 0.37979868E+02</pdfrwt>
<totfact> 0.94945653E+05</totfact>
</mgrwt>
</event>
<event>
 4    1  0.3704929E-001  0.2149598E+02  0.7818608E-02  0.1717117E+00
         -2   -1    0    0    0  501 -0.00000000000E+00  0.00000000000E+00  0.15069318245E+01  0.15069340674E+01  0.26000000000E-02 0. -1.
          2   -1    0    0  501    0  0.00000000000E+00 -0.00000000000E+00 -0.76658579455E+02  0.76658579499E+02  0.26000000000E-02 0.  1.
        -13    1    1    2    0    0 -0.66994351215E+00 -0.10296338355E+02 -0.26639876501E+02  0.28568472138E+02  0.10570000000E+00 0.  1.
         13    1    1    2    0    0  0.66994351215E+00  0.10296338355E+02 -0.48511771130E+02  0.49597041429E+02  0.10570000000E+00 0. -1.
<mgrwt>
<rscale>  0 0.21495985E+02</rscale>
<asrwt>0</asrwt>
<pdfrwt beam="2">  1        2 0.11793625E-01 0.21495985E+02</pdfrwt>
<pdfrwt beam="1">  1       -2 0.23183590E-03 0.21495985E+02</pdfrwt>
<totfact> 0.42466332E+06</totfact>
</mgrwt>
</event>
<event>
 4    1  0.3704929E-001  0.7513728E+02  0.7818608E-02  0.1343446E+00
          2   -1    0    0  501    0  0.00000000000E+00  0.00000000000E+00  0.90867222494E+02  0.90867222531E+02  0.26000000000E-02 0. -1.
         -2   -1    0    0    0  501 -0.00000000000E+00 -0.00000000000E+00 -0.15532584709E+02  0.15532584927E+02  0.26000000000E-02 0.  1.
        -13    1    1    2    0    0 -0.23490627937E+02  0.26431224772E+02  0.55633720340E+02  0.65920719468E+02  0.10570000000E+00 0. -1.
         13    1    1    2    0    0  0.23490627937E+02 -0.26431224772E+02  0.19700917445E+02  0.40479087990E+02  0.10570000000E+00 0.  1.
<mgrwt>
<rscale>  0 0.75137284E+02</rscale>
<asrwt>0</asrwt>
<pdfrwt beam="1">  1        2 0.13979573E-01 0.75137284E+02</pdfrwt>
<pdfrwt beam="2">  1       -2 0.23896285E-02 0.75137284E+02</pdfrwt>
<totfact> 0.20188410E+05</totfact>
</mgrwt>
</event>
<event>
 4    1  0.3704929E-001  0.2060437E+02  0.7818608E-02  0.1733570E+00
          2   -1    0    0  501    0  0.00000000000E+00  0.00000000000E+00  0.52205563885E+02  0.52205563949E+02  0.26000000000E-02 0.  1.
         -2   -1    0    0    0  501 -0.00000000000E+00 -0.00000000000E+00 -0.20330205031E+01  0.20330221657E+01  0.26000000000E-02 0. -1.
        -13    1    1    2    0    0  0.51818525091E+01  0.86089680729E+01  0.31064695382E+02  0.32649539023E+02  0.10570000000E+00 0.  1.
         13    1    1    2    0    0 -0.51818525091E+01 -0.86089680729E+01  0.19107847999E+02  0.21589047092E+02  0.10570000000E+00 0. -1.
<mgrwt>
<rscale>  0 0.20604371E+02</rscale>
<asrwt>0</asrwt>
<pdfrwt beam="1">  1        2 0.80316245E-02 0.20604371E+02</pdfrwt>
<pdfrwt beam="2">  1       -2 0.31277255E-03 0.20604371E+02</pdfrwt>
<totfact> 0.43635080E+06</totfact>
</mgrwt>
</event>
<event>
 4    1  0.3704929E-001  0.2592635E+02  0.7818608E-02  0.1648042E+00
         -2   -1    0    0    0  501 -0.00000000000E+00  0.00000000000E+00  0.44689303457E+01  0.44689311021E+01  0.26000000000E-02 0.  1.
          2   -1    0    0  501    0  0.00000000000E+00 -0.00000000000E+00 -0.37602720111E+02  0.37602720201E+02  0.26000000000E-02 0. -1.
        -13    1    1    2    0    0 -0.88812473628E+01  0.59733152368E+01 -0.28433499913E+02  0.30381443998E+02  0.10570000000E+00 0. -1.
         13    1    1    2    0    0  0.88812473628E+01 -0.59733152368E+01 -0.47002898522E+01  0.11690207304E+02  0.10570000000E+00 0.  1.
<mgrwt>
<rscale>  0 0.25926354E+02</rscale>
<asrwt>0</asrwt>
<pdfrwt beam="2">  1        2 0.57850337E-02 0.25926354E+02</pdfrwt>
<pdfrwt beam="1">  1       -2 0.68752784E-03 0.25926354E+02</pdfrwt>
<totfact> 0.24596162E+06</totfact>
</mgrwt>
</event>
<event>
 4    1  0.3704929E-001  0.2238700E+02  0.7818608E-02  0.1701644E+00
          2   -1    0    0  501    0  0.00000000000E+00  0.00000000000E+00  0.16818717109E+02  0.16818717310E+02  0.26000000000E-02 0.  1.
         -2   -1    0    0    0  501 -0.00000000000E+00 -0.00000000000E+00 -0.74497028973E+01  0.74497033510E+01  0.26000000000E-02 0. -1.
        -13    1    1    2    0    0  0.62485823492E+01  0.89800040661E+01  0.72493636262E+01  0.13124393315E+02  0.10570000000E+00 0. -1.
         13    1    1    2    0    0 -0.62485823492E+01 -0.89800040661E+01  0.21196505856E+01  0.11144027346E+02  0.10570000000E+00 0.  1.
<mgrwt>
<rscale>  0 0.22387001E+02</rscale>
<asrwt>0</asrwt>
<pdfrwt beam="1">  1        2 0.25874949E-02 0.22387001E+02</pdfrwt>
<pdfrwt beam="2">  1       -2 0.11461082E-02 0.22387001E+02</pdfrwt>
<totfact> 0.31731571E+06</totfact>
</mgrwt>
</event>
<event>
 4    1  0.3704929E-001  0.4792028E+02  0.7818608E-02  0.1456893E+00
         -2   -1    0    0    0  501 -0.00000000000E+00  0.00000000000E+00  0.46550628756E+01  0.46550636016E+01  0.26000000000E-02 0. -1.
          2   -1    0    0  501    0  0.00000000000E+00 -0.00000000000E+00 -0.12332558173E+03  0.12332558176E+03  0.26000000000E-02 0.  1.
        -13    1    1    2    0    0  0.17505816949E+02 -0.12896160089E+02 -0.32453558954E+02  0.39064168151E+02  0.10570000000E+00 0.  1.
         13    1    1    2    0    0 -0.17505816949E+02  0.12896160089E+02 -0.86216959906E+02  0.88916477213E+02  0.10570000000E+00 0. -1.
<mgrwt>
<rscale>  0 0.47920283E+02</rscale>
<asrwt>0</asrwt>
<pdfrwt beam="2">  1        2 0.18973164E-01 0.47920283E+02</pdfrwt>
<pdfrwt beam="1">  1       -2 0.71616367E-03 0.47920283E+02</pdfrwt>
<totfact> 0.70535765E+05</totfact>
</mgrwt>
</event>
<event>
 4    1  0.3704929E-001  0.2533815E+02  0.7818608E-02  0.1656192E+00
          2   -1    0    0  501    0  0.00000000000E+00  0.00000000000E+00  0.55859623096E+02  0.55859623156E+02  0.26000000000E-02 0. -1.
         -2   -1    0    0    0  501 -0.00000000000E+00 -0.00000000000E+00 -0.28733705916E+01  0.28733717679E+01  0.26000000000E-02 0.  1.
        -13    1    1    2    0    0 -0.42532784859E+01  0.11896353832E+02  0.24317877738E+02  0.27404086603E+02  0.10570000000E+00 0. -1.
         13    1    1    2    0    0  0.42532784859E+01 -0.11896353832E+02  0.28668374766E+02  0.31328908321E+02  0.10570000000E+00 0.  1.
<mgrwt>
<rscale>  0 0.25338148E+02</rscale>
<asrwt>0</asrwt>
<pdfrwt beam="1">  1        2 0.85937890E-02 0.25338148E+02</pdfrwt>
<pdfrwt beam="2">  1       -2 0.44205707E-03 0.25338148E+02</pdfrwt>
<totfact> 0.27541208E+06</totfact>
</mgrwt>
</event>
<event>
 4    1  0.3704929E-001  0.2191049E+02  0.7818608E-02  0.1709805E+00
          2   -1    0    0  501    0  0.00000000000E+00  0.00000000000E+00  0.23322695296E+02  0.23322695441E+02  0.26000000000E-02 0.  1.
         -2   -1    0    0    0  501 -0.00000000000E+00 -0.00000000000E+00 -0.51459486892E+01  0.51459493460E+01  0.26000000000E-02 0. -1.
        -13    1    1    2    0    0  0.76455586676E+01  0.71803711776E+01  0.13195924019E+02  0.16856923823E+02  0.10570000000E+00 0.  1.
         13    1    1    2    0    0 -0.76455586676E+01 -0.71803711776E+01  0.49808225878E+01  0.11611720963E+02  0.10570000000E+00 0. -1.
<mgrwt>
<rscale>  0 0.21910491E+02</rscale>
<asrwt>0</asrwt>
<pdfrwt beam="1">  1        2 0.35881070E-02 0.21910491E+02</pdfrwt>
<pdfrwt beam="2">  1       -2 0.79168447E-03 0.21910491E+02</pdfrwt>
<totfact> 0.34360959E+06</totfact>
</mgrwt>
</event>
<event>
 4    1  0.3704929E-001  0.2704105E+02  0.7818608E-02  0.1633305E+00
         -2   -1    0    0    0  501 -0.00000000000E+00  0.00000000000E+00  0.73860995226E+02  0.73860995272E+02  0.26000000000E-02 0.  1.
          2   -1    0    0  501    0  0.00000000000E+00 -0.00000000000E+00 -0.24749814550E+01  0.24749828207E+01  0.26000000000E-02 0. -1.
        -13    1    1    2    0    0  0.64356147163E+01  0.11670735608E+02  0.42111930501E+02  0.44170681107E+02  0.10570000000E+00 0. -1.
         13    1    1    2    0    0 -0.64356147163E+01 -0.11670735608E+02  0.29274083269E+02  0.32165296985E+02  0.10570000000E+00 0.  1.
<mgrwt>
<rscale>  0 0.27041054E+02</rscale>
<asrwt>0</asrwt>
<pdfrwt beam="2">  1        2 0.38076646E-03 0.27041054E+02</pdfrwt>
<pdfrwt beam="1">  1       -2 0.11363231E-01 0.27041054E+02</pdfrwt>
<totfact> 0.16175385E+06</totfact>
</mgrwt>
</event>
<event>
 4    1  0.3704929E-001  0.2493426E+02  0.7818608E-02  0.1661948E+00
         -2   -1    0    0    0  501 -0.00000000000E+00  0.00000000000E+00  0.61430983010E+01  0.61430988512E+01  0.26000000000E-02 0. -1.
          2   -1    0    0  501    0  0.00000000000E+00 -0.00000000000E+00 -0.25301449440E+02  0.25301449574E+02  0.26000000000E-02 0.  1.
        -13    1    1    2    0    0 -0.12350311352E+02 -0.72816750570E+00 -0.76427794784E+01  0.14542478091E+02  0.10570000000E+00 0. -1.
         13    1    1    2    0    0  0.12350311352E+02  0.72816750570E+00 -0.11515571661E+02  0.16902070334E+02  0.10570000000E+00 0.  1.
<mgrwt>
<rscale>  0 0.24934258E+02</rscale>
<asrwt>0</asrwt>
<pdfrwt beam="2">  1        2 0.38925307E-02 0.24934258E+02</pdfrwt>
<pdfrwt beam="1">  1       -2 0.94509211E-03 0.24934258E+02</pdfrwt>
<totfact> 0.25696490E+06</totfact>
</mgrwt>
</event>
<event>
 4    1  0.3704929E-001  0.5473236E+02  0.7818608E-02  0.1421369E+00
          2   -1    0    0  501    0  0.00000000000E+00  0.00000000000E+00  0.38784457081E+01  0.38784465796E+01  0.26000000000E-02 0. -1.
         -2   -1    0    0    0  501 -0.00000000000E+00 -0.00000000000E+00 -0.19309483602E+03  0.19309483604E+03  0.26000000000E-02 0.  1.
        -13    1    1    2    0    0 -0.32720962682E+01  0.24059742378E+02 -0.49182998933E+02  0.54850308785E+02  0.10570000000E+00 0. -1.
         13    1    1    2    0    0  0.32720962682E+01 -0.24059742378E+02 -0.14003339138E+03  0.14212297384E+03  0.10570000000E+00 0.  1.
<mgrwt>
<rscale>  0 0.54732364E+02</rscale>
<asrwt>0</asrwt>
<pdfrwt beam="1">  1        2 0.59668417E-03 0.54732364E+02</pdfrwt>
<pdfrwt beam="2">  1       -2 0.29706891E-01 0.54732364E+02</pdfrwt>
<totfact> 0.22881906E+05</totfact>
</mgrwt>
</event>
<event>
 4    1  0.3704929E-001  0.4561364E+02  0.7818608E-02  0.1470547E+00
         -2   -1    0    0    0  501 -0.00000000000E+00  0.00000000000E+00  0.24575901605E+02  0.24575901742E+02  0.26000000000E-02 0. -1.
          2   -1    0    0  501    0  0.00000000000E+00 -0.00000000000E+00 -0.21165081048E+02  0.21165081207E+02  0.26000000000E-02 0.  1.
        -13    1    1    2    0    0  0.10184894302E+02 -0.70042230790E+01 -0.17514438846E+02  0.21437302849E+02  0.10570000000E+00 0.  1.
         13    1    1    2    0    0 -0.10184894302E+02  0.70042230790E+01  0.20925259403E+02  0.24303680101E+02  0.10570000000E+00 0. -1.
<mgrwt>
<rscale>  0 0.45613636E+02</rscale>
<asrwt>0</asrwt>
<pdfrwt beam="2">  1        2 0.32561663E-02 0.45613636E+02</pdfrwt>
<pdfrwt beam="1">  1       -2 0.37809080E-02 0.45613636E+02</pdfrwt>
<totfact> 0.56588752E+05</totfact>
</mgrwt>
</event>
<event>
 4    1  0.3704929E-001  0.5876230E+02  0.7818608E-02  0.1403100E+00
          2   -1    0    0  501    0  0.00000000000E+00  0.00000000000E+00  0.24225004664E+02  0.24225004803E+02  0.26000000000E-02 0.  1.
         -2   -1    0    0    0  501 -0.00000000000E+00 -0.00000000000E+00 -0.35634746707E+02  0.35634746802E+02  0.26000000000E-02 0. -1.
        -13    1    1    2    0    0  0.11757188320E+02 -0.86944807439E+01  0.20254692574E+02  0.24981777686E+02  0.10570000000E+00 0.  1.
         13    1    1    2    0    0 -0.11757188320E+02  0.86944807439E+01 -0.31664434617E+02  0.34877973919E+02  0.10570000000E+00 0. -1.
<mgrwt>
<rscale>  0 0.58762298E+02</rscale>
<asrwt>0</asrwt>
<pdfrwt beam="1">  1        2 0.37269238E-02 0.58762298E+02</pdfrwt>
<pdfrwt beam="2">  1       -2 0.54822687E-02 0.58762298E+02</pdfrwt>
<totfact> 0.29416526E+05</totfact>
</mgrwt>
</event>
<event>
 4    1  0.3704929E-001  0.2617710E+02  0.7818608E-02  0.1644649E+00
         -2   -1    0    0    0  501 -0.00000000000E+00  0.00000000000E+00  0.40103194177E+01  0.40103202606E+01  0.26000000000E-02 0.  1.
          2   -1    0    0  501    0  0.00000000000E+00 -0.00000000000E+00 -0.42717327468E+02  0.42717327548E+02  0.26000000000E-02 0. -1.
        -13    1    1    2    0    0 -0.11309590752E+02  0.14117936548E+01 -0.30838931372E+02  0.32877817217E+02  0.10570000000E+00 0. -1.
         13    1    1    2    0    0  0.11309590752E+02 -0.14117936548E+01 -0.78680766790E+01  0.13849830591E+02  0.10570000000E+00 0.  1.
<mgrwt>
<rscale>  0 0.26177101E+02</rscale>
<asrwt>0</asrwt>
<pdfrwt beam="2">  1        2 0.65718963E-02 0.26177101E+02</pdfrwt>
<pdfrwt beam="1">  1       -2 0.61697232E-03 0.26177101E+02</pdfrwt>
<totfact> 0.24480144E+06</totfact>
</mgrwt>
</event>
<event>
 4    1  0.3704929E-001  0.4972123E+02  0.7818608E-02  0.1446851E+00
          2   -1    0    0  501    0  0.00000000000E+00  0.00000000000E+00  0.71875917120E+02  0.71875917167E+02  0.26000000000E-02 0.  1.
         -2   -1    0    0    0  501 -0.00000000000E+00 -0.00000000000E+00 -0.85988491491E+01  0.85988495422E+01  0.26000000000E-02 0. -1.
        -13    1    1    2    0    0  0.14113031066E+02 -0.82313423276E+01  0.13109918218E+01  0.16390927809E+02  0.10570000000E+00 0. -1.
         13    1    1    2    0    0 -0.14113031066E+02  0.82313423276E+01  0.61966076149E+02  0.64083838900E+02  0.10570000000E+00 0.  1.
<mgrwt>
<rscale>  0 0.49721230E+02</rscale>
<asrwt>0</asrwt>
<pdfrwt beam="1">  1        2 0.11057834E-01 0.49721230E+02</pdfrwt>
<pdfrwt beam="2">  1       -2 0.13228999E-02 0.49721230E+02</pdfrwt>
<totfact> 0.56075889E+05</totfact>
</mgrwt>
</event>
<event>
 4    1  0.3704929E-001  0.2391945E+02  0.7818608E-02  0.1677025E+00
         -2   -1    0    0    0  501 -0.00000000000E+00  0.00000000000E+00  0.25565036588E+02  0.25565036720E+02  0.26000000000E-02 0.  1.
          2   -1    0    0  501    0  0.00000000000E+00 -0.00000000000E+00 -0.55949479243E+01  0.55949485284E+01  0.26000000000E-02 0. -1.
        -13    1    1    2    0    0  0.99021998881E+01 -0.33625225370E+01  0.24266881752E+01  0.10735926063E+02  0.10570000000E+00 0. -1.
         13    1    1    2    0    0 -0.99021998881E+01  0.33625225370E+01  0.17543400488E+02  0.20424059186E+02  0.10570000000E+00 0.  1.
<mgrwt>
<rscale>  0 0.23919453E+02</rscale>
<asrwt>0</asrwt>
<pdfrwt beam="2">  1        2 0.86076125E-03 0.23919453E+02</pdfrwt>
<pdfrwt beam="1">  1       -2 0.39330827E-02 0.23919453E+02</pdfrwt>
<totfact> 0.24690057E+06</totfact>
</mgrwt>
</event>
<event>
 4    1  0.3704929E-001  0.3159043E+02  0.7818608E-02  0.1581146E+00
          2   -1    0    0  501    0  0.00000000000E+00  0.00000000000E+00  0.13187466180E+02  0.13187466436E+02  0.26000000000E-02 0.  1.
         -2   -1    0    0    0  501 -0.00000000000E+00 -0.00000000000E+00 -0.18918631453E+02  0.18918631632E+02  0.26000000000E-02 0. -1.
        -13    1    1    2    0    0  0.81265689126E+01  0.58614475225E+01 -0.15274720758E+02  0.18268167836E+02  0.10570000000E+00 0. -1.
         13    1    1    2    0    0 -0.81265689126E+01 -0.58614475225E+01  0.95435554841E+01  0.13837930232E+02  0.10570000000E+00 0.  1.
<mgrwt>
<rscale>  0 0.31590430E+02</rscale>
<asrwt>0</asrwt>
<pdfrwt beam="1">  1        2 0.20288410E-02 0.31590430E+02</pdfrwt>
<pdfrwt beam="2">  1       -2 0.29105587E-02 0.31590430E+02</pdfrwt>
<totfact> 0.13599884E+06</totfact>
</mgrwt>
</event>
<event>
 4    1  0.3704929E-001  0.2408461E+02  0.7818608E-02  0.1674509E+00
          2   -1    0    0  501    0  0.00000000000E+00  0.00000000000E+00  0.81861050888E+02  0.81861050929E+02  0.26000000000E-02 0. -1.
         -2   -1    0    0    0  501 -0.00000000000E+00 -0.00000000000E+00 -0.17715028402E+01  0.17715047482E+01  0.26000000000E-02 0.  1.
        -13    1    1    2    0    0 -0.12011278008E+02  0.67119438517E+00  0.41897551234E+02  0.43590564038E+02  0.10570000000E+00 0. -1.
         13    1    1    2    0    0  0.12011278008E+02 -0.67119438517E+00  0.38191996814E+02  0.40041991639E+02  0.10570000000E+00 0.  1.
<mgrwt>
<rscale>  0 0.24084615E+02</rscale>
<asrwt>0</asrwt>
<pdfrwt beam="1">  1        2 0.12594004E-01 0.24084615E+02</pdfrwt>
<pdfrwt beam="2">  1       -2 0.27253913E-03 0.24084615E+02</pdfrwt>
<totfact> 0.33268403E+06</totfact>
</mgrwt>
</event>
<event>
 4    1  0.3704929E-001  0.2518452E+02  0.7818608E-02  0.1658366E+00
         -2   -1    0    0    0  501 -0.00000000000E+00  0.00000000000E+00  0.42871970669E+02  0.42871970748E+02  0.26000000000E-02 0.  1.
          2   -1    0    0  501    0  0.00000000000E+00 -0.00000000000E+00 -0.36985694770E+01  0.36985703909E+01  0.26000000000E-02 0. -1.
        -13    1    1    2    0    0  0.71087066589E+01 -0.10313791649E+02  0.17214416323E+02  0.21289793573E+02  0.10570000000E+00 0.  1.
         13    1    1    2    0    0 -0.71087066589E+01  0.10313791649E+02  0.21958984869E+02  0.25280747566E+02  0.10570000000E+00 0. -1.
<mgrwt>
<rscale>  0 0.25184518E+02</rscale>
<asrwt>0</asrwt>
<pdfrwt beam="2">  1        2 0.56901077E-03 0.25184518E+02</pdfrwt>
<pdfrwt beam="1">  1       -2 0.65956878E-02 0.25184518E+02</pdfrwt>
<totfact> 0.20738936E+06</totfact>
</mgrwt>
</event>
<event>
 4    1  0.3704929E-001  0.3269126E+02  0.7818608E-02  0.1570114E+00
          2   -1    0    0  501    0  0.00000000000E+00  0.00000000000E+00  0.62805129979E+01  0.62805135361E+01  0.26000000000E-02 0. -1.
         -2   -1    0    0    0  501 -0.00000000000E+00 -0.00000000000E+00 -0.42541057877E+02  0.42541057957E+02  0.26000000000E-02 0.  1.
        -13    1    1    2    0    0 -0.71633956415E+00  0.16074602114E+02 -0.13837511782E+02  0.21222485253E+02  0.10570000000E+00 0. -1.
         13    1    1    2    0    0  0.71633956415E+00 -0.16074602114E+02 -0.22423033097E+02  0.27599086239E+02  0.10570000000E+00 0.  1.
<mgrwt>
<rscale>  0 0.32691264E+02</rscale>
<asrwt>0</asrwt>
<pdfrwt beam="1">  1        2 0.96623284E-03 0.32691264E+02</pdfrwt>
<pdfrwt beam="2">  1       -2 0.65447780E-02 0.32691264E+02</pdfrwt>
<totfact> 0.11418561E+06</totfact>
</mgrwt>
</event>
<event>
 4    1  0.3704929E-001  0.2318655E+02  0.7818608E-02  0.1688504E+00
         -2   -1    0    0    0  501 -0.00000000000E+00  0.00000000000E+00  0.32792662264E+01  0.32792672571E+01  0.26000000000E-02 0. -1.
          2   -1    0    0  501    0  0.00000000000E+00 -0.00000000000E+00 -0.40985995595E+02  0.40985995677E+02  0.26000000000E-02 0.  1.
        -13    1    1    2    0    0  0.80693352940E+01  0.69382700455E+01 -0.27630847155E+02  0.29609604021E+02  0.10570000000E+00 0.  1.
         13    1    1    2    0    0 -0.80693352940E+01 -0.69382700455E+01 -0.10075882214E+02  0.14655658914E+02  0.10570000000E+00 0. -1.
<mgrwt>
<rscale>  0 0.23186549E+02</rscale>
<asrwt>0</asrwt>
<pdfrwt beam="2">  1        2 0.63055375E-02 0.23186549E+02</pdfrwt>
<pdfrwt beam="1">  1       -2 0.50450261E-03 0.23186549E+02</pdfrwt>
<totfact> 0.32229520E+06</totfact>
</mgrwt>
</event>
<event>
 4    1  0.3704929E-001  0.2366075E+02  0.7818608E-02  0.1681018E+00
         -2   -1    0    0    0  501 -0.00000000000E+00  0.00000000000E+00  0.30725251110E+02  0.30725251220E+02  0.26000000000E-02 0.  1.
          2   -1    0    0  501    0  0.00000000000E+00 -0.00000000000E+00 -0.45551396948E+01  0.45551404368E+01  0.26000000000E-02 0. -1.
        -13    1    1    2    0    0  0.12325803709E+01  0.11545716614E+02  0.16460275330E+02  0.20143849258E+02  0.10570000000E+00 0.  1.
         13    1    1    2    0    0 -0.12325803709E+01 -0.11545716614E+02  0.97098360847E+01  0.15136542398E+02  0.10570000000E+00 0. -1.
<mgrwt>
<rscale>  0 0.23660755E+02</rscale>
<asrwt>0</asrwt>
<pdfrwt beam="2">  1        2 0.70079079E-03 0.23660755E+02</pdfrwt>
<pdfrwt beam="1">  1       -2 0.47269617E-02 0.23660755E+02</pdfrwt>
<totfact> 0.24822100E+06</totfact>
</mgrwt>
</event>
<event>
 4    1  0.3704929E-001  0.6659352E+02  0.7818608E-02  0.1372076E+00
          2   -1    0    0  501    0  0.00000000000E+00  0.00000000000E+00  0.27379033529E+03  0.27379033530E+03  0.26000000000E-02 0. -1.
         -2   -1    0    0    0  501 -0.00000000000E+00 -0.00000000000E+00 -0.40493539630E+01  0.40493547977E+01  0.26000000000E-02 0.  1.
        -13    1    1    2    0    0 -0.21736867349E+02 -0.24118971890E+02  0.16565613089E+03  0.16880811912E+03  0.10570000000E+00 0. -1.
         13    1    1    2    0    0  0.21736867349E+02  0.24118971890E+02  0.10408485044E+03  0.10903157098E+03  0.10570000000E+00 0.  1.
<mgrwt>
<rscale>  0 0.66593516E+02</rscale>
<asrwt>0</asrwt>
<pdfrwt beam="1">  1        2 0.42121594E-01 0.66593516E+02</pdfrwt>
<pdfrwt beam="2">  1       -2 0.62297754E-03 0.66593516E+02</pdfrwt>
<totfact> 0.39615696E+05</totfact>
</mgrwt>
</event>
<event>
 4    1  0.3704929E-001  0.2124220E+02  0.7818608E-02  0.1721697E+00
         -2   -1    0    0    0  501 -0.00000000000E+00  0.00000000000E+00  0.42505022199E+02  0.42505022278E+02  0.26000000000E-02 0. -1.
          2   -1    0    0  501    0  0.00000000000E+00 -0.00000000000E+00 -0.26539848476E+01  0.26539861212E+01  0.26000000000E-02 0.  1.
        -13    1    1    2    0    0 -0.22053074954E+00  0.10050946982E+02  0.12645594297E+02  0.16155259102E+02  0.10570000000E+00 0.  1.
         13    1    1    2    0    0  0.22053074954E+00 -0.10050946982E+02  0.27205443054E+02  0.29003749298E+02  0.10570000000E+00 0. -1.
<mgrwt>
<rscale>  0 0.21242195E+02</rscale>
<asrwt>0</asrwt>
<pdfrwt beam="2">  1        2 0.40830546E-03 0.21242195E+02</pdfrwt>
<pdfrwt beam="1">  1       -2 0.65392344E-02 0.21242195E+02</pdfrwt>
<totfact> 0.30358852E+06</totfact>
</mgrwt>
</event>
<event>
 4    1  0.3704929E-001  0.2495521E+02  0.7818608E-02  0.1661646E+00
          2   -1    0    0  501    0  0.00000000000E+00  0.00000000000E+00  0.41638517501E+02  0.41638517583E+02  0.26000000000E-02 0.  1.
         -2   -1    0    0    0  501 -0.00000000000E+00 -0.00000000000E+00 -0.37390996522E+01  0.37391005562E+01  0.26000000000E-02 0. -1.
        -13    1    1    2    0    0 -0.74915452221E+01 -0.99622800243E+01  0.17938687684E+02  0.21844403434E+02  0.10570000000E+00 0. -1.
         13    1    1    2    0    0  0.74915452221E+01  0.99622800243E+01  0.19960730165E+02  0.23533214704E+02  0.10570000000E+00 0.  1.
<mgrwt>
<rscale>  0 0.24955207E+02</rscale>
<asrwt>0</asrwt>
<pdfrwt beam="1">  1        2 0.64059261E-02 0.24955207E+02</pdfrwt>
<pdfrwt beam="2">  1       -2 0.57524615E-03 0.24955207E+02</pdfrwt>
<totfact> 0.27264606E+06</totfact>
</mgrwt>
</event>
<event>
 4    1  0.3704929E-001  0.2574363E+02  0.7818608E-02  0.1650545E+00
          2   -1    0    0  501    0  0.00000000000E+00  0.00000000000E+00  0.27102294959E+02  0.27102295084E+02  0.26000000000E-02 0. -1.
         -2   -1    0    0    0  501 -0.00000000000E+00 -0.00000000000E+00 -0.61132670066E+01  0.61132675595E+01  0.26000000000E-02 0.  1.
        -13    1    1    2    0    0 -0.25888195050E+01 -0.12604824358E+02  0.10109984834E+02  0.16364796038E+02  0.10570000000E+00 0. -1.
         13    1    1    2    0    0  0.25888195050E+01  0.12604824358E+02  0.10879043118E+02  0.16850766605E+02  0.10570000000E+00 0.  1.
<mgrwt>
<rscale>  0 0.25743627E+02</rscale>
<asrwt>0</asrwt>
<pdfrwt beam="1">  1        2 0.41695840E-02 0.25743627E+02</pdfrwt>
<pdfrwt beam="2">  1       -2 0.94050265E-03 0.25743627E+02</pdfrwt>
<totfact> 0.24023215E+06</totfact>
</mgrwt>
</event>
<event>
 4    1  0.3704929E-001  0.2969536E+02  0.7818608E-02  0.1601481E+00
          2   -1    0    0  501    0  0.00000000000E+00  0.00000000000E+00  0.51810298862E+02  0.51810298928E+02  0.26000000000E-02 0.  1.
         -2   -1    0    0    0  501 -0.00000000000E+00 -0.00000000000E+00 -0.42550148990E+01  0.42550156934E+01  0.26000000000E-02 0. -1.
        -13    1    1    2    0    0  0.12782900075E+01 -0.13820609780E+02  0.33732189631E+02  0.36476226091E+02  0.10570000000E+00 0.  1.
         13    1    1    2    0    0 -0.12782900075E+01  0.13820609780E+02  0.13823094332E+02  0.19589088530E+02  0.10570000000E+00 0. -1.
<mgrwt>
<rscale>  0 0.29695361E+02</rscale>
<asrwt>0</asrwt>
<pdfrwt beam="1">  1        2 0.79708153E-02 0.29695361E+02</pdfrwt>
<pdfrwt beam="2">  1       -2 0.65461774E-03 0.29695361E+02</pdfrwt>
<totfact> 0.18740135E+06</totfact>
</mgrwt>
</event>
<event>
 4    1  0.3704929E-001  0.3175147E+02  0.7818608E-02  0.1579498E+00
         -2   -1    0    0    0  501 -0.00000000000E+00  0.00000000000E+00  0.11566013228E+02  0.11566013520E+02  0.26000000000E-02 0.  1.
          2   -1    0    0  501    0  0.00000000000E+00 -0.00000000000E+00 -0.21791343083E+02  0.21791343238E+02  0.26000000000E-02 0. -1.
        -13    1    1    2    0    0  0.10085236973E+02 -0.75280212255E+01 -0.15279115697E+02  0.19795091749E+02  0.10570000000E+00 0. -1.
         13    1    1    2    0    0 -0.10085236973E+02  0.75280212255E+01  0.50537858414E+01  0.13562265010E+02  0.10570000000E+00 0.  1.
<mgrwt>
<rscale>  0 0.31751471E+02</rscale>
<asrwt>0</asrwt>
<pdfrwt beam="2">  1        2 0.33525144E-02 0.31751471E+02</pdfrwt>
<pdfrwt beam="1">  1       -2 0.17793867E-02 0.31751471E+02</pdfrwt>
<totfact> 0.14184146E+06</totfact>
</mgrwt>
</event>
<event>
 4    1  0.3704929E-001  0.2662780E+02  0.7818608E-02  0.1638665E+00
         -2   -1    0    0    0  501 -0.00000000000E+00  0.00000000000E+00  0.14568986740E+02  0.14568986972E+02  0.26000000000E-02 0. -1.
          2   -1    0    0  501    0  0.00000000000E+00 -0.00000000000E+00 -0.12166936930E+02  0.12166937208E+02  0.26000000000E-02 0.  1.
        -13    1    1    2    0    0 -0.11007286634E+02 -0.70978848047E+01  0.35999626165E+01  0.13583491123E+02  0.10570000000E+00 0. -1.
         13    1    1    2    0    0  0.11007286634E+02  0.70978848047E+01 -0.11979128069E+01  0.13152433057E+02  0.10570000000E+00 0.  1.
<mgrwt>
<rscale>  0 0.26627801E+02</rscale>
<asrwt>0</asrwt>
<pdfrwt beam="2">  1        2 0.18718365E-02 0.26627801E+02</pdfrwt>
<pdfrwt beam="1">  1       -2 0.22413826E-02 0.26627801E+02</pdfrwt>
<totfact> 0.20485669E+06</totfact>
</mgrwt>
</event>
<event>
 4    1  0.3704929E-001  0.2970973E+02  0.7818608E-02  0.1601319E+00
         -2   -1    0    0    0  501 -0.00000000000E+00  0.00000000000E+00  0.48861815153E+02  0.48861815222E+02  0.26000000000E-02 0.  1.
          2   -1    0    0  501    0  0.00000000000E+00 -0.00000000000E+00 -0.45161454239E+01  0.45161461724E+01  0.26000000000E-02 0. -1.
        -13    1    1    2    0    0  0.84958656193E+01  0.63113475643E+01  0.40899663075E+02  0.42246969747E+02  0.10570000000E+00 0.  1.
         13    1    1    2    0    0 -0.84958656193E+01 -0.63113475643E+01  0.34460066541E+01  0.11130991647E+02  0.10570000000E+00 0. -1.
<mgrwt>
<rscale>  0 0.29709735E+02</rscale>
<asrwt>0</asrwt>
<pdfrwt beam="2">  1        2 0.69479161E-03 0.29709735E+02</pdfrwt>
<pdfrwt beam="1">  1       -2 0.75172030E-02 0.29709735E+02</pdfrwt>
<totfact> 0.13969508E+06</totfact>
</mgrwt>
</event>
<event>
 4    1  0.3704929E-001  0.2201719E+02  0.7818608E-02  0.1707955E+00
         -2   -1    0    0    0  501 -0.00000000000E+00  0.00000000000E+00  0.50294768385E+02  0.50294768452E+02  0.26000000000E-02 0.  1.
          2   -1    0    0  501    0  0.00000000000E+00 -0.00000000000E+00 -0.24095767168E+01  0.24095781195E+01  0.26000000000E-02 0. -1.
        -13    1    1    2    0    0  0.10887398623E+02 -0.16072618877E+01  0.23360018145E+02  0.25822865058E+02  0.10570000000E+00 0. -1.
         13    1    1    2    0    0 -0.10887398623E+02  0.16072618877E+01  0.24525173523E+02  0.26881481514E+02  0.10570000000E+00 0.  1.
<mgrwt>
<rscale>  0 0.22017188E+02</rscale>
<asrwt>0</asrwt>
<pdfrwt beam="2">  1        2 0.37070429E-03 0.22017188E+02</pdfrwt>
<pdfrwt beam="1">  1       -2 0.77376554E-02 0.22017188E+02</pdfrwt>
<totfact> 0.27407624E+06</totfact>
</mgrwt>
</event>
<event>
 4    1  0.3704929E-001  0.3967380E+02  0.7818608E-02  0.1510626E+00
         -2   -1    0    0    0  501 -0.00000000000E+00  0.00000000000E+00  0.37115203319E+01  0.37115212426E+01  0.26000000000E-02 0.  1.
          2   -1    0    0  501    0  0.00000000000E+00 -0.00000000000E+00 -0.10602194173E+03  0.10602194176E+03  0.26000000000E-02 0. -1.
        -13    1    1    2    0    0 -0.43035415773E+01 -0.14573168934E+02 -0.86423726524E+02  0.87749469523E+02  0.10570000000E+00 0. -1.
         13    1    1    2    0    0  0.43035415773E+01  0.14573168934E+02 -0.15886694877E+02  0.21983993484E+02  0.10570000000E+00 0.  1.
<mgrwt>
<rscale>  0 0.39673802E+02</rscale>
<asrwt>0</asrwt>
<pdfrwt beam="2">  1        2 0.16311066E-01 0.39673802E+02</pdfrwt>
<pdfrwt beam="1">  1       -2 0.57100328E-03 0.39673802E+02</pdfrwt>
<totfact> 0.10819802E+06</totfact>
</mgrwt>
</event>
<event>
 4    1  0.3704929E-001  0.2088159E+02  0.7818608E-02  0.1728344E+00
         -2   -1    0    0    0  501 -0.00000000000E+00  0.00000000000E+00  0.11058366972E+02  0.11058367277E+02  0.26000000000E-02 0. -1.
          2   -1    0    0  501    0  0.00000000000E+00 -0.00000000000E+00 -0.98577094818E+01  0.98577098247E+01  0.26000000000E-02 0.  1.
        -13    1    1    2    0    0  0.10068310905E+02  0.26651635909E+01 -0.12545189940E+00  0.10416376151E+02  0.10570000000E+00 0.  1.
         13    1    1    2    0    0 -0.10068310905E+02 -0.26651635909E+01  0.13261093894E+01  0.10499700951E+02  0.10570000000E+00 0. -1.
<mgrwt>
<rscale>  0 0.20881588E+02</rscale>
<asrwt>0</asrwt>
<pdfrwt beam="2">  1        2 0.15165707E-02 0.20881588E+02</pdfrwt>
<pdfrwt beam="1">  1       -2 0.17012873E-02 0.20881588E+02</pdfrwt>
<totfact> 0.35700870E+06</totfact>
</mgrwt>
</event>
<event>
 4    1  0.3704929E-001  0.2351299E+02  0.7818608E-02  0.1683327E+00
         -2   -1    0    0    0  501 -0.00000000000E+00  0.00000000000E+00  0.75648977137E+01  0.75648981605E+01  0.26000000000E-02 0. -1.
          2   -1    0    0  501    0  0.00000000000E+00 -0.00000000000E+00 -0.18270596832E+02  0.18270597017E+02  0.26000000000E-02 0.  1.
        -13    1    1    2    0    0  0.77934575241E+01 -0.87258662843E+01 -0.40879166145E+01  0.12393585330E+02  0.10570000000E+00 0. -1.
         13    1    1    2    0    0 -0.77934575241E+01  0.87258662843E+01 -0.66177825036E+01  0.13441909847E+02  0.10570000000E+00 0.  1.
<mgrwt>
<rscale>  0 0.23512993E+02</rscale>
<asrwt>0</asrwt>
<pdfrwt beam="2">  1        2 0.28108611E-02 0.23512993E+02</pdfrwt>
<pdfrwt beam="1">  1       -2 0.11638305E-02 0.23512993E+02</pdfrwt>
<totfact> 0.28530231E+06</totfact>
</mgrwt>
</event>
<event>
 4    1  0.3704929E-001  0.4359071E+02  0.7818608E-02  0.1483336E+00
          2   -1    0    0  501    0  0.00000000000E+00  0.00000000000E+00  0.10332123467E+02  0.10332123794E+02  0.26000000000E-02 0.  1.
         -2   -1    0    0    0  501 -0.00000000000E+00 -0.00000000000E+00 -0.45976751029E+02  0.45976751103E+02  0.26000000000E-02 0. -1.
        -13    1    1    2    0    0  0.18713561876E+02  0.10769914723E+02 -0.13982093599E+02  0.25723502388E+02  0.10570000000E+00 0.  1.
         13    1    1    2    0    0 -0.18713561876E+02 -0.10769914723E+02 -0.21662533964E+02  0.30585372508E+02  0.10570000000E+00 0. -1.
<mgrwt>
<rscale>  0 0.43590709E+02</rscale>
<asrwt>0</asrwt>
<pdfrwt beam="1">  1        2 0.15895575E-02 0.43590709E+02</pdfrwt>
<pdfrwt beam="2">  1       -2 0.70733462E-02 0.43590709E+02</pdfrwt>
<totfact> 0.57380957E+05</totfact>
</mgrwt>
</event>
<event>
 4    1  0.3704929E-001  0.4942361E+02  0.7818608E-02  0.1448475E+00
         -2   -1    0    0    0  501 -0.00000000000E+00  0.00000000000E+00  0.12261603320E+02  0.12261603595E+02  0.26000000000E-02 0.  1.
          2   -1    0    0  501    0  0.00000000000E+00 -0.00000000000E+00 -0.49803715841E+02  0.49803715909E+02  0.26000000000E-02 0. -1.
        -13    1    1    2    0    0  0.91031356618E+01  0.22702988823E+02 -0.23187675444E+02  0.33704187357E+02  0.10570000000E+00 0. -1.
         13    1    1    2    0    0 -0.91031356618E+01 -0.22702988823E+02 -0.14354437077E+02  0.28361132147E+02  0.10570000000E+00 0.  1.
<mgrwt>
<rscale>  0 0.49423615E+02</rscale>
<asrwt>0</asrwt>
<pdfrwt beam="2">  1        2 0.76621100E-02 0.49423615E+02</pdfrwt>
<pdfrwt beam="1">  1       -2 0.18864006E-02 0.49423615E+02</pdfrwt>
<totfact> 0.52810934E+05</totfact>
</mgrwt>
</event>
<event>
 4    1  0.3704929E-001  0.1569424E+03  0.7818608E-02  0.1192193E+00
         -2   -1    0    0    0  501 -0.00000000000E+00  0.00000000000E+00  0.12417926748E+03  0.12417926751E+03  0.26000000000E-02 0. -1.
          2   -1    0    0  501    0  0.00000000000E+00 -0.00000000000E+00 -0.49587418509E+02  0.49587418578E+02  0.26000000000E-02 0.  1.
        -13    1    1    2    0    0  0.13148952312E+02  0.70138185833E+02  0.73436445606E+02  0.10239718148E+03  0.10570000000E+00 0. -1.
         13    1    1    2    0    0 -0.13148952312E+02 -0.70138185833E+02  0.11554033670E+01  0.71369504610E+02  0.10570000000E+00 0.  1.
<mgrwt>
<rscale>  0 0.15694240E+03</rscale>
<asrwt>0</asrwt>
<pdfrwt beam="2">  1        2 0.76288337E-02 0.15694240E+03</pdfrwt>
<pdfrwt beam="1">  1       -2 0.19104502E-01 0.15694240E+03</pdfrwt>
<totfact> 0.19309340E+04</totfact>
</mgrwt>
</event>
<event>
 4    1  0.3704929E-001  0.5063157E+02  0.7818608E-02  0.1441964E+00
          2   -1    0    0  501    0  0.00000000000E+00  0.00000000000E+00  0.12525581940E+02  0.12525582209E+02  0.26000000000E-02 0. -1.
         -2   -1    0    0    0  501 -0.00000000000E+00 -0.00000000000E+00 -0.51166409076E+02  0.51166409142E+02  0.26000000000E-02 0.  1.
        -13    1    1    2    0    0  0.15678669836E+02 -0.12701902923E+02 -0.38551786251E+02  0.43513336132E+02  0.10570000000E+00 0. -1.
         13    1    1    2    0    0 -0.15678669836E+02  0.12701902923E+02 -0.89040885431E-01  0.20178655219E+02  0.10570000000E+00 0.  1.
<mgrwt>
<rscale>  0 0.50631574E+02</rscale>
<asrwt>0</asrwt>
<pdfrwt beam="1">  1        2 0.19270127E-02 0.50631574E+02</pdfrwt>
<pdfrwt beam="2">  1       -2 0.78717552E-02 0.50631574E+02</pdfrwt>
<totfact> 0.39400401E+05</totfact>
</mgrwt>
</event>
<event>
 4    1  0.3704929E-001  0.3626986E+02  0.7818608E-02  0.1537605E+00
         -2   -1    0    0    0  501 -0.00000000000E+00  0.00000000000E+00  0.36720371679E+02  0.36720371771E+02  0.26000000000E-02 0. -1.
          2   -1    0    0  501    0  0.00000000000E+00 -0.00000000000E+00 -0.89562183011E+01  0.89562186785E+01  0.26000000000E-02 0.  1.
        -13    1    1    2    0    0  0.89603493971E+00  0.17528355420E+02  0.19628151546E+02  0.26331001271E+02  0.10570000000E+00 0. -1.
         13    1    1    2    0    0 -0.89603493971E+00 -0.17528355420E+02  0.81360018326E+01  0.19345589179E+02  0.10570000000E+00 0.  1.
<mgrwt>
<rscale>  0 0.36269859E+02</rscale>
<asrwt>0</asrwt>
<pdfrwt beam="2">  1        2 0.13778798E-02 0.36269859E+02</pdfrwt>
<pdfrwt beam="1">  1       -2 0.56492879E-02 0.36269859E+02</pdfrwt>
<totfact> 0.91470769E+05</totfact>
</mgrwt>
</event>
<event>
 4    1  0.3704929E-001  0.5058562E+02  0.7818608E-02  0.1442208E+00
         -2   -1    0    0    0  501 -0.00000000000E+00  0.00000000000E+00  0.54302395071E+01  0.54302401296E+01  0.26000000000E-02 0. -1.
          2   -1    0    0  501    0  0.00000000000E+00 -0.00000000000E+00 -0.11780808375E+03  0.11780808377E+03  0.26000000000E-02 0.  1.
        -13    1    1    2    0    0  0.10151443159E+02 -0.14597082094E+02 -0.10001324256E+03  0.10158142775E+03  0.10570000000E+00 0.  1.
         13    1    1    2    0    0 -0.10151443159E+02  0.14597082094E+02 -0.12364601679E+02  0.21656896154E+02  0.10570000000E+00 0. -1.
<mgrwt>
<rscale>  0 0.50585617E+02</rscale>
<asrwt>0</asrwt>
<pdfrwt beam="2">  1        2 0.18124319E-01 0.50585617E+02</pdfrwt>
<pdfrwt beam="1">  1       -2 0.83542160E-03 0.50585617E+02</pdfrwt>
<totfact> 0.60762843E+05</totfact>
</mgrwt>
</event>
<event>
 4    1  0.3704929E-001  0.2803862E+02  0.7818608E-02  0.1620839E+00
          2   -1    0    0  501    0  0.00000000000E+00  0.00000000000E+00  0.42048569054E+02  0.42048569134E+02  0.26000000000E-02 0. -1.
         -2   -1    0    0    0  501 -0.00000000000E+00 -0.00000000000E+00 -0.46741443673E+01  0.46741450904E+01  0.26000000000E-02 0.  1.
        -13    1    1    2    0    0  0.91459608853E+01  0.66417251704E+01  0.48685137105E+01  0.12307506327E+02  0.10570000000E+00 0.  1.
         13    1    1    2    0    0 -0.91459608853E+01 -0.66417251704E+01  0.32505910976E+02  0.34415207898E+02  0.10570000000E+00 0. -1.
<mgrwt>
<rscale>  0 0.28038623E+02</rscale>
<asrwt>0</asrwt>
<pdfrwt beam="1">  1        2 0.64690106E-02 0.28038623E+02</pdfrwt>
<pdfrwt beam="2">  1       -2 0.71909920E-03 0.28038623E+02</pdfrwt>
<totfact> 0.20782297E+06</totfact>
</mgrwt>
</event>
<event>
 4    1  0.3704929E-001  0.3058083E+02  0.7818608E-02  0.1591756E+00
         -2   -1    0    0    0  501 -0.00000000000E+00  0.00000000000E+00  0.10365099008E+02  0.10365099334E+02  0.26000000000E-02 0.  1.
          2   -1    0    0  501    0  0.00000000000E+00 -0.00000000000E+00 -0.22556157165E+02  0.22556157315E+02  0.26000000000E-02 0. -1.
        -13    1    1    2    0    0  0.11290937775E+02 -0.95314761462E+01 -0.10327181332E+02  0.18027649877E+02  0.10570000000E+00 0. -1.
         13    1    1    2    0    0 -0.11290937775E+02  0.95314761462E+01 -0.18638768247E+01  0.14893606772E+02  0.10570000000E+00 0.  1.
<mgrwt>
<rscale>  0 0.30580831E+02</rscale>
<asrwt>0</asrwt>
<pdfrwt beam="2">  1        2 0.34701781E-02 0.30580831E+02</pdfrwt>
<pdfrwt beam="1">  1       -2 0.15946307E-02 0.30580831E+02</pdfrwt>
<totfact> 0.15604684E+06</totfact>
</mgrwt>
</event>
<event>
 4    1  0.3704929E-001  0.2253898E+02  0.7818608E-02  0.1699094E+00
         -2   -1    0    0    0  501 -0.00000000000E+00  0.00000000000E+00  0.18754880983E+01  0.18754899005E+01  0.26000000000E-02 0.  1.
          2   -1    0    0  501    0  0.00000000000E+00 -0.00000000000E+00 -0.67716412256E+02  0.67716412306E+02  0.26000000000E-02 0. -1.
        -13    1    1    2    0    0 -0.76810641686E+01 -0.81337019798E+01 -0.37102298707E+02  0.38752388268E+02  0.10570000000E+00 0. -1.
         13    1    1    2    0    0  0.76810641686E+01  0.81337019798E+01 -0.28738625451E+02  0.30839513938E+02  0.10570000000E+00 0.  1.
<mgrwt>
<rscale>  0 0.22538979E+02</rscale>
<asrwt>0</asrwt>
<pdfrwt beam="2">  1        2 0.10417908E-01 0.22538979E+02</pdfrwt>
<pdfrwt beam="1">  1       -2 0.28853682E-03 0.22538979E+02</pdfrwt>
<totfact> 0.37264837E+06</totfact>
</mgrwt>
</event>
<event>
 4    1  0.3704929E-001  0.2826492E+02  0.7818608E-02  0.1618100E+00
          2   -1    0    0  501    0  0.00000000000E+00  0.00000000000E+00  0.25181240497E+02  0.25181240631E+02  0.26000000000E-02 0. -1.
         -2   -1    0    0    0  501 -0.00000000000E+00 -0.00000000000E+00 -0.79315551546E+01  0.79315555808E+01  0.26000000000E-02 0.  1.
        -13    1    1    2    0    0 -0.45827157440E+01  0.10156096429E+02  0.18808788783E+02  0.21861593863E+02  0.10570000000E+00 0. -1.
         13    1    1    2    0    0  0.45827157440E+01 -0.10156096429E+02 -0.15591034402E+01  0.11251202349E+02  0.10570000000E+00 0.  1.
<mgrwt>
<rscale>  0 0.28264919E+02</rscale>
<asrwt>0</asrwt>
<pdfrwt beam="1">  1        2 0.38740371E-02 0.28264919E+02</pdfrwt>
<pdfrwt beam="2">  1       -2 0.12202393E-02 0.28264919E+02</pdfrwt>
<totfact> 0.19096887E+06</totfact>
</mgrwt>
</event>
<event>
 4    1  0.3704929E-001  0.5132668E+02  0.7818608E-02  0.1438314E+00
          2   -1    0    0  501    0  0.00000000000E+00  0.00000000000E+00  0.44749040533E+02  0.44749040608E+02  0.26000000000E-02 0. -1.
         -2   -1    0    0    0  501 -0.00000000000E+00 -0.00000000000E+00 -0.14717789085E+02  0.14717789314E+02  0.26000000000E-02 0.  1.
        -13    1    1    2    0    0  0.22477840814E+02 -0.68908448032E+01  0.26936138299E+02  0.35753374509E+02  0.10570000000E+00 0. -1.
         13    1    1    2    0    0 -0.22477840814E+02  0.68908448032E+01  0.30951131486E+01  0.23713455414E+02  0.10570000000E+00 0.  1.
<mgrwt>
<rscale>  0 0.51326677E+02</rscale>
<asrwt>0</asrwt>
<pdfrwt beam="1">  1        2 0.68844678E-02 0.51326677E+02</pdfrwt>
<pdfrwt beam="2">  1       -2 0.22642753E-02 0.51326677E+02</pdfrwt>
<totfact> 0.46963278E+05</totfact>
</mgrwt>
</event>
<event>
 4    1  0.3704929E-001  0.2152879E+02  0.7818608E-02  0.1716531E+00
          2   -1    0    0  501    0  0.00000000000E+00  0.00000000000E+00  0.41894899822E+01  0.41894907890E+01  0.26000000000E-02 0. -1.
         -2   -1    0    0    0  501 -0.00000000000E+00 -0.00000000000E+00 -0.27657831871E+02  0.27657831993E+02  0.26000000000E-02 0.  1.
        -13    1    1    2    0    0  0.39206692235E+00 -0.10680699140E+02 -0.98455394237E+01  0.14531925874E+02  0.10570000000E+00 0.  1.
         13    1    1    2    0    0 -0.39206692235E+00  0.10680699140E+02 -0.13622802465E+02  0.17315396908E+02  0.10570000000E+00 0. -1.
<mgrwt>
<rscale>  0 0.21528792E+02</rscale>
<asrwt>0</asrwt>
<pdfrwt beam="1">  1        2 0.64453701E-03 0.21528792E+02</pdfrwt>
<pdfrwt beam="2">  1       -2 0.42550510E-02 0.21528792E+02</pdfrwt>
<totfact> 0.30936348E+06</totfact>
</mgrwt>
</event>
<event>
 4    1  0.3704929E-001  0.3657219E+02  0.7818608E-02  0.1535066E+00
          2   -1    0    0  501    0  0.00000000000E+00  0.00000000000E+00  0.49570118635E+02  0.49570118703E+02  0.26000000000E-02 0. -1.
         -2   -1    0    0    0  501 -0.00000000000E+00 -0.00000000000E+00 -0.67456217632E+01  0.67456222643E+01  0.26000000000E-02 0.  1.
        -13    1    1    2    0    0  0.47261394659E+01  0.14588906574E+02  0.36748853828E+02  0.39820371915E+02  0.10570000000E+00 0. -1.
         13    1    1    2    0    0 -0.47261394659E+01 -0.14588906574E+02  0.60756430433E+01  0.16495369052E+02  0.10570000000E+00 0.  1.
<mgrwt>
<rscale>  0 0.36572191E+02</rscale>
<asrwt>0</asrwt>
<pdfrwt beam="1">  1        2 0.76261718E-02 0.36572191E+02</pdfrwt>
<pdfrwt beam="2">  1       -2 0.10377881E-02 0.36572191E+02</pdfrwt>
<totfact> 0.11243396E+06</totfact>
</mgrwt>
</event>
<event>
 4    1  0.3704929E-001  0.3924899E+02  0.7818608E-02  0.1513812E+00
          2   -1    0    0  501    0  0.00000000000E+00  0.00000000000E+00  0.86645877504E+02  0.86645877543E+02  0.26000000000E-02 0.  1.
         -2   -1    0    0    0  501 -0.00000000000E+00 -0.00000000000E+00 -0.44447681700E+01  0.44447689305E+01  0.26000000000E-02 0. -1.
        -13    1    1    2    0    0 -0.12996539491E+02 -0.14227423132E+02  0.49715873576E+02  0.53319873084E+02  0.10570000000E+00 0.  1.
         13    1    1    2    0    0  0.12996539491E+02  0.14227423132E+02  0.32485235758E+02  0.37770773390E+02  0.10570000000E+00 0. -1.
<mgrwt>
<rscale>  0 0.39248994E+02</rscale>
<asrwt>0</asrwt>
<pdfrwt beam="1">  1        2 0.13330135E-01 0.39248994E+02</pdfrwt>
<pdfrwt beam="2">  1       -2 0.68381056E-03 0.39248994E+02</pdfrwt>
<totfact> 0.10573371E+06</totfact>
</mgrwt>
</event>
<event>
 4    1  0.3704929E-001  0.6380700E+02  0.7818608E-02  0.1382516E+00
          2   -1    0    0  501    0  0.00000000000E+00  0.00000000000E+00  0.55294795148E+02  0.55294795209E+02  0.26000000000E-02 0.  1.
         -2   -1    0    0    0  501 -0.00000000000E+00 -0.00000000000E+00 -0.18407397273E+02  0.18407397456E+02  0.26000000000E-02 0. -1.
        -13    1    1    2    0    0 -0.28810325264E+02 -0.11930311371E+02  0.26231279854E+02  0.40748722514E+02  0.10570000000E+00 0.  1.
         13    1    1    2    0    0  0.28810325264E+02  0.11930311371E+02  0.10656118022E+02  0.32953470151E+02  0.10570000000E+00 0. -1.
<mgrwt>
<rscale>  0 0.63806999E+02</rscale>
<asrwt>0</asrwt>
<pdfrwt beam="1">  1        2 0.85068915E-02 0.63806999E+02</pdfrwt>
<pdfrwt beam="2">  1       -2 0.28319073E-02 0.63806999E+02</pdfrwt>
<totfact> 0.27652666E+05</totfact>
</mgrwt>
</event>
<event>
 4    1  0.3704929E-001  0.3548173E+02  0.7818608E-02  0.1544364E+00
         -2   -1    0    0    0  501 -0.00000000000E+00  0.00000000000E+00  0.67508167811E+02  0.67508167861E+02  0.26000000000E-02 0.  1.
          2   -1    0    0  501    0  0.00000000000E+00 -0.00000000000E+00 -0.46622255321E+01  0.46622262571E+01  0.26000000000E-02 0. -1.
        -13    1    1    2    0    0  0.14769882703E+02  0.21323670754E+01  0.11910121114E+02  0.19093417239E+02  0.10570000000E+00 0. -1.
         13    1    1    2    0    0 -0.14769882703E+02 -0.21323670754E+01  0.50935821165E+02  0.53076976879E+02  0.10570000000E+00 0.  1.
<mgrwt>
<rscale>  0 0.35481732E+02</rscale>
<asrwt>0</asrwt>
<pdfrwt beam="2">  1        2 0.71726553E-03 0.35481732E+02</pdfrwt>
<pdfrwt beam="1">  1       -2 0.10385872E-01 0.35481732E+02</pdfrwt>
<totfact> 0.87549151E+05</totfact>
</mgrwt>
</event>
<event>
 4    1  0.3704929E-001  0.8512964E+02  0.7818608E-02  0.1315094E+00
         -2   -1    0    0    0  501 -0.00000000000E+00  0.00000000000E+00  0.48005254976E+02  0.48005255046E+02  0.26000000000E-02 0.  1.
          2   -1    0    0  501    0  0.00000000000E+00 -0.00000000000E+00 -0.37740948815E+02  0.37740948905E+02  0.26000000000E-02 0. -1.
        -13    1    1    2    0    0 -0.16762630082E+02 -0.37579302683E+02 -0.58353711595E+01  0.41560227219E+02  0.10570000000E+00 0. -1.
         13    1    1    2    0    0  0.16762630082E+02  0.37579302683E+02  0.16099677321E+02  0.44185976732E+02  0.10570000000E+00 0.  1.
<mgrwt>
<rscale>  0 0.85129639E+02</rscale>
<asrwt>0</asrwt>
<pdfrwt beam="2">  1        2 0.58062999E-02 0.85129639E+02</pdfrwt>
<pdfrwt beam="1">  1       -2 0.73854238E-02 0.85129639E+02</pdfrwt>
<totfact> 0.11453980E+05</totfact>
</mgrwt>
</event>
<event>
 4    1  0.3704929E-001  0.2076283E+02  0.7818608E-02  0.1730570E+00
         -2   -1    0    0    0  501 -0.00000000000E+00  0.00000000000E+00  0.25266863928E+02  0.25266864062E+02  0.26000000000E-02 0.  1.
          2   -1    0    0  501    0  0.00000000000E+00 -0.00000000000E+00 -0.42654209339E+01  0.42654217263E+01  0.26000000000E-02 0. -1.
        -13    1    1    2    0    0  0.92916058511E+01 -0.37335694346E+01  0.66082332621E+01  0.11998058149E+02  0.10570000000E+00 0. -1.
         13    1    1    2    0    0 -0.92916058511E+01  0.37335694346E+01  0.14393209732E+02  0.17534227639E+02  0.10570000000E+00 0.  1.
<mgrwt>
<rscale>  0 0.20762834E+02</rscale>
<asrwt>0</asrwt>
<pdfrwt beam="2">  1        2 0.65621867E-03 0.20762834E+02</pdfrwt>
<pdfrwt beam="1">  1       -2 0.38872099E-02 0.20762834E+02</pdfrwt>
<totfact> 0.33793091E+06</totfact>
</mgrwt>
</event>
<event>
 4    1  0.3704929E-001  0.2246643E+02  0.7818608E-02  0.1700308E+00
         -2   -1    0    0    0  501 -0.00000000000E+00  0.00000000000E+00  0.10292311309E+02  0.10292311637E+02  0.26000000000E-02 0.  1.
          2   -1    0    0  501    0  0.00000000000E+00 -0.00000000000E+00 -0.12260133311E+02  0.12260133586E+02  0.26000000000E-02 0. -1.
        -13    1    1    2    0    0  0.67733169512E+01 -0.87099402789E+01 -0.30974556311E+01  0.11460640735E+02  0.10570000000E+00 0. -1.
         13    1    1    2    0    0 -0.67733169512E+01  0.87099402789E+01  0.11296336293E+01  0.11091804488E+02  0.10570000000E+00 0.  1.
<mgrwt>
<rscale>  0 0.22466430E+02</rscale>
<asrwt>0</asrwt>
<pdfrwt beam="2">  1        2 0.18861744E-02 0.22466430E+02</pdfrwt>
<pdfrwt beam="1">  1       -2 0.15834326E-02 0.22466430E+02</pdfrwt>
<totfact> 0.30650715E+06</totfact>
</mgrwt>
</event>
<event>
 4    1  0.3704929E-001  0.5896637E+02  0.7818608E-02  0.1402221E+00
          2   -1    0    0  501    0  0.00000000000E+00  0.00000000000E+00  0.39673781199E+01  0.39673789718E+01  0.26000000000E-02 0. -1.
         -2   -1    0    0    0  501 -0.00000000000E+00 -0.00000000000E+00 -0.21910142783E+03  0.21910142784E+03  0.26000000000E-02 0.  1.
        -13    1    1    2    0    0  0.25289893710E+02 -0.12008449888E+02 -0.72594261404E+02  0.77805652454E+02  0.10570000000E+00 0. -1.
         13    1    1    2    0    0 -0.25289893710E+02  0.12008449888E+02 -0.14253978830E+03  0.14526315436E+03  0.10570000000E+00 0.  1.
<mgrwt>
<rscale>  0 0.58966374E+02</rscale>
<asrwt>0</asrwt>
<pdfrwt beam="1">  1        2 0.61036610E-03 0.58966374E+02</pdfrwt>
<pdfrwt beam="2">  1       -2 0.33707903E-01 0.58966374E+02</pdfrwt>
<totfact> 0.18026158E+05</totfact>
</mgrwt>
</event>
<event>
 4    1  0.3704929E-001  0.4891826E+02  0.7818608E-02  0.1451265E+00
          2   -1    0    0  501    0  0.00000000000E+00  0.00000000000E+00  0.63453106405E+02  0.63453106458E+02  0.26000000000E-02 0. -1.
         -2   -1    0    0    0  501 -0.00000000000E+00 -0.00000000000E+00 -0.94282058445E+01  0.94282062030E+01  0.26000000000E-02 0.  1.
        -13    1    1    2    0    0  0.14990516673E+02 -0.92409630513E+01  0.17231366115E+01  0.17694387825E+02  0.10570000000E+00 0. -1.
         13    1    1    2    0    0 -0.14990516673E+02  0.92409630513E+01  0.52301763949E+02  0.55186924836E+02  0.10570000000E+00 0.  1.
<mgrwt>
<rscale>  0 0.48918257E+02</rscale>
<asrwt>0</asrwt>
<pdfrwt beam="1">  1        2 0.97620163E-02 0.48918257E+02</pdfrwt>
<pdfrwt beam="2">  1       -2 0.14504933E-02 0.48918257E+02</pdfrwt>
<totfact> 0.56894406E+05</totfact>
</mgrwt>
</event>
<event>
 4    1  0.3704929E-001  0.2569788E+02  0.7818608E-02  0.1651176E+00
         -2   -1    0    0    0  501 -0.00000000000E+00  0.00000000000E+00  0.53548772642E+02  0.53548772705E+02  0.26000000000E-02 0.  1.
          2   -1    0    0  501    0  0.00000000000E+00 -0.00000000000E+00 -0.30830816239E+01  0.30830827202E+01  0.26000000000E-02 0. -1.
        -13    1    1    2    0    0  0.66479346916E+01 -0.10101167846E+02  0.34802189314E+02  0.36843346496E+02  0.10570000000E+00 0. -1.
         13    1    1    2    0    0 -0.66479346916E+01  0.10101167846E+02  0.15663501704E+02  0.19788508929E+02  0.10570000000E+00 0.  1.
<mgrwt>
<rscale>  0 0.25697881E+02</rscale>
<asrwt>0</asrwt>
<pdfrwt beam="2">  1        2 0.47432036E-03 0.25697881E+02</pdfrwt>
<pdfrwt beam="1">  1       -2 0.82382724E-02 0.25697881E+02</pdfrwt>
<totfact> 0.19197122E+06</totfact>
</mgrwt>
</event>
<event>
 4    1  0.3704929E-001  0.3808740E+02  0.7818608E-02  0.1522777E+00
          2   -1    0    0  501    0  0.00000000000E+00  0.00000000000E+00  0.20659040595E+01  0.20659056956E+01  0.26000000000E-02 0. -1.
         -2   -1    0    0    0  501 -0.00000000000E+00 -0.00000000000E+00 -0.17554656004E+03  0.17554656006E+03  0.26000000000E-02 0.  1.
        -13    1    1    2    0    0  0.46682780590E+00 -0.18630940138E+02 -0.68486989920E+02  0.70977523339E+02  0.10570000000E+00 0. -1.
         13    1    1    2    0    0 -0.46682780590E+00  0.18630940138E+02 -0.10499366606E+03  0.10663494242E+03  0.10570000000E+00 0.  1.
<mgrwt>
<rscale>  0 0.38087399E+02</rscale>
<asrwt>0</asrwt>
<pdfrwt beam="1">  1        2 0.31783166E-03 0.38087399E+02</pdfrwt>
<pdfrwt beam="2">  1       -2 0.27007152E-01 0.38087399E+02</pdfrwt>
<totfact> 0.57373898E+05</totfact>
</mgrwt>
</event>
<event>
 4    1  0.3704929E-001  0.4541983E+02  0.7818608E-02  0.1471738E+00
         -2   -1    0    0    0  501 -0.00000000000E+00  0.00000000000E+00  0.13882362199E+02  0.13882362442E+02  0.26000000000E-02 0. -1.
          2   -1    0    0  501    0  0.00000000000E+00 -0.00000000000E+00 -0.37150748792E+02  0.37150748883E+02  0.26000000000E-02 0.  1.
        -13    1    1    2    0    0  0.17013727019E+02 -0.12256271248E+02 -0.21432351854E+02  0.29983995239E+02  0.10570000000E+00 0.  1.
         13    1    1    2    0    0 -0.17013727019E+02  0.12256271248E+02 -0.18360347394E+01  0.21049116087E+02  0.10570000000E+00 0. -1.
<mgrwt>
<rscale>  0 0.45419826E+02</rscale>
<asrwt>0</asrwt>
<pdfrwt beam="2">  1        2 0.57154998E-02 0.45419826E+02</pdfrwt>
<pdfrwt beam="1">  1       -2 0.21357481E-02 0.45419826E+02</pdfrwt>
<totfact> 0.62295312E+05</totfact>
</mgrwt>
</event>
<event>
 4    1  0.3704929E-001  0.2161736E+02  0.7818608E-02  0.1714955E+00
          2   -1    0    0  501    0  0.00000000000E+00  0.00000000000E+00  0.81443231840E+02  0.81443231881E+02  0.26000000000E-02 0.  1.
         -2   -1    0    0    0  501 -0.00000000000E+00 -0.00000000000E+00 -0.14344652567E+01  0.14344676130E+01  0.26000000000E-02 0. -1.
        -13    1    1    2    0    0  0.92006198132E+01  0.39706983434E+01  0.24479158834E+02  0.26451053665E+02  0.10570000000E+00 0.  1.
         13    1    1    2    0    0 -0.92006198132E+01 -0.39706983434E+01  0.55529607749E+02  0.56426645829E+02  0.10570000000E+00 0. -1.
<mgrwt>
<rscale>  0 0.21617362E+02</rscale>
<asrwt>0</asrwt>
<pdfrwt beam="1">  1        2 0.12529729E-01 0.21617362E+02</pdfrwt>
<pdfrwt beam="2">  1       -2 0.22068713E-03 0.21617362E+02</pdfrwt>
<totfact> 0.42448371E+06</totfact>
</mgrwt>
</event>
<event>
 4    1  0.3704929E-001  0.3244433E+02  0.7818608E-02  0.1572542E+00
         -2   -1    0    0    0  501 -0.00000000000E+00  0.00000000000E+00  0.22832747028E+01  0.22832761831E+01  0.26000000000E-02 0. -1.
          2   -1    0    0  501    0  0.00000000000E+00 -0.00000000000E+00 -0.11525485823E+03  0.11525485826E+03  0.26000000000E-02 0.  1.
        -13    1    1    2    0    0 -0.14624476560E+02 -0.65421416239E+01 -0.47269088502E+02  0.49910448124E+02  0.10570000000E+00 0. -1.
         13    1    1    2    0    0  0.14624476560E+02  0.65421416239E+01 -0.65702495024E+02  0.67627686317E+02  0.10570000000E+00 0.  1.
<mgrwt>
<rscale>  0 0.32444327E+02</rscale>
<asrwt>0</asrwt>
<pdfrwt beam="2">  1        2 0.17731512E-01 0.32444327E+02</pdfrwt>
<pdfrwt beam="1">  1       -2 0.35127324E-03 0.32444327E+02</pdfrwt>
<totfact> 0.17980222E+06</totfact>
</mgrwt>
</event>
<event>
 4    1  0.3704929E-001  0.2551966E+02  0.7818608E-02  0.1653648E+00
          2   -1    0    0  501    0  0.00000000000E+00  0.00000000000E+00  0.20148840257E+02  0.20148840425E+02  0.26000000000E-02 0.  1.
         -2   -1    0    0    0  501 -0.00000000000E+00 -0.00000000000E+00 -0.80805287517E+01  0.80805291700E+01  0.26000000000E-02 0. -1.
        -13    1    1    2    0    0 -0.12564044687E+02  0.13448768417E+01  0.79937537745E+01  0.14952430723E+02  0.10570000000E+00 0.  1.
         13    1    1    2    0    0  0.12564044687E+02 -0.13448768417E+01  0.40745577306E+01  0.13276938872E+02  0.10570000000E+00 0. -1.
<mgrwt>
<rscale>  0 0.25519662E+02</rscale>
<asrwt>0</asrwt>
<pdfrwt beam="1">  1        2 0.30998216E-02 0.25519662E+02</pdfrwt>
<pdfrwt beam="2">  1       -2 0.12431583E-02 0.25519662E+02</pdfrwt>
<totfact> 0.23770220E+06</totfact>
</mgrwt>
</event>
<event>
 4    1  0.3704929E-001  0.4264317E+02  0.7818608E-02  0.1489615E+00
         -2   -1    0    0    0  501 -0.00000000000E+00  0.00000000000E+00  0.11054849966E+02  0.11054850272E+02  0.26000000000E-02 0. -1.
          2   -1    0    0  501    0  0.00000000000E+00 -0.00000000000E+00 -0.41123129115E+02  0.41123129197E+02  0.26000000000E-02 0.  1.
        -13    1    1    2    0    0  0.18509493849E+02  0.93942568685E+01 -0.90716473813E+01  0.22653021506E+02  0.10570000000E+00 0. -1.
         13    1    1    2    0    0 -0.18509493849E+02 -0.93942568685E+01 -0.20996631768E+02  0.29524957963E+02  0.10570000000E+00 0.  1.
<mgrwt>
<rscale>  0 0.42643172E+02</rscale>
<asrwt>0</asrwt>
<pdfrwt beam="2">  1        2 0.63266352E-02 0.42643172E+02</pdfrwt>
<pdfrwt beam="1">  1       -2 0.17007462E-02 0.42643172E+02</pdfrwt>
<totfact> 0.74354319E+05</totfact>
</mgrwt>
</event>
<event>
 4    1  0.3704929E-001  0.2981558E+02  0.7818608E-02  0.1600136E+00
         -2   -1    0    0    0  501 -0.00000000000E+00  0.00000000000E+00  0.11562803998E+02  0.11562804291E+02  0.26000000000E-02 0.  1.
          2   -1    0    0  501    0  0.00000000000E+00 -0.00000000000E+00 -0.19220437960E+02  0.19220438135E+02  0.26000000000E-02 0. -1.
        -13    1    1    2    0    0  0.12800177432E+02  0.28524801631E+01 -0.11147590935E+02  0.17212238132E+02  0.10570000000E+00 0. -1.
         13    1    1    2    0    0 -0.12800177432E+02 -0.28524801631E+01  0.34899569740E+01  0.13571004294E+02  0.10570000000E+00 0.  1.
<mgrwt>
<rscale>  0 0.29815577E+02</rscale>
<asrwt>0</asrwt>
<pdfrwt beam="2">  1        2 0.29569905E-02 0.29815577E+02</pdfrwt>
<pdfrwt beam="1">  1       -2 0.17788930E-02 0.29815577E+02</pdfrwt>
<totfact> 0.16308154E+06</totfact>
</mgrwt>
</event>
<event>
 4    1  0.3704929E-001  0.2902369E+02  0.7818608E-02  0.1609138E+00
         -2   -1    0    0    0  501 -0.00000000000E+00  0.00000000000E+00  0.45018030672E+01  0.45018038180E+01  0.26000000000E-02 0. -1.
          2   -1    0    0  501    0  0.00000000000E+00 -0.00000000000E+00 -0.46779825715E+02  0.46779825787E+02  0.26000000000E-02 0.  1.
        -13    1    1    2    0    0 -0.93728062979E+01  0.10705185192E+02 -0.26177565109E+02  0.29794740735E+02  0.10570000000E+00 0.  1.
         13    1    1    2    0    0  0.93728062979E+01 -0.10705185192E+02 -0.16100457538E+02  0.21486888871E+02  0.10570000000E+00 0. -1.
<mgrwt>
<rscale>  0 0.29023686E+02</rscale>
<asrwt>0</asrwt>
<pdfrwt beam="2">  1        2 0.71968960E-02 0.29023686E+02</pdfrwt>
<pdfrwt beam="1">  1       -2 0.69258518E-03 0.29023686E+02</pdfrwt>
<totfact> 0.19462631E+06</totfact>
</mgrwt>
</event>
<event>
 4    1  0.3704929E-001  0.5755566E+02  0.7818608E-02  0.1408385E+00
         -2   -1    0    0    0  501 -0.00000000000E+00  0.00000000000E+00  0.15225882372E+03  0.15225882375E+03  0.26000000000E-02 0. -1.
          2   -1    0    0  501    0  0.00000000000E+00 -0.00000000000E+00 -0.54391813466E+01  0.54391819680E+01  0.26000000000E-02 0.  1.
        -13    1    1    2    0    0  0.15951150830E+02 -0.17854277659E+02  0.29662114186E+02  0.38119111138E+02  0.10570000000E+00 0.  1.
         13    1    1    2    0    0 -0.15951150830E+02  0.17854277659E+02  0.11715752819E+03  0.11957889458E+03  0.10570000000E+00 0. -1.
<mgrwt>
<rscale>  0 0.57555657E+02</rscale>
<asrwt>0</asrwt>
<pdfrwt beam="2">  1        2 0.83679710E-03 0.57555657E+02</pdfrwt>
<pdfrwt beam="1">  1       -2 0.23424437E-01 0.57555657E+02</pdfrwt>
<totfact> 0.22060251E+05</totfact>
</mgrwt>
</event>
<event>
 4    1  0.3704929E-001  0.3761738E+02  0.7818608E-02  0.1526515E+00
          2   -1    0    0  501    0  0.00000000000E+00  0.00000000000E+00  0.49986394208E+02  0.49986394276E+02  0.26000000000E-02 0.  1.
         -2   -1    0    0    0  501 -0.00000000000E+00 -0.00000000000E+00 -0.70772614272E+01  0.70772619048E+01  0.26000000000E-02 0. -1.
        -13    1    1    2    0    0  0.12823575466E+02  0.13745191151E+02  0.22391219840E+02  0.29236146564E+02  0.10570000000E+00 0.  1.
         13    1    1    2    0    0 -0.12823575466E+02 -0.13745191151E+02  0.20517912942E+02  0.27827509617E+02  0.10570000000E+00 0. -1.
<mgrwt>
<rscale>  0 0.37617379E+02</rscale>
<asrwt>0</asrwt>
<pdfrwt beam="1">  1        2 0.76902146E-02 0.37617379E+02</pdfrwt>
<pdfrwt beam="2">  1       -2 0.10888095E-02 0.37617379E+02</pdfrwt>
<totfact> 0.10504786E+06</totfact>
</mgrwt>
</event>
<event>
 4    1  0.3704929E-001  0.3328699E+02  0.7818608E-02  0.1564361E+00
          2   -1    0    0  501    0  0.00000000000E+00  0.00000000000E+00  0.26716626455E+02  0.26716626582E+02  0.26000000000E-02 0.  1.
         -2   -1    0    0    0  501 -0.00000000000E+00 -0.00000000000E+00 -0.10368299637E+02  0.10368299963E+02  0.26000000000E-02 0. -1.
        -13    1    1    2    0    0 -0.86287769258E+01 -0.94976140301E+01 -0.36339129020E+01  0.13337052109E+02  0.10570000000E+00 0. -1.
         13    1    1    2    0    0  0.86287769258E+01  0.94976140301E+01  0.19982239720E+02  0.23747874436E+02  0.10570000000E+00 0.  1.
<mgrwt>
<rscale>  0 0.33286994E+02</rscale>
<asrwt>0</asrwt>
<pdfrwt beam="1">  1        2 0.41102502E-02 0.33286994E+02</pdfrwt>
<pdfrwt beam="2">  1       -2 0.15951231E-02 0.33286994E+02</pdfrwt>
<totfact> 0.12945064E+06</totfact>
</mgrwt>
</event>
<event>
 4    1  0.3704929E-001  0.4787884E+02  0.7818608E-02  0.1457130E+00
          2   -1    0    0  501    0  0.00000000000E+00  0.00000000000E+00  0.74042834321E+01  0.74042838886E+01  0.26000000000E-02 0.  1.
         -2   -1    0    0    0  501 -0.00000000000E+00 -0.00000000000E+00 -0.77400574930E+02  0.77400574974E+02  0.26000000000E-02 0. -1.
        -13    1    1    2    0    0 -0.16236224929E+01 -0.13499807005E+02 -0.99629829828E-01  0.13597868868E+02  0.10570000000E+00 0.  1.
         13    1    1    2    0    0  0.16236224929E+01  0.13499807005E+02 -0.69896661668E+02  0.71206989994E+02  0.10570000000E+00 0. -1.
<mgrwt>
<rscale>  0 0.47878839E+02</rscale>
<asrwt>0</asrwt>
<pdfrwt beam="1">  1        2 0.11391206E-02 0.47878839E+02</pdfrwt>
<pdfrwt beam="2">  1       -2 0.11907780E-01 0.47878839E+02</pdfrwt>
<totfact> 0.41622335E+05</totfact>
</mgrwt>
</event>
<event>
 4    1  0.3704929E-001  0.3646157E+02  0.7818608E-02  0.1535992E+00
          2   -1    0    0  501    0  0.00000000000E+00  0.00000000000E+00  0.36278826924E+01  0.36278836241E+01  0.26000000000E-02 0. -1.
         -2   -1    0    0    0  501 -0.00000000000E+00 -0.00000000000E+00 -0.91613094751E+02  0.91613094788E+02  0.26000000000E-02 0.  1.
        -13    1    1    2    0    0 -0.57899284449E+01  0.16801525910E+02 -0.33370705812E+02  0.37807799766E+02  0.10570000000E+00 0. -1.
         13    1    1    2    0    0  0.57899284449E+01 -0.16801525910E+02 -0.54614506246E+02  0.57433178646E+02  0.10570000000E+00 0.  1.
<mgrwt>
<rscale>  0 0.36461575E+02</rscale>
<asrwt>0</asrwt>
<pdfrwt beam="1">  1        2 0.55813595E-03 0.36461575E+02</pdfrwt>
<pdfrwt beam="2">  1       -2 0.14094321E-01 0.36461575E+02</pdfrwt>
<totfact> 0.77073644E+05</totfact>
</mgrwt>
</event>
<event>
 4    1  0.3704929E-001  0.5118488E+02  0.7818608E-02  0.1439053E+00
         -2   -1    0    0    0  501 -0.00000000000E+00  0.00000000000E+00  0.10690143020E+02  0.10690143336E+02  0.26000000000E-02 0. -1.
          2   -1    0    0  501    0  0.00000000000E+00 -0.00000000000E+00 -0.61268857118E+02  0.61268857173E+02  0.26000000000E-02 0.  1.
        -13    1    1    2    0    0 -0.96791081241E+01  0.23549281050E+02 -0.28930495731E+02  0.38538792505E+02  0.10570000000E+00 0. -1.
         13    1    1    2    0    0  0.96791081241E+01 -0.23549281050E+02 -0.21648218367E+02  0.33420208004E+02  0.10570000000E+00 0.  1.
<mgrwt>
<rscale>  0 0.51184875E+02</rscale>
<asrwt>0</asrwt>
<pdfrwt beam="2">  1        2 0.94259779E-02 0.51184875E+02</pdfrwt>
<pdfrwt beam="1">  1       -2 0.16446374E-02 0.51184875E+02</pdfrwt>
<totfact> 0.50301548E+05</totfact>
</mgrwt>
</event>
<event>
 4    1  0.3704929E-001  0.2449424E+02  0.7818608E-02  0.1668374E+00
         -2   -1    0    0    0  501 -0.00000000000E+00  0.00000000000E+00  0.20020194291E+02  0.20020194460E+02  0.26000000000E-02 0.  1.
          2   -1    0    0  501    0  0.00000000000E+00 -0.00000000000E+00 -0.74920337961E+01  0.74920342472E+01  0.26000000000E-02 0. -1.
        -13    1    1    2    0    0 -0.78484001827E+01 -0.67072579794E+01  0.13663321268E+02  0.17125484390E+02  0.10570000000E+00 0.  1.
         13    1    1    2    0    0  0.78484001827E+01  0.67072579794E+01 -0.11351607734E+01  0.10386744317E+02  0.10570000000E+00 0. -1.
<mgrwt>
<rscale>  0 0.24494243E+02</rscale>
<asrwt>0</asrwt>
<pdfrwt beam="2">  1        2 0.11526206E-02 0.24494243E+02</pdfrwt>
<pdfrwt beam="1">  1       -2 0.30800299E-02 0.24494243E+02</pdfrwt>
<totfact> 0.23967410E+06</totfact>
</mgrwt>
</event>
<event>
 4    1  0.3704929E-001  0.2049018E+02  0.7818608E-02  0.1735752E+00
          2   -1    0    0  501    0  0.00000000000E+00  0.00000000000E+00  0.66290805481E+02  0.66290805532E+02  0.26000000000E-02 0.  1.
         -2   -1    0    0    0  501 -0.00000000000E+00 -0.00000000000E+00 -0.15833532416E+01  0.15833553764E+01  0.26000000000E-02 0. -1.
        -13    1    1    2    0    0  0.10099294150E+02 -0.21978185098E+00  0.26706272448E+02  0.28553112036E+02  0.10570000000E+00 0. -1.
         13    1    1    2    0    0 -0.10099294150E+02  0.21978185098E+00  0.38001179791E+02  0.39321048872E+02  0.10570000000E+00 0.  1.
<mgrwt>
<rscale>  0 0.20490177E+02</rscale>
<asrwt>0</asrwt>
<pdfrwt beam="1">  1        2 0.10198584E-01 0.20490177E+02</pdfrwt>
<pdfrwt beam="2">  1       -2 0.24359301E-03 0.20490177E+02</pdfrwt>
<totfact> 0.45989455E+06</totfact>
</mgrwt>
</event>
<event>
 4    1  0.3704929E-001  0.2440585E+02  0.7818608E-02  0.1669686E+00
          2   -1    0    0  501    0  0.00000000000E+00  0.00000000000E+00  0.43041742639E+02  0.43041742717E+02  0.26000000000E-02 0. -1.
         -2   -1    0    0    0  501 -0.00000000000E+00 -0.00000000000E+00 -0.34596953184E+01  0.34596962953E+01  0.26000000000E-02 0.  1.
        -13    1    1    2    0    0 -0.10210367760E+02  0.28262619413E+01  0.82545391584E+01  0.13430858333E+02  0.10570000000E+00 0. -1.
         13    1    1    2    0    0  0.10210367760E+02 -0.28262619413E+01  0.31327508162E+02  0.33070580680E+02  0.10570000000E+00 0.  1.
<mgrwt>
<rscale>  0 0.24405847E+02</rscale>
<asrwt>0</asrwt>
<pdfrwt beam="1">  1        2 0.66218067E-02 0.24405847E+02</pdfrwt>
<pdfrwt beam="2">  1       -2 0.53226089E-03 0.24405847E+02</pdfrwt>
<totfact> 0.28843471E+06</totfact>
</mgrwt>
</event>
<event>
 4    1  0.3704929E-001  0.3975918E+02  0.7818608E-02  0.1509991E+00
         -2   -1    0    0    0  501 -0.00000000000E+00  0.00000000000E+00  0.64707217953E+01  0.64707223177E+01  0.26000000000E-02 0. -1.
          2   -1    0    0  501    0  0.00000000000E+00 -0.00000000000E+00 -0.61074809888E+02  0.61074809943E+02  0.26000000000E-02 0.  1.
        -13    1    1    2    0    0  0.15785466213E+02  0.11892766496E+02 -0.30933055071E+02  0.36708090484E+02  0.10570000000E+00 0. -1.
         13    1    1    2    0    0 -0.15785466213E+02 -0.11892766496E+02 -0.23671033022E+02  0.30837441776E+02  0.10570000000E+00 0.  1.
<mgrwt>
<rscale>  0 0.39759181E+02</rscale>
<asrwt>0</asrwt>
<pdfrwt beam="2">  1        2 0.93961243E-02 0.39759181E+02</pdfrwt>
<pdfrwt beam="1">  1       -2 0.99549574E-03 0.39759181E+02</pdfrwt>
<totfact> 0.95049961E+05</totfact>
</mgrwt>
</event>
<event>
 4    1  0.3704929E-001  0.3606997E+02  0.7818608E-02  0.1539299E+00
         -2   -1    0    0    0  501 -0.00000000000E+00  0.00000000000E+00  0.13687826967E+02  0.13687827213E+02  0.26000000000E-02 0.  1.
          2   -1    0    0  501    0  0.00000000000E+00 -0.00000000000E+00 -0.23762774880E+02  0.23762775022E+02  0.26000000000E-02 0. -1.
        -13    1    1    2    0    0  0.86579523195E+01 -0.71694807406E+01 -0.19680042244E+02  0.22664439716E+02  0.10570000000E+00 0. -1.
         13    1    1    2    0    0 -0.86579523195E+01  0.71694807406E+01  0.96050943304E+01  0.14786162519E+02  0.10570000000E+00 0.  1.
<mgrwt>
<rscale>  0 0.36069974E+02</rscale>
<asrwt>0</asrwt>
<pdfrwt beam="2">  1        2 0.36558116E-02 0.36069974E+02</pdfrwt>
<pdfrwt beam="1">  1       -2 0.21058196E-02 0.36069974E+02</pdfrwt>
<totfact> 0.10461678E+06</totfact>
</mgrwt>
</event>
<event>
 4    1  0.3704929E-001  0.7901043E+02  0.7818608E-02  0.1331883E+00
          2   -1    0    0  501    0  0.00000000000E+00  0.00000000000E+00  0.27542788682E+03  0.27542788683E+03  0.26000000000E-02 0.  1.
         -2   -1    0    0    0  501 -0.00000000000E+00 -0.00000000000E+00 -0.56663180170E+01  0.56663186135E+01  0.26000000000E-02 0. -1.
        -13    1    1    2    0    0  0.36750157225E+02  0.35003209904E+01  0.18491966827E+03  0.18856861136E+03  0.10570000000E+00 0.  1.
         13    1    1    2    0    0 -0.36750157225E+02 -0.35003209904E+01  0.84841900530E+02  0.92525594087E+02  0.10570000000E+00 0. -1.
<mgrwt>
<rscale>  0 0.79010432E+02</rscale>
<asrwt>0</asrwt>
<pdfrwt beam="1">  1        2 0.42373525E-01 0.79010432E+02</pdfrwt>
<pdfrwt beam="2">  1       -2 0.87174121E-03 0.79010432E+02</pdfrwt>
<totfact> 0.25437022E+05</totfact>
</mgrwt>
</event>
<event>
 4    1  0.3704929E-001  0.2806074E+02  0.7818608E-02  0.1620570E+00
         -2   -1    0    0    0  501 -0.00000000000E+00  0.00000000000E+00  0.15912582123E+02  0.15912582336E+02  0.26000000000E-02 0. -1.
          2   -1    0    0  501    0  0.00000000000E+00 -0.00000000000E+00 -0.12370795998E+02  0.12370796272E+02  0.26000000000E-02 0.  1.
        -13    1    1    2    0    0 -0.88041843485E+01  0.50680279880E+01 -0.79827415001E+01  0.12920290402E+02  0.10570000000E+00 0.  1.
         13    1    1    2    0    0  0.88041843485E+01 -0.50680279880E+01  0.11524527625E+02  0.15363088205E+02  0.10570000000E+00 0. -1.
<mgrwt>
<rscale>  0 0.28060742E+02</rscale>
<asrwt>0</asrwt>
<pdfrwt beam="2">  1        2 0.19031994E-02 0.28060742E+02</pdfrwt>
<pdfrwt beam="1">  1       -2 0.24480896E-02 0.28060742E+02</pdfrwt>
<totfact> 0.18075636E+06</totfact>
</mgrwt>
</event>
<event>
 4    1  0.3704929E-001  0.5931203E+02  0.7818608E-02  0.1400742E+00
          2   -1    0    0  501    0  0.00000000000E+00  0.00000000000E+00  0.53058382626E+02  0.53058382690E+02  0.26000000000E-02 0.  1.
         -2   -1    0    0    0  501 -0.00000000000E+00 -0.00000000000E+00 -0.16575688997E+02  0.16575689200E+02  0.26000000000E-02 0. -1.
        -13    1    1    2    0    0  0.61279915646E+01 -0.18508423584E+02 -0.79937872882E+01  0.21071920460E+02  0.10570000000E+00 0. -1.
         13    1    1    2    0    0 -0.61279915646E+01  0.18508423584E+02  0.44476480918E+02  0.48562151430E+02  0.10570000000E+00 0.  1.
<mgrwt>
<rscale>  0 0.59312031E+02</rscale>
<asrwt>0</asrwt>
<pdfrwt beam="1">  1        2 0.81628282E-02 0.59312031E+02</pdfrwt>
<pdfrwt beam="2">  1       -2 0.25501060E-02 0.59312031E+02</pdfrwt>
<totfact> 0.33264585E+05</totfact>
</mgrwt>
</event>
<event>
 4    1  0.3704929E-001  0.3522062E+02  0.7818608E-02  0.1546650E+00
         -2   -1    0    0    0  501 -0.00000000000E+00  0.00000000000E+00  0.17448137059E+01  0.17448156430E+01  0.26000000000E-02 0. -1.
          2   -1    0    0  501    0  0.00000000000E+00 -0.00000000000E+00 -0.17773975913E+03  0.17773975915E+03  0.26000000000E-02 0.  1.
        -13    1    1    2    0    0  0.78160735242E+01  0.15741197105E+02 -0.93661794426E+02  0.95296480519E+02  0.10570000000E+00 0.  1.
         13    1    1    2    0    0 -0.78160735242E+01 -0.15741197105E+02 -0.82333151001E+02  0.84188094277E+02  0.10570000000E+00 0. -1.
<mgrwt>
<rscale>  0 0.35220616E+02</rscale>
<asrwt>0</asrwt>
<pdfrwt beam="2">  1        2 0.27344564E-01 0.35220616E+02</pdfrwt>
<pdfrwt beam="1">  1       -2 0.26843317E-03 0.35220616E+02</pdfrwt>
<totfact> 0.16724986E+06</totfact>
</mgrwt>
</event>
<event>
 4    1  0.3704929E-001  0.3339563E+02  0.7818608E-02  0.1563327E+00
         -2   -1    0    0    0  501 -0.00000000000E+00  0.00000000000E+00  0.40192754975E+02  0.40192755059E+02  0.26000000000E-02 0. -1.
          2   -1    0    0  501    0  0.00000000000E+00 -0.00000000000E+00 -0.69369972546E+01  0.69369977418E+01  0.26000000000E-02 0.  1.
        -13    1    1    2    0    0 -0.14194862494E+02  0.81494792734E+00  0.28983222155E+02  0.32283069872E+02  0.10570000000E+00 0. -1.
         13    1    1    2    0    0  0.14194862494E+02 -0.81494792734E+00  0.42725355649E+01  0.14846682929E+02  0.10570000000E+00 0.  1.
<mgrwt>
<rscale>  0 0.33395631E+02</rscale>
<asrwt>0</asrwt>
<pdfrwt beam="2">  1        2 0.10672304E-02 0.33395631E+02</pdfrwt>
<pdfrwt beam="1">  1       -2 0.61835007E-02 0.33395631E+02</pdfrwt>
<totfact> 0.10952093E+06</totfact>
</mgrwt>
</event>
<event>
 4    1  0.3704929E-001  0.3485729E+02  0.7818608E-02  0.1549871E+00
          2   -1    0    0  501    0  0.00000000000E+00  0.00000000000E+00  0.29979757841E+02  0.29979757953E+02  0.26000000000E-02 0.  1.
         -2   -1    0    0    0  501 -0.00000000000E+00 -0.00000000000E+00 -0.10132093059E+02  0.10132093393E+02  0.26000000000E-02 0. -1.
        -13    1    1    2    0    0 -0.53540954246E+01  0.13453733489E+02 -0.12376368627E+01  0.14533141439E+02  0.10570000000E+00 0. -1.
         13    1    1    2    0    0  0.53540954246E+01 -0.13453733489E+02  0.21085301644E+02  0.25578709907E+02  0.10570000000E+00 0.  1.
<mgrwt>
<rscale>  0 0.34857292E+02</rscale>
<asrwt>0</asrwt>
<pdfrwt beam="1">  1        2 0.46122705E-02 0.34857292E+02</pdfrwt>
<pdfrwt beam="2">  1       -2 0.15587836E-02 0.34857292E+02</pdfrwt>
<totfact> 0.11731845E+06</totfact>
</mgrwt>
</event>
<event>
 4    1  0.3704929E-001  0.2360450E+02  0.7818608E-02  0.1681895E+00
         -2   -1    0    0    0  501 -0.00000000000E+00  0.00000000000E+00  0.14492996744E+01  0.14493020066E+01  0.26000000000E-02 0. -1.
          2   -1    0    0  501    0  0.00000000000E+00 -0.00000000000E+00 -0.96110517444E+02  0.96110517480E+02  0.26000000000E-02 0.  1.
        -13    1    1    2    0    0 -0.24717770305E+01  0.11029910639E+02 -0.33306486860E+02  0.35172458683E+02  0.10570000000E+00 0. -1.
         13    1    1    2    0    0  0.24717770305E+01 -0.11029910639E+02 -0.61354730910E+02  0.62387360803E+02  0.10570000000E+00 0.  1.
<mgrwt>
<rscale>  0 0.23604496E+02</rscale>
<asrwt>0</asrwt>
<pdfrwt beam="2">  1        2 0.14786229E-01 0.23604496E+02</pdfrwt>
<pdfrwt beam="1">  1       -2 0.22296944E-03 0.23604496E+02</pdfrwt>
<totfact> 0.36074102E+06</totfact>
</mgrwt>
</event>
<event>
 4    1  0.3704929E-001  0.3967542E+02  0.7818608E-02  0.1510614E+00
          2   -1    0    0  501    0  0.00000000000E+00  0.00000000000E+00  0.14089266246E+02  0.14089266486E+02  0.26000000000E-02 0. -1.
         -2   -1    0    0    0  501 -0.00000000000E+00 -0.00000000000E+00 -0.27931531035E+02  0.27931531156E+02  0.26000000000E-02 0.  1.
        -13    1    1    2    0    0 -0.13683957536E+02  0.14329217934E+02 -0.58907760305E+01  0.20670984378E+02  0.10570000000E+00 0.  1.
         13    1    1    2    0    0  0.13683957536E+02 -0.14329217934E+02 -0.79514887590E+01  0.21349813264E+02  0.10570000000E+00 0. -1.
<mgrwt>
<rscale>  0 0.39675422E+02</rscale>
<asrwt>0</asrwt>
<pdfrwt beam="1">  1        2 0.21675795E-02 0.39675422E+02</pdfrwt>
<pdfrwt beam="2">  1       -2 0.42971586E-02 0.39675422E+02</pdfrwt>
<totfact> 0.76915389E+05</totfact>
</mgrwt>
</event>
<event>
 4    1  0.3704929E-001  0.3881339E+02  0.7818608E-02  0.1517130E+00
         -2   -1    0    0    0  501 -0.00000000000E+00  0.00000000000E+00  0.14562506749E+02  0.14562506981E+02  0.26000000000E-02 0. -1.
          2   -1    0    0  501    0  0.00000000000E+00 -0.00000000000E+00 -0.25862292582E+02  0.25862292712E+02  0.26000000000E-02 0.  1.
        -13    1    1    2    0    0 -0.17346226333E+02  0.55709944584E+01 -0.12611799868E+02  0.22158434413E+02  0.10570000000E+00 0.  1.
         13    1    1    2    0    0  0.17346226333E+02 -0.55709944584E+01  0.13120140357E+01  0.18266365281E+02  0.10570000000E+00 0. -1.
<mgrwt>
<rscale>  0 0.38813390E+02</rscale>
<asrwt>0</asrwt>
<pdfrwt beam="2">  1        2 0.39788143E-02 0.38813390E+02</pdfrwt>
<pdfrwt beam="1">  1       -2 0.22403857E-02 0.38813390E+02</pdfrwt>
<totfact> 0.88008778E+05</totfact>
</mgrwt>
</event>
<event>
 4    1  0.3704929E-001  0.2719373E+02  0.7818608E-02  0.1631355E+00
         -2   -1    0    0    0  501 -0.00000000000E+00  0.00000000000E+00  0.12216862743E+02  0.12216863020E+02  0.26000000000E-02 0. -1.
          2   -1    0    0  501    0  0.00000000000E+00 -0.00000000000E+00 -0.15132746898E+02  0.15132747121E+02  0.26000000000E-02 0.  1.
        -13    1    1    2    0    0 -0.10032111197E+02  0.11003527077E+01 -0.10621123613E+02  0.14651739502E+02  0.10570000000E+00 0.  1.
         13    1    1    2    0    0  0.10032111197E+02 -0.11003527077E+01  0.77052394577E+01  0.12697870638E+02  0.10570000000E+00 0. -1.
<mgrwt>
<rscale>  0 0.27193727E+02</rscale>
<asrwt>0</asrwt>
<pdfrwt beam="2">  1        2 0.23281149E-02 0.27193727E+02</pdfrwt>
<pdfrwt beam="1">  1       -2 0.18795174E-02 0.27193727E+02</pdfrwt>
<totfact> 0.19878450E+06</totfact>
</mgrwt>
</event>
<event>
 4    1  0.3704929E-001  0.2936708E+02  0.7818608E-02  0.1605192E+00
         -2   -1    0    0    0  501 -0.00000000000E+00  0.00000000000E+00  0.43606705754E+02  0.43606705832E+02  0.26000000000E-02 0. -1.
          2   -1    0    0  501    0  0.00000000000E+00 -0.00000000000E+00 -0.49443384002E+01  0.49443390838E+01  0.26000000000E-02 0.  1.
        -13    1    1    2    0    0 -0.14595430703E+02  0.10312077922E+01  0.21359475507E+02  0.25890700133E+02  0.10570000000E+00 0. -1.
         13    1    1    2    0    0  0.14595430703E+02 -0.10312077922E+01  0.17302891847E+02  0.22660344783E+02  0.10570000000E+00 0.  1.
<mgrwt>
<rscale>  0 0.29367079E+02</rscale>
<asrwt>0</asrwt>
<pdfrwt beam="2">  1        2 0.76066753E-03 0.29367079E+02</pdfrwt>
<pdfrwt beam="1">  1       -2 0.67087238E-02 0.29367079E+02</pdfrwt>
<totfact> 0.14581323E+06</totfact>
</mgrwt>
</event>
<event>
 4    1  0.3704929E-001  0.2353461E+02  0.7818608E-02  0.1682988E+00
          2   -1    0    0  501    0  0.00000000000E+00  0.00000000000E+00  0.89669227223E+02  0.89669227261E+02  0.26000000000E-02 0. -1.
         -2   -1    0    0    0  501 -0.00000000000E+00 -0.00000000000E+00 -0.15442236272E+01  0.15442258160E+01  0.26000000000E-02 0.  1.
        -13    1    1    2    0    0  0.46371224952E+01  0.10717002493E+02  0.38444423499E+02  0.40178874028E+02  0.10570000000E+00 0. -1.
         13    1    1    2    0    0 -0.46371224952E+01 -0.10717002493E+02  0.49680580097E+02  0.51034579049E+02  0.10570000000E+00 0.  1.
<mgrwt>
<rscale>  0 0.23534608E+02</rscale>
<asrwt>0</asrwt>
<pdfrwt beam="1">  1        2 0.13795269E-01 0.23534608E+02</pdfrwt>
<pdfrwt beam="2">  1       -2 0.23757298E-03 0.23534608E+02</pdfrwt>
<totfact> 0.35758763E+06</totfact>
</mgrwt>
</event>
<event>
 4    1  0.3704929E-001  0.2325934E+02  0.7818608E-02  0.1687340E+00
         -2   -1    0    0    0  501 -0.00000000000E+00  0.00000000000E+00  0.20174761321E+01  0.20174778075E+01  0.26000000000E-02 0. -1.
          2   -1    0    0  501    0  0.00000000000E+00 -0.00000000000E+00 -0.67038802524E+02  0.67038802574E+02  0.26000000000E-02 0.  1.
        -13    1    1    2    0    0  0.45090335562E+01  0.10666357785E+02 -0.35674391366E+02  0.37507011929E+02  0.10570000000E+00 0.  1.
         13    1    1    2    0    0 -0.45090335562E+01 -0.10666357785E+02 -0.29346935026E+02  0.31549268453E+02  0.10570000000E+00 0. -1.
<mgrwt>
<rscale>  0 0.23259342E+02</rscale>
<asrwt>0</asrwt>
<pdfrwt beam="2">  1        2 0.10313660E-01 0.23259342E+02</pdfrwt>
<pdfrwt beam="1">  1       -2 0.31038113E-03 0.23259342E+02</pdfrwt>
<totfact> 0.34629504E+06</totfact>
</mgrwt>
</event>
<event>
 4    1  0.3704929E-001  0.2695801E+02  0.7818608E-02  0.1634373E+00
         -2   -1    0    0    0  501 -0.00000000000E+00  0.00000000000E+00  0.46445810107E+02  0.46445810180E+02  0.26000000000E-02 0.  1.
          2   -1    0    0  501    0  0.00000000000E+00 -0.00000000000E+00 -0.39117308908E+01  0.39117317549E+01  0.26000000000E-02 0. -1.
        -13    1    1    2    0    0 -0.26767251384E+01  0.12073763667E+02  0.31279888611E+02  0.33636040649E+02  0.10570000000E+00 0.  1.
         13    1    1    2    0    0  0.26767251384E+01 -0.12073763667E+02  0.11254190605E+02  0.16721501285E+02  0.10570000000E+00 0. -1.
<mgrwt>
<rscale>  0 0.26958007E+02</rscale>
<asrwt>0</asrwt>
<pdfrwt beam="2">  1        2 0.60180479E-03 0.26958007E+02</pdfrwt>
<pdfrwt beam="1">  1       -2 0.71455097E-02 0.26958007E+02</pdfrwt>
<totfact> 0.17579808E+06</totfact>
</mgrwt>
</event>
<event>
 4    1  0.3704929E-001  0.2884395E+02  0.7818608E-02  0.1611230E+00
          2   -1    0    0  501    0  0.00000000000E+00  0.00000000000E+00  0.36276884341E+02  0.36276884434E+02  0.26000000000E-02 0.  1.
         -2   -1    0    0    0  501 -0.00000000000E+00 -0.00000000000E+00 -0.57334956182E+01  0.57334962077E+01  0.26000000000E-02 0. -1.
        -13    1    1    2    0    0 -0.14281286116E+00 -0.13102803207E+02  0.24044240228E+02  0.27383215809E+02  0.10570000000E+00 0.  1.
         13    1    1    2    0    0  0.14281286116E+00  0.13102803207E+02  0.64991484944E+01  0.14627164833E+02  0.10570000000E+00 0. -1.
<mgrwt>
<rscale>  0 0.28843951E+02</rscale>
<asrwt>0</asrwt>
<pdfrwt beam="1">  1        2 0.55810594E-02 0.28843951E+02</pdfrwt>
<pdfrwt beam="2">  1       -2 0.88207627E-03 0.28843951E+02</pdfrwt>
<totfact> 0.19034198E+06</totfact>
</mgrwt>
</event>
<event>
 4    1  0.3704929E-001  0.2456813E+02  0.7818608E-02  0.1667284E+00
         -2   -1    0    0    0  501 -0.00000000000E+00  0.00000000000E+00  0.27972920030E+02  0.27972920151E+02  0.26000000000E-02 0. -1.
          2   -1    0    0  501    0  0.00000000000E+00 -0.00000000000E+00 -0.53944409920E+01  0.53944416186E+01  0.26000000000E-02 0.  1.
        -13    1    1    2    0    0 -0.56546535278E+01 -0.10421190691E+02  0.69281441233E+01  0.13732686387E+02  0.10570000000E+00 0.  1.
         13    1    1    2    0    0  0.56546535278E+01  0.10421190691E+02  0.15650334915E+02  0.19634675382E+02  0.10570000000E+00 0. -1.
<mgrwt>
<rscale>  0 0.24568132E+02</rscale>
<asrwt>0</asrwt>
<pdfrwt beam="2">  1        2 0.82991408E-03 0.24568132E+02</pdfrwt>
<pdfrwt beam="1">  1       -2 0.43035261E-02 0.24568132E+02</pdfrwt>
<totfact> 0.23047517E+06</totfact>
</mgrwt>
</event>
<event>
 4    1  0.3704929E-001  0.2264629E+02  0.7818608E-02  0.1697309E+00
         -2   -1    0    0    0  501 -0.00000000000E+00  0.00000000000E+00  0.23244775122E+02  0.23244775267E+02  0.26000000000E-02 0. -1.
          2   -1    0    0  501    0  0.00000000000E+00 -0.00000000000E+00 -0.55158009360E+01  0.55158015488E+01  0.26000000000E-02 0.  1.
        -13    1    1    2    0    0 -0.55718402165E+01  0.85524527702E+01  0.26412026296E+01  0.10544049298E+02  0.10570000000E+00 0.  1.
         13    1    1    2    0    0  0.55718402165E+01 -0.85524527702E+01  0.15087771556E+02  0.18216527518E+02  0.10570000000E+00 0. -1.
<mgrwt>
<rscale>  0 0.22646286E+02</rscale>
<asrwt>0</asrwt>
<pdfrwt beam="2">  1        2 0.84858480E-03 0.22646286E+02</pdfrwt>
<pdfrwt beam="1">  1       -2 0.35761194E-02 0.22646286E+02</pdfrwt>
<totfact> 0.28130921E+06</totfact>
</mgrwt>
</event>
<event>
 4    1  0.3704929E-001  0.3075225E+02  0.7818608E-02  0.1589919E+00
          2   -1    0    0  501    0  0.00000000000E+00  0.00000000000E+00  0.78681163366E+01  0.78681167661E+01  0.26000000000E-02 0. -1.
         -2   -1    0    0    0  501 -0.00000000000E+00 -0.00000000000E+00 -0.30048505929E+02  0.30048506042E+02  0.26000000000E-02 0.  1.
        -13    1    1    2    0    0  0.20715290771E+01  0.15220985609E+02 -0.10268308458E+02  0.18477525990E+02  0.10570000000E+00 0. -1.
         13    1    1    2    0    0 -0.20715290771E+01 -0.15220985609E+02 -0.11912081135E+02  0.19439096818E+02  0.10570000000E+00 0.  1.
<mgrwt>
<rscale>  0 0.30752245E+02</rscale>
<asrwt>0</asrwt>
<pdfrwt beam="1">  1        2 0.12104795E-02 0.30752245E+02</pdfrwt>
<pdfrwt beam="2">  1       -2 0.46228470E-02 0.30752245E+02</pdfrwt>
<totfact> 0.13743056E+06</totfact>
</mgrwt>
</event>
<event>
 4    1  0.3704929E-001  0.2540003E+02  0.7818608E-02  0.1655322E+00
         -2   -1    0    0    0  501 -0.00000000000E+00  0.00000000000E+00  0.14566687025E+02  0.14566687257E+02  0.26000000000E-02 0. -1.
          2   -1    0    0  501    0  0.00000000000E+00 -0.00000000000E+00 -0.11072549281E+02  0.11072549586E+02  0.26000000000E-02 0.  1.
        -13    1    1    2    0    0 -0.10803351131E+02 -0.61952866059E+01 -0.76336362960E+00  0.12477494473E+02  0.10570000000E+00 0.  1.
         13    1    1    2    0    0  0.10803351131E+02  0.61952866059E+01  0.42575013733E+01  0.13161742371E+02  0.10570000000E+00 0. -1.
<mgrwt>
<rscale>  0 0.25400029E+02</rscale>
<asrwt>0</asrwt>
<pdfrwt beam="2">  1        2 0.17034692E-02 0.25400029E+02</pdfrwt>
<pdfrwt beam="1">  1       -2 0.22410288E-02 0.25400029E+02</pdfrwt>
<totfact> 0.22747994E+06</totfact>
</mgrwt>
</event>
<event>
 4    1  0.3704929E-001  0.2649485E+02  0.7818608E-02  0.1640415E+00
          2   -1    0    0  501    0  0.00000000000E+00  0.00000000000E+00  0.64151603700E+01  0.64151608969E+01  0.26000000000E-02 0. -1.
         -2   -1    0    0    0  501 -0.00000000000E+00 -0.00000000000E+00 -0.27356179933E+02  0.27356180057E+02  0.26000000000E-02 0.  1.
        -13    1    1    2    0    0 -0.12600239973E+02 -0.34209303289E+01 -0.13324761837E+02  0.18655542399E+02  0.10570000000E+00 0. -1.
         13    1    1    2    0    0  0.12600239973E+02  0.34209303289E+01 -0.76162577261E+01  0.15115798554E+02  0.10570000000E+00 0.  1.
<mgrwt>
<rscale>  0 0.26494852E+02</rscale>
<asrwt>0</asrwt>
<pdfrwt beam="1">  1        2 0.98694781E-03 0.26494852E+02</pdfrwt>
<pdfrwt beam="2">  1       -2 0.42086431E-02 0.26494852E+02</pdfrwt>
<totfact> 0.19492355E+06</totfact>
</mgrwt>
</event>
<event>
 4    1  0.3704929E-001  0.3236403E+02  0.7818608E-02  0.1573337E+00
          2   -1    0    0  501    0  0.00000000000E+00  0.00000000000E+00  0.22199201132E+01  0.22199216358E+01  0.26000000000E-02 0.  1.
         -2   -1    0    0    0  501 -0.00000000000E+00 -0.00000000000E+00 -0.11795808709E+03  0.11795808712E+03  0.26000000000E-02 0. -1.
        -13    1    1    2    0    0 -0.52450529844E+01 -0.13379354611E+02 -0.30248185876E+02  0.33488529856E+02  0.10570000000E+00 0.  1.
         13    1    1    2    0    0  0.52450529844E+01  0.13379354611E+02 -0.85489981099E+02  0.86689478897E+02  0.10570000000E+00 0. -1.
<mgrwt>
<rscale>  0 0.32364031E+02</rscale>
<asrwt>0</asrwt>
<pdfrwt beam="1">  1        2 0.34152638E-03 0.32364031E+02</pdfrwt>
<pdfrwt beam="2">  1       -2 0.18147393E-01 0.32364031E+02</pdfrwt>
<totfact> 0.95791269E+05</totfact>
</mgrwt>
</event>
<event>
 4    1  0.3704929E-001  0.2573797E+02  0.7818608E-02  0.1650623E+00
          2   -1    0    0  501    0  0.00000000000E+00  0.00000000000E+00  0.41784956760E+01  0.41784964849E+01  0.26000000000E-02 0.  1.
         -2   -1    0    0    0  501 -0.00000000000E+00 -0.00000000000E+00 -0.39634049047E+02  0.39634049132E+02  0.26000000000E-02 0. -1.
        -13    1    1    2    0    0 -0.98154807961E+01 -0.60190566358E+01 -0.27510455645E+02  0.29822961763E+02  0.10570000000E+00 0. -1.
         13    1    1    2    0    0  0.98154807961E+01  0.60190566358E+01 -0.79450977260E+01  0.13989583854E+02  0.10570000000E+00 0.  1.
<mgrwt>
<rscale>  0 0.25737966E+02</rscale>
<asrwt>0</asrwt>
<pdfrwt beam="1">  1        2 0.64284558E-03 0.25737966E+02</pdfrwt>
<pdfrwt beam="2">  1       -2 0.60975458E-02 0.25737966E+02</pdfrwt>
<totfact> 0.19945331E+06</totfact>
</mgrwt>
</event>
<event>
 4    1  0.3704929E-001  0.2355679E+02  0.7818608E-02  0.1682641E+00
          2   -1    0    0  501    0  0.00000000000E+00  0.00000000000E+00  0.59095970879E+02  0.59095970936E+02  0.26000000000E-02 0.  1.
         -2   -1    0    0    0  501 -0.00000000000E+00 -0.00000000000E+00 -0.23475462367E+01  0.23475476765E+01  0.26000000000E-02 0. -1.
        -13    1    1    2    0    0 -0.13826817168E+01  0.10270530401E+02  0.13776083993E+02  0.17239120225E+02  0.10570000000E+00 0. -1.
         13    1    1    2    0    0  0.13826817168E+01 -0.10270530401E+02  0.42972340649E+02  0.44204398388E+02  0.10570000000E+00 0.  1.
<mgrwt>
<rscale>  0 0.23556788E+02</rscale>
<asrwt>0</asrwt>
<pdfrwt beam="1">  1        2 0.90916871E-02 0.23556788E+02</pdfrwt>
<pdfrwt beam="2">  1       -2 0.36116111E-03 0.23556788E+02</pdfrwt>
<totfact> 0.32888150E+06</totfact>
</mgrwt>
</event>
<event>
 4    1  0.3704929E-001  0.3475283E+02  0.7818608E-02  0.1550807E+00
         -2   -1    0    0    0  501 -0.00000000000E+00  0.00000000000E+00  0.18738830326E+02  0.18738830506E+02  0.26000000000E-02 0. -1.
          2   -1    0    0  501    0  0.00000000000E+00 -0.00000000000E+00 -0.16113052734E+02  0.16113052944E+02  0.26000000000E-02 0.  1.
        -13    1    1    2    0    0 -0.11403684861E+02  0.13640525932E+01 -0.11763599247E+02  0.16440745349E+02  0.10570000000E+00 0.  1.
         13    1    1    2    0    0  0.11403684861E+02 -0.13640525932E+01  0.14389376839E+02  0.18411138102E+02  0.10570000000E+00 0. -1.
<mgrwt>
<rscale>  0 0.34752828E+02</rscale>
<asrwt>0</asrwt>
<pdfrwt beam="2">  1        2 0.24789312E-02 0.34752828E+02</pdfrwt>
<pdfrwt beam="1">  1       -2 0.28828970E-02 0.34752828E+02</pdfrwt>
<totfact> 0.10960652E+06</totfact>
</mgrwt>
</event>
<event>
 4    1  0.3704929E-001  0.3089177E+02  0.7818608E-02  0.1588436E+00
          2   -1    0    0  501    0  0.00000000000E+00  0.00000000000E+00  0.28963060626E+02  0.28963060743E+02  0.26000000000E-02 0.  1.
         -2   -1    0    0    0  501 -0.00000000000E+00 -0.00000000000E+00 -0.82372265216E+01  0.82372269320E+01  0.26000000000E-02 0. -1.
        -13    1    1    2    0    0  0.10589386600E+02 -0.68206171871E+01 -0.40171623191E+00  0.12602717000E+02  0.10570000000E+00 0. -1.
         13    1    1    2    0    0 -0.10589386600E+02  0.68206171871E+01  0.21127550336E+02  0.24597570674E+02  0.10570000000E+00 0.  1.
<mgrwt>
<rscale>  0 0.30891766E+02</rscale>
<asrwt>0</asrwt>
<pdfrwt beam="1">  1        2 0.44558555E-02 0.30891766E+02</pdfrwt>
<pdfrwt beam="2">  1       -2 0.12672657E-02 0.30891766E+02</pdfrwt>
<totfact> 0.15682578E+06</totfact>
</mgrwt>
</event>
<event>
 4    1  0.3704929E-001  0.2408607E+02  0.7818608E-02  0.1674487E+00
         -2   -1    0    0    0  501 -0.00000000000E+00  0.00000000000E+00  0.11630127944E+02  0.11630128234E+02  0.26000000000E-02 0.  1.
          2   -1    0    0  501    0  0.00000000000E+00 -0.00000000000E+00 -0.12470604819E+02  0.12470605090E+02  0.26000000000E-02 0. -1.
        -13    1    1    2    0    0 -0.11903932006E+02  0.15041412019E+00  0.13967253040E+01  0.11987002781E+02  0.10570000000E+00 0.  1.
         13    1    1    2    0    0  0.11903932006E+02 -0.15041412019E+00 -0.22372021799E+01  0.12113730544E+02  0.10570000000E+00 0. -1.
<mgrwt>
<rscale>  0 0.24086074E+02</rscale>
<asrwt>0</asrwt>
<pdfrwt beam="2">  1        2 0.19185546E-02 0.24086074E+02</pdfrwt>
<pdfrwt beam="1">  1       -2 0.17892505E-02 0.24086074E+02</pdfrwt>
<totfact> 0.26077100E+06</totfact>
</mgrwt>
</event>
<event>
 4    1  0.3704929E-001  0.2453943E+02  0.7818608E-02  0.1667707E+00
         -2   -1    0    0    0  501 -0.00000000000E+00  0.00000000000E+00  0.10996098052E+01  0.10996128790E+01  0.26000000000E-02 0.  1.
          2   -1    0    0  501    0  0.00000000000E+00 -0.00000000000E+00 -0.13690831073E+03  0.13690831076E+03  0.26000000000E-02 0. -1.
        -13    1    1    2    0    0  0.11386541301E+02  0.45660177880E+01 -0.66883937583E+02  0.67999809708E+02  0.10570000000E+00 0. -1.
         13    1    1    2    0    0 -0.11386541301E+02 -0.45660177880E+01 -0.68924763344E+02  0.70008113928E+02  0.10570000000E+00 0.  1.
<mgrwt>
<rscale>  0 0.24539432E+02</rscale>
<asrwt>0</asrwt>
<pdfrwt beam="2">  1        2 0.21062804E-01 0.24539432E+02</pdfrwt>
<pdfrwt beam="1">  1       -2 0.16917109E-03 0.24539432E+02</pdfrwt>
<totfact> 0.36067418E+06</totfact>
</mgrwt>
</event>
<event>
 4    1  0.3704929E-001  0.2404987E+02  0.7818608E-02  0.1675036E+00
         -2   -1    0    0    0  501 -0.00000000000E+00  0.00000000000E+00  0.18867041781E+01  0.18867059695E+01  0.26000000000E-02 0.  1.
          2   -1    0    0  501    0  0.00000000000E+00 -0.00000000000E+00 -0.76641079071E+02  0.76641079115E+02  0.26000000000E-02 0. -1.
        -13    1    1    2    0    0  0.10021689112E+02  0.10614904201E+01 -0.15959098947E+02  0.18874984139E+02  0.10570000000E+00 0.  1.
         13    1    1    2    0    0 -0.10021689112E+02 -0.10614904201E+01 -0.58795275947E+02  0.59652800946E+02  0.10570000000E+00 0. -1.
<mgrwt>
<rscale>  0 0.24049875E+02</rscale>
<asrwt>0</asrwt>
<pdfrwt beam="2">  1        2 0.11790933E-01 0.24049875E+02</pdfrwt>
<pdfrwt beam="1">  1       -2 0.29026238E-03 0.24049875E+02</pdfrwt>
<totfact> 0.32929440E+06</totfact>
</mgrwt>
</event>
<event>
 4    1  0.3704929E-001  0.2143294E+02  0.7818608E-02  0.1718248E+00
         -2   -1    0    0    0  501 -0.00000000000E+00  0.00000000000E+00  0.95396724534E+02  0.95396724569E+02  0.26000000000E-02 0.  1.
          2   -1    0    0  501    0  0.00000000000E+00 -0.00000000000E+00 -0.12038425599E+01  0.12038453676E+01  0.26000000000E-02 0. -1.
        -13    1    1    2    0    0  0.56669556320E+01  0.90361681945E+01  0.42445420887E+02  0.43765187633E+02  0.10570000000E+00 0. -1.
         13    1    1    2    0    0 -0.56669556320E+01 -0.90361681945E+01  0.51747461086E+02  0.52835382303E+02  0.10570000000E+00 0.  1.
<mgrwt>
<rscale>  0 0.21432944E+02</rscale>
<asrwt>0</asrwt>
<pdfrwt beam="2">  1        2 0.18520664E-03 0.21432944E+02</pdfrwt>
<pdfrwt beam="1">  1       -2 0.14676429E-01 0.21432944E+02</pdfrwt>
<totfact> 0.25831824E+06</totfact>
</mgrwt>
</event>
<event>
 4    1  0.3704929E-001  0.2384438E+02  0.7818608E-02  0.1678178E+00
          2   -1    0    0  501    0  0.00000000000E+00  0.00000000000E+00  0.75207530745E+02  0.75207530789E+02  0.26000000000E-02 0.  1.
         -2   -1    0    0    0  501 -0.00000000000E+00 -0.00000000000E+00 -0.18899510087E+01  0.18899527971E+01  0.26000000000E-02 0. -1.
        -13    1    1    2    0    0  0.28918369627E+01 -0.11554967646E+02  0.38267199009E+02  0.40078294510E+02  0.10570000000E+00 0. -1.
         13    1    1    2    0    0 -0.28918369627E+01  0.11554967646E+02  0.35050380727E+02  0.37019189077E+02  0.10570000000E+00 0.  1.
<mgrwt>
<rscale>  0 0.23844380E+02</rscale>
<asrwt>0</asrwt>
<pdfrwt beam="1">  1        2 0.11570388E-01 0.23844380E+02</pdfrwt>
<pdfrwt beam="2">  1       -2 0.29076188E-03 0.23844380E+02</pdfrwt>
<totfact> 0.33454471E+06</totfact>
</mgrwt>
</event>
<event>
 4    1  0.3704929E-001  0.7652139E+02  0.7818608E-02  0.1339223E+00
         -2   -1    0    0    0  501 -0.00000000000E+00  0.00000000000E+00  0.89901882361E+01  0.89901886121E+01  0.26000000000E-02 0. -1.
          2   -1    0    0  501    0  0.00000000000E+00 -0.00000000000E+00 -0.16283094718E+03  0.16283094720E+03  0.26000000000E-02 0.  1.
        -13    1    1    2    0    0 -0.52339725360E+01  0.31184971667E+02 -0.12528635801E+03  0.12921524524E+03  0.10570000000E+00 0.  1.
         13    1    1    2    0    0  0.52339725360E+01 -0.31184971667E+02 -0.28554400933E+02  0.42605890573E+02  0.10570000000E+00 0. -1.
<mgrwt>
<rscale>  0 0.76521393E+02</rscale>
<asrwt>0</asrwt>
<pdfrwt beam="2">  1        2 0.25050913E-01 0.76521393E+02</pdfrwt>
<pdfrwt beam="1">  1       -2 0.13831060E-02 0.76521393E+02</pdfrwt>
<totfact> 0.22988118E+05</totfact>
</mgrwt>
</event>
<event>
 4    1  0.3704929E-001  0.2581019E+02  0.7818608E-02  0.1649630E+00
          2   -1    0    0  501    0  0.00000000000E+00  0.00000000000E+00  0.71720995861E+02  0.71720995908E+02  0.26000000000E-02 0.  1.
         -2   -1    0    0    0  501 -0.00000000000E+00 -0.00000000000E+00 -0.23220732344E+01  0.23220746900E+01  0.26000000000E-02 0. -1.
        -13    1    1    2    0    0 -0.87547247526E+01 -0.59284620037E+01  0.13474868240E+02  0.17128196455E+02  0.10570000000E+00 0. -1.
         13    1    1    2    0    0  0.87547247526E+01  0.59284620037E+01  0.55924054387E+02  0.56914874143E+02  0.10570000000E+00 0.  1.
<mgrwt>
<rscale>  0 0.25810189E+02</rscale>
<asrwt>0</asrwt>
<pdfrwt beam="1">  1        2 0.11034001E-01 0.25810189E+02</pdfrwt>
<pdfrwt beam="2">  1       -2 0.35724211E-03 0.25810189E+02</pdfrwt>
<totfact> 0.27620356E+06</totfact>
</mgrwt>
</event>
<event>
 4    1  0.3704929E-001  0.3192249E+02  0.7818608E-02  0.1577761E+00
         -2   -1    0    0    0  501 -0.00000000000E+00  0.00000000000E+00  0.14479219382E+03  0.14479219384E+03  0.26000000000E-02 0.  1.
          2   -1    0    0  501    0  0.00000000000E+00 -0.00000000000E+00 -0.17594950919E+01  0.17594970129E+01  0.26000000000E-02 0. -1.
        -13    1    1    2    0    0 -0.15138415566E+02  0.49793644580E+01  0.75582380373E+02  0.77244243097E+02  0.10570000000E+00 0. -1.
         13    1    1    2    0    0  0.15138415566E+02 -0.49793644580E+01  0.67450318356E+02  0.69307447761E+02  0.10570000000E+00 0.  1.
<mgrwt>
<rscale>  0 0.31922487E+02</rscale>
<asrwt>0</asrwt>
<pdfrwt beam="2">  1        2 0.27069175E-03 0.31922487E+02</pdfrwt>
<pdfrwt beam="1">  1       -2 0.22275718E-01 0.31922487E+02</pdfrwt>
<totfact> 0.93066503E+05</totfact>
</mgrwt>
</event>
<event>
 4    1  0.3704929E-001  0.2797848E+02  0.7818608E-02  0.1621573E+00
          2   -1    0    0  501    0  0.00000000000E+00  0.00000000000E+00  0.38286302867E+02  0.38286302956E+02  0.26000000000E-02 0. -1.
         -2   -1    0    0    0  501 -0.00000000000E+00 -0.00000000000E+00 -0.51114580168E+01  0.51114586780E+01  0.26000000000E-02 0.  1.
        -13    1    1    2    0    0 -0.11113078297E+02  0.12441768806E+00  0.34101166702E+01  0.11625663731E+02  0.10570000000E+00 0.  1.
         13    1    1    2    0    0  0.11113078297E+02 -0.12441768806E+00  0.29764728181E+02  0.31772097903E+02  0.10570000000E+00 0. -1.
<mgrwt>
<rscale>  0 0.27978481E+02</rscale>
<asrwt>0</asrwt>
<pdfrwt beam="1">  1        2 0.58902003E-02 0.27978481E+02</pdfrwt>
<pdfrwt beam="2">  1       -2 0.78637824E-03 0.27978481E+02</pdfrwt>
<totfact> 0.20611761E+06</totfact>
</mgrwt>
</event>
<event>
 4    1  0.3704929E-001  0.2663972E+02  0.7818608E-02  0.1638509E+00
          2   -1    0    0  501    0  0.00000000000E+00  0.00000000000E+00  0.14640138964E+02  0.14640139195E+02  0.26000000000E-02 0. -1.
         -2   -1    0    0    0  501 -0.00000000000E+00 -0.00000000000E+00 -0.12118647844E+02  0.12118648123E+02  0.26000000000E-02 0.  1.
        -13    1    1    2    0    0  0.33425944254E+01 -0.12373825546E+02  0.48995083707E+01  0.13722275719E+02  0.10570000000E+00 0. -1.
         13    1    1    2    0    0 -0.33425944254E+01  0.12373825546E+02 -0.23780172507E+01  0.13036511599E+02  0.10570000000E+00 0.  1.
<mgrwt>
<rscale>  0 0.26639722E+02</rscale>
<asrwt>0</asrwt>
<pdfrwt beam="1">  1        2 0.22523291E-02 0.26639722E+02</pdfrwt>
<pdfrwt beam="2">  1       -2 0.18644074E-02 0.26639722E+02</pdfrwt>
<totfact> 0.20818638E+06</totfact>
</mgrwt>
</event>
<event>
 4    1  0.3704929E-001  0.3953909E+02  0.7818608E-02  0.1511631E+00
         -2   -1    0    0    0  501 -0.00000000000E+00  0.00000000000E+00  0.51192397332E+01  0.51192403935E+01  0.26000000000E-02 0.  1.
          2   -1    0    0  501    0  0.00000000000E+00 -0.00000000000E+00 -0.76346262679E+02  0.76346262724E+02  0.26000000000E-02 0. -1.
        -13    1    1    2    0    0  0.12087566897E+01  0.16168901146E+02 -0.58917592642E+02  0.61108005631E+02  0.10570000000E+00 0. -1.
         13    1    1    2    0    0 -0.12087566897E+01 -0.16168901146E+02 -0.12309430304E+02  0.20357497486E+02  0.10570000000E+00 0.  1.
<mgrwt>
<rscale>  0 0.39539087E+02</rscale>
<asrwt>0</asrwt>
<pdfrwt beam="2">  1        2 0.11745578E-01 0.39539087E+02</pdfrwt>
<pdfrwt beam="1">  1       -2 0.78757546E-03 0.39539087E+02</pdfrwt>
<totfact> 0.10091056E+06</totfact>
</mgrwt>
</event>
<event>
 4    1  0.3704929E-001  0.5736962E+02  0.7818608E-02  0.1409214E+00
         -2   -1    0    0    0  501 -0.00000000000E+00  0.00000000000E+00  0.30411566107E+01  0.30411577221E+01  0.26000000000E-02 0. -1.
          2   -1    0    0  501    0  0.00000000000E+00 -0.00000000000E+00 -0.27056090450E+03  0.27056090452E+03  0.26000000000E-02 0.  1.
        -13    1    1    2    0    0  0.22819042612E+02  0.17156574566E+02 -0.14703678049E+03  0.14978278522E+03  0.10570000000E+00 0. -1.
         13    1    1    2    0    0 -0.22819042612E+02 -0.17156574566E+02 -0.12048296740E+03  0.12381927702E+03  0.10570000000E+00 0.  1.
<mgrwt>
<rscale>  0 0.57369617E+02</rscale>
<asrwt>0</asrwt>
<pdfrwt beam="2">  1        2 0.41624736E-01 0.57369617E+02</pdfrwt>
<pdfrwt beam="1">  1       -2 0.46787055E-03 0.57369617E+02</pdfrwt>
<totfact> 0.57753063E+05</totfact>
</mgrwt>
</event>
<event>
 4    1  0.3704929E-001  0.3752507E+02  0.7818608E-02  0.1527256E+00
          2   -1    0    0  501    0  0.00000000000E+00  0.00000000000E+00  0.26727280169E+02  0.26727280295E+02  0.26000000000E-02 0.  1.
         -2   -1    0    0    0  501 -0.00000000000E+00 -0.00000000000E+00 -0.13171287986E+02  0.13171288243E+02  0.26000000000E-02 0. -1.
        -13    1    1    2    0    0  0.28887441889E+01 -0.12234018034E+02 -0.80315868520E+01  0.14917560125E+02  0.10570000000E+00 0. -1.
         13    1    1    2    0    0 -0.28887441889E+01  0.12234018034E+02  0.21587579034E+02  0.24981008412E+02  0.10570000000E+00 0.  1.
<mgrwt>
<rscale>  0 0.37525070E+02</rscale>
<asrwt>0</asrwt>
<pdfrwt beam="1">  1        2 0.41118892E-02 0.37525070E+02</pdfrwt>
<pdfrwt beam="2">  1       -2 0.20263521E-02 0.37525070E+02</pdfrwt>
<totfact> 0.96213829E+05</totfact>
</mgrwt>
</event>
<event>
 4    1  0.3704929E-001  0.3377673E+02  0.7818608E-02  0.1559740E+00
          2   -1    0    0  501    0  0.00000000000E+00  0.00000000000E+00  0.18689177305E+03  0.18689177307E+03  0.26000000000E-02 0.  1.
         -2   -1    0    0    0  501 -0.00000000000E+00 -0.00000000000E+00 -0.15261059785E+01  0.15261081933E+01  0.26000000000E-02 0. -1.
        -13    1    1    2    0    0  0.15656850287E+02  0.61969598040E+01  0.99883895336E+02  0.10129335117E+03  0.10570000000E+00 0.  1.
         13    1    1    2    0    0 -0.15656850287E+02 -0.61969598040E+01  0.85481771738E+02  0.87124530092E+02  0.10570000000E+00 0. -1.
<mgrwt>
<rscale>  0 0.33776729E+02</rscale>
<asrwt>0</asrwt>
<pdfrwt beam="1">  1        2 0.28752578E-01 0.33776729E+02</pdfrwt>
<pdfrwt beam="2">  1       -2 0.23478573E-03 0.33776729E+02</pdfrwt>
<totfact> 0.18773304E+06</totfact>
</mgrwt>
</event>
<event>
 4    1  0.3704929E-001  0.2087790E+02  0.7818608E-02  0.1728413E+00
          2   -1    0    0  501    0  0.00000000000E+00  0.00000000000E+00  0.48406307269E+02  0.48406307338E+02  0.26000000000E-02 0. -1.
         -2   -1    0    0    0  501 -0.00000000000E+00 -0.00000000000E+00 -0.22511867231E+01  0.22511882245E+01  0.26000000000E-02 0.  1.
        -13    1    1    2    0    0 -0.24704090178E+01 -0.10091770294E+02  0.25520560139E+02  0.27554616867E+02  0.10570000000E+00 0.  1.
         13    1    1    2    0    0  0.24704090178E+01  0.10091770294E+02  0.20634560406E+02  0.23102878696E+02  0.10570000000E+00 0. -1.
<mgrwt>
<rscale>  0 0.20877900E+02</rscale>
<asrwt>0</asrwt>
<pdfrwt beam="1">  1        2 0.74471243E-02 0.20877900E+02</pdfrwt>
<pdfrwt beam="2">  1       -2 0.34633654E-03 0.20877900E+02</pdfrwt>
<totfact> 0.41877607E+06</totfact>
</mgrwt>
</event>
<event>
 4    1  0.3704929E-001  0.2331370E+02  0.7818608E-02  0.1686475E+00
         -2   -1    0    0    0  501 -0.00000000000E+00  0.00000000000E+00  0.54135233399E+02  0.54135233461E+02  0.26000000000E-02 0.  1.
          2   -1    0    0  501    0  0.00000000000E+00 -0.00000000000E+00 -0.25100483878E+01  0.25100497344E+01  0.26000000000E-02 0. -1.
        -13    1    1    2    0    0  0.39854836341E+01 -0.10502204996E+02  0.33376156315E+02  0.35215896587E+02  0.10570000000E+00 0.  1.
         13    1    1    2    0    0 -0.39854836341E+01  0.10502204996E+02  0.18249028696E+02  0.21429386609E+02  0.10570000000E+00 0. -1.
<mgrwt>
<rscale>  0 0.23313695E+02</rscale>
<asrwt>0</asrwt>
<pdfrwt beam="2">  1        2 0.38616141E-03 0.23313695E+02</pdfrwt>
<pdfrwt beam="1">  1       -2 0.83284972E-02 0.23313695E+02</pdfrwt>
<totfact> 0.23865003E+06</totfact>
</mgrwt>
</event>
<event>
 4    1  0.3704929E-001  0.2917432E+02  0.7818608E-02  0.1607399E+00
          2   -1    0    0  501    0  0.00000000000E+00  0.00000000000E+00  0.47330321832E+02  0.47330321904E+02  0.26000000000E-02 0.  1.
         -2   -1    0    0    0  501 -0.00000000000E+00 -0.00000000000E+00 -0.44957484251E+01  0.44957491769E+01  0.26000000000E-02 0. -1.
        -13    1    1    2    0    0  0.34533740461E+01 -0.13015432020E+02  0.11455532804E+02  0.17679583346E+02  0.10570000000E+00 0. -1.
         13    1    1    2    0    0 -0.34533740461E+01  0.13015432020E+02  0.31379040603E+02  0.34146487735E+02  0.10570000000E+00 0.  1.
<mgrwt>
<rscale>  0 0.29174320E+02</rscale>
<asrwt>0</asrwt>
<pdfrwt beam="1">  1        2 0.72815885E-02 0.29174320E+02</pdfrwt>
<pdfrwt beam="2">  1       -2 0.69165362E-03 0.29174320E+02</pdfrwt>
<totfact> 0.19260531E+06</totfact>
</mgrwt>
</event>
<event>
 4    1  0.3704929E-001  0.2978349E+02  0.7818608E-02  0.1600494E+00
         -2   -1    0    0    0  501 -0.00000000000E+00  0.00000000000E+00  0.14752425238E+02  0.14752425467E+02  0.26000000000E-02 0.  1.
          2   -1    0    0  501    0  0.00000000000E+00 -0.00000000000E+00 -0.15032376333E+02  0.15032376558E+02  0.26000000000E-02 0. -1.
        -13    1    1    2    0    0  0.14468858611E+02  0.29309776465E+01  0.18131449835E+01  0.14874043387E+02  0.10570000000E+00 0. -1.
         13    1    1    2    0    0 -0.14468858611E+02 -0.29309776465E+01 -0.20930960788E+01  0.14910758637E+02  0.10570000000E+00 0.  1.
<mgrwt>
<rscale>  0 0.29783486E+02</rscale>
<asrwt>0</asrwt>
<pdfrwt beam="2">  1        2 0.23126733E-02 0.29783486E+02</pdfrwt>
<pdfrwt beam="1">  1       -2 0.22696039E-02 0.29783486E+02</pdfrwt>
<totfact> 0.15939656E+06</totfact>
</mgrwt>
</event>
<event>
 4    1  0.3704929E-001  0.2886731E+02  0.7818608E-02  0.1610957E+00
         -2   -1    0    0    0  501 -0.00000000000E+00  0.00000000000E+00  0.30807064981E+01  0.30807075952E+01  0.26000000000E-02 0. -1.
          2   -1    0    0  501    0  0.00000000000E+00 -0.00000000000E+00 -0.67624202176E+02  0.67624202225E+02  0.26000000000E-02 0.  1.
        -13    1    1    2    0    0  0.10119878964E+02 -0.52793147313E+01 -0.53908446569E+02  0.55103674091E+02  0.10570000000E+00 0.  1.
         13    1    1    2    0    0 -0.10119878964E+02  0.52793147313E+01 -0.10635049108E+02  0.15601235730E+02  0.10570000000E+00 0. -1.
<mgrwt>
<rscale>  0 0.28867307E+02</rscale>
<asrwt>0</asrwt>
<pdfrwt beam="2">  1        2 0.10403722E-01 0.28867307E+02</pdfrwt>
<pdfrwt beam="1">  1       -2 0.47395498E-03 0.28867307E+02</pdfrwt>
<totfact> 0.21020879E+06</totfact>
</mgrwt>
</event>
<event>
 4    1  0.3704929E-001  0.2933144E+02  0.7818608E-02  0.1605598E+00
          2   -1    0    0  501    0  0.00000000000E+00  0.00000000000E+00  0.88281342794E+01  0.88281346622E+01  0.26000000000E-02 0. -1.
         -2   -1    0    0    0  501 -0.00000000000E+00 -0.00000000000E+00 -0.24363398848E+02  0.24363398987E+02  0.26000000000E-02 0.  1.
        -13    1    1    2    0    0 -0.46189691424E+01  0.13797834326E+02 -0.98409939268E+01  0.17566201695E+02  0.10570000000E+00 0. -1.
         13    1    1    2    0    0  0.46189691424E+01 -0.13797834326E+02 -0.56942706421E+01  0.15625331954E+02  0.10570000000E+00 0.  1.
<mgrwt>
<rscale>  0 0.29331442E+02</rscale>
<asrwt>0</asrwt>
<pdfrwt beam="1">  1        2 0.13581746E-02 0.29331442E+02</pdfrwt>
<pdfrwt beam="2">  1       -2 0.37482152E-02 0.29331442E+02</pdfrwt>
<totfact> 0.15673107E+06</totfact>
</mgrwt>
</event>
<event>
 4    1  0.3704929E-001  0.3368769E+02  0.7818608E-02  0.1560573E+00
         -2   -1    0    0    0  501 -0.00000000000E+00  0.00000000000E+00  0.47522309350E+01  0.47522316462E+01  0.26000000000E-02 0.  1.
          2   -1    0    0  501    0  0.00000000000E+00 -0.00000000000E+00 -0.59701465350E+02  0.59701465407E+02  0.26000000000E-02 0. -1.
        -13    1    1    2    0    0  0.95816280669E+01 -0.10436510621E+02 -0.10046442985E+02  0.17368665449E+02  0.10570000000E+00 0.  1.
         13    1    1    2    0    0 -0.95816280669E+01  0.10436510621E+02 -0.44902791431E+02  0.47085031604E+02  0.10570000000E+00 0. -1.
<mgrwt>
<rscale>  0 0.33687694E+02</rscale>
<asrwt>0</asrwt>
<pdfrwt beam="2">  1        2 0.91848403E-02 0.33687694E+02</pdfrwt>
<pdfrwt beam="1">  1       -2 0.73111255E-03 0.33687694E+02</pdfrwt>
<totfact> 0.14197309E+06</totfact>
</mgrwt>
</event>
<event>
 4    1  0.3704929E-001  0.3089960E+02  0.7818608E-02  0.1588352E+00
         -2   -1    0    0    0  501 -0.00000000000E+00  0.00000000000E+00  0.51100959532E+01  0.51100966146E+01  0.26000000000E-02 0.  1.
          2   -1    0    0  501    0  0.00000000000E+00 -0.00000000000E+00 -0.46710730086E+02  0.46710730158E+02  0.26000000000E-02 0. -1.
        -13    1    1    2    0    0 -0.92156872789E+01 -0.72562347867E+01 -0.37663291696E+02  0.39447643138E+02  0.10570000000E+00 0. -1.
         13    1    1    2    0    0  0.92156872789E+01  0.72562347867E+01 -0.39373424368E+01  0.12373183635E+02  0.10570000000E+00 0.  1.
<mgrwt>
<rscale>  0 0.30899601E+02</rscale>
<asrwt>0</asrwt>
<pdfrwt beam="2">  1        2 0.71862659E-02 0.30899601E+02</pdfrwt>
<pdfrwt beam="1">  1       -2 0.78616870E-03 0.30899601E+02</pdfrwt>
<totfact> 0.16757676E+06</totfact>
</mgrwt>
</event>
<event>
 4    1  0.3704929E-001  0.3508303E+02  0.7818608E-02  0.1547864E+00
         -2   -1    0    0    0  501 -0.00000000000E+00  0.00000000000E+00  0.46542811563E+01  0.46542818825E+01  0.26000000000E-02 0.  1.
          2   -1    0    0  501    0  0.00000000000E+00 -0.00000000000E+00 -0.66112181856E+02  0.66112181907E+02  0.26000000000E-02 0. -1.
        -13    1    1    2    0    0 -0.62255105340E+01  0.93831287887E+01 -0.35994467273E+01  0.11822321113E+02  0.10570000000E+00 0.  1.
         13    1    1    2    0    0  0.62255105340E+01 -0.93831287887E+01 -0.57858453972E+02  0.58944142676E+02  0.10570000000E+00 0. -1.
<mgrwt>
<rscale>  0 0.35083028E+02</rscale>
<asrwt>0</asrwt>
<pdfrwt beam="2">  1        2 0.10171104E-01 0.35083028E+02</pdfrwt>
<pdfrwt beam="1">  1       -2 0.71604336E-03 0.35083028E+02</pdfrwt>
<totfact> 0.13122621E+06</totfact>
</mgrwt>
</event>
<event>
 4    1  0.3704929E-001  0.4115983E+02  0.7818608E-02  0.1499846E+00
         -2   -1    0    0    0  501 -0.00000000000E+00  0.00000000000E+00  0.13221310610E+02  0.13221310866E+02  0.26000000000E-02 0. -1.
          2   -1    0    0  501    0  0.00000000000E+00 -0.00000000000E+00 -0.32034100599E+02  0.32034100704E+02  0.26000000000E-02 0.  1.
        -13    1    1    2    0    0  0.27392247250E-01  0.18368145678E+02  0.79781823206E+00  0.18385788327E+02  0.10570000000E+00 0. -1.
         13    1    1    2    0    0 -0.27392247250E-01 -0.18368145678E+02 -0.19610608220E+02  0.26869623243E+02  0.10570000000E+00 0.  1.
<mgrwt>
<rscale>  0 0.41159825E+02</rscale>
<asrwt>0</asrwt>
<pdfrwt beam="2">  1        2 0.49283232E-02 0.41159825E+02</pdfrwt>
<pdfrwt beam="1">  1       -2 0.20340478E-02 0.41159825E+02</pdfrwt>
<totfact> 0.78207911E+05</totfact>
</mgrwt>
</event>
<event>
 4    1  0.3704929E-001  0.1302927E+03  0.7818608E-02  0.1227022E+00
         -2   -1    0    0    0  501 -0.00000000000E+00  0.00000000000E+00  0.47430196605E+02  0.47430196676E+02  0.26000000000E-02 0.  1.
          2   -1    0    0  501    0  0.00000000000E+00 -0.00000000000E+00 -0.89479830922E+02  0.89479830960E+02  0.26000000000E-02 0. -1.
        -13    1    1    2    0    0 -0.58544684456E+02  0.87486814129E+01  0.75600101399E+01  0.59675660284E+02  0.10570000000E+00 0.  1.
         13    1    1    2    0    0  0.58544684456E+02 -0.87486814129E+01 -0.49609644457E+02  0.77234367352E+02  0.10570000000E+00 0. -1.
<mgrwt>
<rscale>  0 0.13029269E+03</rscale>
<asrwt>0</asrwt>
<pdfrwt beam="2">  1        2 0.13766128E-01 0.13029269E+03</pdfrwt>
<pdfrwt beam="1">  1       -2 0.72969533E-02 0.13029269E+03</pdfrwt>
<totfact> 0.42874292E+04</totfact>
</mgrwt>
</event>
<event>
 4    1  0.3704929E-001  0.2796867E+02  0.7818608E-02  0.1621692E+00
         -2   -1    0    0    0  501 -0.00000000000E+00  0.00000000000E+00  0.16649667967E+01  0.16649688268E+01  0.26000000000E-02 0. -1.
          2   -1    0    0  501    0  0.00000000000E+00 -0.00000000000E+00 -0.11745669124E+03  0.11745669127E+03  0.26000000000E-02 0.  1.
        -13    1    1    2    0    0 -0.11406266821E+02 -0.75082264530E+01 -0.70725654106E+02  0.72031976986E+02  0.10570000000E+00 0. -1.
         13    1    1    2    0    0  0.11406266821E+02  0.75082264530E+01 -0.45066070340E+02  0.47089683112E+02  0.10570000000E+00 0.  1.
<mgrwt>
<rscale>  0 0.27968669E+02</rscale>
<asrwt>0</asrwt>
<pdfrwt beam="2">  1        2 0.18070254E-01 0.27968669E+02</pdfrwt>
<pdfrwt beam="1">  1       -2 0.25614899E-03 0.27968669E+02</pdfrwt>
<totfact> 0.25631394E+06</totfact>
</mgrwt>
</event>
<event>
 4    1  0.3704929E-001  0.2079601E+02  0.7818608E-02  0.1729946E+00
         -2   -1    0    0    0  501 -0.00000000000E+00  0.00000000000E+00  0.34915193671E+02  0.34915193768E+02  0.26000000000E-02 0. -1.
          2   -1    0    0  501    0  0.00000000000E+00 -0.00000000000E+00 -0.30966034715E+01  0.30966045631E+01  0.26000000000E-02 0.  1.
        -13    1    1    2    0    0 -0.85620210286E+01 -0.55200851641E+01  0.19711825802E+02  0.22188888960E+02  0.10570000000E+00 0.  1.
         13    1    1    2    0    0  0.85620210286E+01  0.55200851641E+01  0.12106764397E+02  0.15822909371E+02  0.10570000000E+00 0. -1.
<mgrwt>
<rscale>  0 0.20796012E+02</rscale>
<asrwt>0</asrwt>
<pdfrwt beam="2">  1        2 0.47640057E-03 0.20796012E+02</pdfrwt>
<pdfrwt beam="1">  1       -2 0.53715690E-02 0.20796012E+02</pdfrwt>
<totfact> 0.32574635E+06</totfact>
</mgrwt>
</event>
<event>
 4    1  0.3704929E-001  0.3014449E+02  0.7818608E-02  0.1596497E+00
          2   -1    0    0  501    0  0.00000000000E+00  0.00000000000E+00  0.15213534641E+03  0.15213534643E+03  0.26000000000E-02 0.  1.
         -2   -1    0    0    0  501 -0.00000000000E+00 -0.00000000000E+00 -0.14932252160E+01  0.14932274796E+01  0.26000000000E-02 0. -1.
        -13    1    1    2    0    0  0.15546983409E+01 -0.14990996145E+02  0.74711912374E+02  0.76216980231E+02  0.10570000000E+00 0.  1.
         13    1    1    2    0    0 -0.15546983409E+01  0.14990996145E+02  0.75930208818E+02  0.77411593679E+02  0.10570000000E+00 0. -1.
<mgrwt>
<rscale>  0 0.30144486E+02</rscale>
<asrwt>0</asrwt>
<pdfrwt beam="1">  1        2 0.23405421E-01 0.30144486E+02</pdfrwt>
<pdfrwt beam="2">  1       -2 0.22972730E-03 0.30144486E+02</pdfrwt>
<totfact> 0.23089888E+06</totfact>
</mgrwt>
</event>
<event>
 4    1  0.3704929E-001  0.3293452E+02  0.7818608E-02  0.1567747E+00
         -2   -1    0    0    0  501 -0.00000000000E+00  0.00000000000E+00  0.18953092290E+02  0.18953092468E+02  0.26000000000E-02 0.  1.
          2   -1    0    0  501    0  0.00000000000E+00 -0.00000000000E+00 -0.14307461623E+02  0.14307461859E+02  0.26000000000E-02 0. -1.
        -13    1    1    2    0    0  0.15889726121E+02 -0.33527707125E+01  0.50765294360E+01  0.17014899096E+02  0.10570000000E+00 0. -1.
         13    1    1    2    0    0 -0.15889726121E+02  0.33527707125E+01 -0.43089876962E+00  0.16245655231E+02  0.10570000000E+00 0.  1.
<mgrwt>
<rscale>  0 0.32934520E+02</rscale>
<asrwt>0</asrwt>
<pdfrwt beam="2">  1        2 0.22011480E-02 0.32934520E+02</pdfrwt>
<pdfrwt beam="1">  1       -2 0.29158604E-02 0.32934520E+02</pdfrwt>
<totfact> 0.12369561E+06</totfact>
</mgrwt>
</event>
<event>
 4    1  0.3704929E-001  0.3976599E+02  0.7818608E-02  0.1509941E+00
          2   -1    0    0  501    0  0.00000000000E+00  0.00000000000E+00  0.87182796169E+02  0.87182796208E+02  0.26000000000E-02 0.  1.
         -2   -1    0    0    0  501 -0.00000000000E+00 -0.00000000000E+00 -0.45345347836E+01  0.45345355290E+01  0.26000000000E-02 0. -1.
        -13    1    1    2    0    0  0.61959596202E+01  0.14203257068E+02  0.70057416362E+02  0.71750785270E+02  0.10570000000E+00 0.  1.
         13    1    1    2    0    0 -0.61959596202E+01 -0.14203257068E+02  0.12590845023E+02  0.19966546467E+02  0.10570000000E+00 0. -1.
<mgrwt>
<rscale>  0 0.39765988E+02</rscale>
<asrwt>0</asrwt>
<pdfrwt beam="1">  1        2 0.13412738E-01 0.39765988E+02</pdfrwt>
<pdfrwt beam="2">  1       -2 0.69762081E-03 0.39765988E+02</pdfrwt>
<totfact> 0.10253357E+06</totfact>
</mgrwt>
</event>
<event>
 4    1  0.3704929E-001  0.3420550E+02  0.7818608E-02  0.1555771E+00
          2   -1    0    0  501    0  0.00000000000E+00  0.00000000000E+00  0.48085641968E+02  0.48085642039E+02  0.26000000000E-02 0.  1.
         -2   -1    0    0    0  501 -0.00000000000E+00 -0.00000000000E+00 -0.60829821232E+01  0.60829826788E+01  0.26000000000E-02 0. -1.
        -13    1    1    2    0    0 -0.16256081071E+02 -0.13370536554E+01  0.29145073786E+02  0.33399017692E+02  0.10570000000E+00 0.  1.
         13    1    1    2    0    0  0.16256081071E+02  0.13370536554E+01  0.12857586059E+02  0.20769607026E+02  0.10570000000E+00 0. -1.
<mgrwt>
<rscale>  0 0.34205504E+02</rscale>
<asrwt>0</asrwt>
<pdfrwt beam="1">  1        2 0.73977910E-02 0.34205504E+02</pdfrwt>
<pdfrwt beam="2">  1       -2 0.93584346E-03 0.34205504E+02</pdfrwt>
<totfact> 0.13172957E+06</totfact>
</mgrwt>
</event>
<event>
 4    1  0.3704929E-001  0.6746691E+02  0.7818608E-02  0.1368925E+00
         -2   -1    0    0    0  501 -0.00000000000E+00  0.00000000000E+00  0.49935253175E+02  0.49935253243E+02  0.26000000000E-02 0.  1.
          2   -1    0    0  501    0  0.00000000000E+00 -0.00000000000E+00 -0.22788426804E+02  0.22788426952E+02  0.26000000000E-02 0. -1.
        -13    1    1    2    0    0 -0.25228178773E+02 -0.21985188180E+02  0.18162501119E+02  0.38074888351E+02  0.10570000000E+00 0. -1.
         13    1    1    2    0    0  0.25228178773E+02  0.21985188180E+02  0.89843252526E+01  0.34648791844E+02  0.10570000000E+00 0.  1.
<mgrwt>
<rscale>  0 0.67466907E+02</rscale>
<asrwt>0</asrwt>
<pdfrwt beam="2">  1        2 0.35059119E-02 0.67466907E+02</pdfrwt>
<pdfrwt beam="1">  1       -2 0.76823466E-02 0.67466907E+02</pdfrwt>
<totfact> 0.19819345E+05</totfact>
</mgrwt>
</event>
<event>
 4    1  0.3704929E-001  0.4027300E+02  0.7818608E-02  0.1506212E+00
          2   -1    0    0  501    0  0.00000000000E+00  0.00000000000E+00  0.41371728250E+02  0.41371728332E+02  0.26000000000E-02 0.  1.
         -2   -1    0    0    0  501 -0.00000000000E+00 -0.00000000000E+00 -0.98008607272E+01  0.98008610720E+01  0.26000000000E-02 0. -1.
        -13    1    1    2    0    0  0.42731975089E+00  0.15525282432E+02 -0.49914967871E+00  0.15539540523E+02  0.10570000000E+00 0. -1.
         13    1    1    2    0    0 -0.42731975089E+00 -0.15525282432E+02  0.32070017202E+02  0.35633048881E+02  0.10570000000E+00 0.  1.
<mgrwt>
<rscale>  0 0.40272996E+02</rscale>
<asrwt>0</asrwt>
<pdfrwt beam="1">  1        2 0.63648813E-02 0.40272996E+02</pdfrwt>
<pdfrwt beam="2">  1       -2 0.15078248E-02 0.40272996E+02</pdfrwt>
<totfact> 0.85919868E+05</totfact>
</mgrwt>
</event>
<event>
 4    1  0.3704929E-001  0.2739182E+02  0.7818608E-02  0.1628848E+00
          2   -1    0    0  501    0  0.00000000000E+00  0.00000000000E+00  0.15328975424E+02  0.15328975645E+02  0.26000000000E-02 0.  1.
         -2   -1    0    0    0  501 -0.00000000000E+00 -0.00000000000E+00 -0.12236826413E+02  0.12236826689E+02  0.26000000000E-02 0. -1.
        -13    1    1    2    0    0  0.46484775526E+01  0.12422588648E+02 -0.18870139434E+01  0.13397800058E+02  0.10570000000E+00 0.  1.
         13    1    1    2    0    0 -0.46484775526E+01 -0.12422588648E+02  0.49791629553E+01  0.14168002276E+02  0.10570000000E+00 0. -1.
<mgrwt>
<rscale>  0 0.27391825E+02</rscale>
<asrwt>0</asrwt>
<pdfrwt beam="1">  1        2 0.23583039E-02 0.27391825E+02</pdfrwt>
<pdfrwt beam="2">  1       -2 0.18825887E-02 0.27391825E+02</pdfrwt>
<totfact> 0.19559091E+06</totfact>
</mgrwt>
</event>
<event>
 4    1  0.3704929E-001  0.2390322E+02  0.7818608E-02  0.1677274E+00
          2   -1    0    0  501    0  0.00000000000E+00  0.00000000000E+00  0.19968526930E+01  0.19968543857E+01  0.26000000000E-02 0. -1.
         -2   -1    0    0    0  501 -0.00000000000E+00 -0.00000000000E+00 -0.71533034868E+02  0.71533034915E+02  0.26000000000E-02 0.  1.
        -13    1    1    2    0    0 -0.10170968333E+02 -0.14682356187E+01 -0.15999666474E+02  0.19015909456E+02  0.10570000000E+00 0. -1.
         13    1    1    2    0    0  0.10170968333E+02  0.14682356187E+01 -0.53536515701E+02  0.54513979845E+02  0.10570000000E+00 0.  1.
<mgrwt>
<rscale>  0 0.23903221E+02</rscale>
<asrwt>0</asrwt>
<pdfrwt beam="1">  1        2 0.30720829E-03 0.23903221E+02</pdfrwt>
<pdfrwt beam="2">  1       -2 0.11005080E-01 0.23903221E+02</pdfrwt>
<totfact> 0.21523883E+06</totfact>
</mgrwt>
</event>
<event>
 4    1  0.3704929E-001  0.2879754E+02  0.7818608E-02  0.1611774E+00
          2   -1    0    0  501    0  0.00000000000E+00  0.00000000000E+00  0.58134492162E+01  0.58134497976E+01  0.26000000000E-02 0. -1.
         -2   -1    0    0    0  501 -0.00000000000E+00 -0.00000000000E+00 -0.35662910727E+02  0.35662910822E+02  0.26000000000E-02 0.  1.
        -13    1    1    2    0    0  0.13323277024E+02 -0.94229927484E+00 -0.71798929429E+01  0.15164421312E+02  0.10570000000E+00 0. -1.
         13    1    1    2    0    0 -0.13323277024E+02  0.94229927484E+00 -0.22669568568E+02  0.26311939307E+02  0.10570000000E+00 0.  1.
<mgrwt>
<rscale>  0 0.28797537E+02</rscale>
<asrwt>0</asrwt>
<pdfrwt beam="1">  1        2 0.89437688E-03 0.28797537E+02</pdfrwt>
<pdfrwt beam="2">  1       -2 0.54866016E-02 0.28797537E+02</pdfrwt>
<totfact> 0.15652479E+06</totfact>
</mgrwt>
</event>
<event>
 4    1  0.3704929E-001  0.2709334E+02  0.7818608E-02  0.1632636E+00
         -2   -1    0    0    0  501 -0.00000000000E+00  0.00000000000E+00  0.25350259786E+02  0.25350259919E+02  0.26000000000E-02 0. -1.
          2   -1    0    0  501    0  0.00000000000E+00 -0.00000000000E+00 -0.72390678099E+01  0.72390682768E+01  0.26000000000E-02 0.  1.
        -13    1    1    2    0    0  0.57690710875E+01 -0.84084270943E+01  0.19781738751E+02  0.22255610257E+02  0.10570000000E+00 0. -1.
         13    1    1    2    0    0 -0.57690710875E+01  0.84084270943E+01 -0.16705467756E+01  0.10333717938E+02  0.10570000000E+00 0.  1.
<mgrwt>
<rscale>  0 0.27093339E+02</rscale>
<asrwt>0</asrwt>
<pdfrwt beam="2">  1        2 0.11137028E-02 0.27093339E+02</pdfrwt>
<pdfrwt beam="1">  1       -2 0.39000400E-02 0.27093339E+02</pdfrwt>
<totfact> 0.18681323E+06</totfact>
</mgrwt>
</event>
<event>
 4    1  0.3704929E-001  0.2702809E+02  0.7818608E-02  0.1633472E+00
          2   -1    0    0  501    0  0.00000000000E+00  0.00000000000E+00  0.17441398176E+01  0.17441417555E+01  0.26000000000E-02 0.  1.
         -2   -1    0    0    0  501 -0.00000000000E+00 -0.00000000000E+00 -0.10471022875E+03  0.10471022878E+03  0.26000000000E-02 0. -1.
        -13    1    1    2    0    0 -0.31620715930E+01 -0.13000265018E+02 -0.43996876356E+02  0.45986322845E+02  0.10570000000E+00 0.  1.
         13    1    1    2    0    0  0.31620715930E+01  0.13000265018E+02 -0.58969212574E+02  0.60468047689E+02  0.10570000000E+00 0. -1.
<mgrwt>
<rscale>  0 0.27028088E+02</rscale>
<asrwt>0</asrwt>
<pdfrwt beam="1">  1        2 0.26832944E-03 0.27028088E+02</pdfrwt>
<pdfrwt beam="2">  1       -2 0.16109261E-01 0.27028088E+02</pdfrwt>
<totfact> 0.14994885E+06</totfact>
</mgrwt>
</event>
<event>
 4    1  0.3704929E-001  0.2643275E+02  0.7818608E-02  0.1641236E+00
          2   -1    0    0  501    0  0.00000000000E+00  0.00000000000E+00  0.15884239488E+02  0.15884239701E+02  0.26000000000E-02 0.  1.
         -2   -1    0    0    0  501 -0.00000000000E+00 -0.00000000000E+00 -0.10996594719E+02  0.10996595026E+02  0.26000000000E-02 0. -1.
        -13    1    1    2    0    0 -0.79599970134E+01  0.10328261028E+02  0.25634714689E+00  0.13042676668E+02  0.10570000000E+00 0. -1.
         13    1    1    2    0    0  0.79599970134E+01 -0.10328261028E+02  0.46312976224E+01  0.13838158059E+02  0.10570000000E+00 0.  1.
<mgrwt>
<rscale>  0 0.26432749E+02</rscale>
<asrwt>0</asrwt>
<pdfrwt beam="1">  1        2 0.24437292E-02 0.26432749E+02</pdfrwt>
<pdfrwt beam="2">  1       -2 0.16917839E-02 0.26432749E+02</pdfrwt>
<totfact> 0.21373585E+06</totfact>
</mgrwt>
</event>
<event>
 4    1  0.3704929E-001  0.2803494E+02  0.7818608E-02  0.1620884E+00
          2   -1    0    0  501    0  0.00000000000E+00  0.00000000000E+00  0.80541645741E+02  0.80541645783E+02  0.26000000000E-02 0. -1.
         -2   -1    0    0    0  501 -0.00000000000E+00 -0.00000000000E+00 -0.24396008873E+01  0.24396022728E+01  0.26000000000E-02 0.  1.
        -13    1    1    2    0    0 -0.54573041292E+01 -0.12806696712E+02  0.43900877927E+02  0.46055313529E+02  0.10570000000E+00 0. -1.
         13    1    1    2    0    0  0.54573041292E+01  0.12806696712E+02  0.34201166927E+02  0.36925934526E+02  0.10570000000E+00 0.  1.
<mgrwt>
<rscale>  0 0.28034945E+02</rscale>
<asrwt>0</asrwt>
<pdfrwt beam="1">  1        2 0.12391022E-01 0.28034945E+02</pdfrwt>
<pdfrwt beam="2">  1       -2 0.37532334E-03 0.28034945E+02</pdfrwt>
<totfact> 0.23329262E+06</totfact>
</mgrwt>
</event>
<event>
 4    1  0.3704929E-001  0.3600662E+02  0.7818608E-02  0.1539839E+00
          2   -1    0    0  501    0  0.00000000000E+00  0.00000000000E+00  0.90635769324E+01  0.90635773053E+01  0.26000000000E-02 0. -1.
         -2   -1    0    0    0  501 -0.00000000000E+00 -0.00000000000E+00 -0.35760631693E+02  0.35760631787E+02  0.26000000000E-02 0.  1.
        -13    1    1    2    0    0  0.12233311341E+01 -0.17706060842E+02 -0.95917402867E+01  0.20174582618E+02  0.10570000000E+00 0. -1.
         13    1    1    2    0    0 -0.12233311341E+01  0.17706060842E+02 -0.17105314474E+02  0.24649626475E+02  0.10570000000E+00 0.  1.
<mgrwt>
<rscale>  0 0.36006624E+02</rscale>
<asrwt>0</asrwt>
<pdfrwt beam="1">  1        2 0.13943965E-02 0.36006624E+02</pdfrwt>
<pdfrwt beam="2">  1       -2 0.55016356E-02 0.36006624E+02</pdfrwt>
<totfact> 0.93371625E+05</totfact>
</mgrwt>
</event>
<event>
 4    1  0.3704929E-001  0.2171464E+02  0.7818608E-02  0.1713234E+00
          2   -1    0    0  501    0  0.00000000000E+00  0.00000000000E+00  0.27054565418E+02  0.27054565543E+02  0.26000000000E-02 0. -1.
         -2   -1    0    0    0  501 -0.00000000000E+00 -0.00000000000E+00 -0.43571732694E+01  0.43571740451E+01  0.26000000000E-02 0.  1.
        -13    1    1    2    0    0  0.41719643446E+01 -0.91801761830E+01  0.17169111351E+02  0.19911566445E+02  0.10570000000E+00 0.  1.
         13    1    1    2    0    0 -0.41719643446E+01  0.91801761830E+01  0.55282807982E+01  0.11500173143E+02  0.10570000000E+00 0. -1.
<mgrwt>
<rscale>  0 0.21714644E+02</rscale>
<asrwt>0</asrwt>
<pdfrwt beam="1">  1        2 0.41622410E-02 0.21714644E+02</pdfrwt>
<pdfrwt beam="2">  1       -2 0.67033441E-03 0.21714644E+02</pdfrwt>
<totfact> 0.35609200E+06</totfact>
</mgrwt>
</event>
<event>
 4    1  0.3704929E-001  0.2095979E+02  0.7818608E-02  0.1726889E+00
         -2   -1    0    0    0  501 -0.00000000000E+00  0.00000000000E+00  0.20268986250E+02  0.20268986416E+02  0.26000000000E-02 0.  1.
          2   -1    0    0  501    0  0.00000000000E+00 -0.00000000000E+00 -0.54185319192E+01  0.54185325430E+01  0.26000000000E-02 0. -1.
        -13    1    1    2    0    0  0.64167969701E+01 -0.81203748880E+01  0.94394841775E+01  0.14008240636E+02  0.10570000000E+00 0. -1.
         13    1    1    2    0    0 -0.64167969701E+01  0.81203748880E+01  0.54109701529E+01  0.11679278324E+02  0.10570000000E+00 0.  1.
<mgrwt>
<rscale>  0 0.20959786E+02</rscale>
<asrwt>0</asrwt>
<pdfrwt beam="2">  1        2 0.83362035E-03 0.20959786E+02</pdfrwt>
<pdfrwt beam="1">  1       -2 0.31183057E-02 0.20959786E+02</pdfrwt>
<totfact> 0.33759694E+06</totfact>
</mgrwt>
</event>
<event>
 4    1  0.3704929E-001  0.5848315E+02  0.7818608E-02  0.1404310E+00
         -2   -1    0    0    0  501 -0.00000000000E+00  0.00000000000E+00  0.30326588840E+01  0.30326599986E+01  0.26000000000E-02 0.  1.
          2   -1    0    0  501    0  0.00000000000E+00 -0.00000000000E+00 -0.28195377334E+03  0.28195377335E+03  0.26000000000E-02 0. -1.
        -13    1    1    2    0    0 -0.28247394803E+02  0.48571597492E+01 -0.16768647174E+03  0.17011840374E+03  0.10570000000E+00 0. -1.
         13    1    1    2    0    0  0.28247394803E+02 -0.48571597492E+01 -0.11123464272E+03  0.11486802961E+03  0.10570000000E+00 0.  1.
<mgrwt>
<rscale>  0 0.58483152E+02</rscale>
<asrwt>0</asrwt>
<pdfrwt beam="2">  1        2 0.43377483E-01 0.58483152E+02</pdfrwt>
<pdfrwt beam="1">  1       -2 0.46656321E-03 0.58483152E+02</pdfrwt>
<totfact> 0.55812726E+05</totfact>
</mgrwt>
</event>
<event>
 4    1  0.3704929E-001  0.4789063E+02  0.7818608E-02  0.1457063E+00
          2   -1    0    0  501    0  0.00000000000E+00  0.00000000000E+00  0.19534210030E+03  0.19534210032E+03  0.26000000000E-02 0. -1.
         -2   -1    0    0    0  501 -0.00000000000E+00 -0.00000000000E+00 -0.29352508855E+01  0.29352520370E+01  0.26000000000E-02 0.  1.
        -13    1    1    2    0    0 -0.23595438073E+02 -0.28451273276E+01  0.10829367104E+03  0.11087096016E+03  0.10570000000E+00 0. -1.
         13    1    1    2    0    0  0.23595438073E+02  0.28451273276E+01  0.84113178375E+02  0.87406392193E+02  0.10570000000E+00 0.  1.
<mgrwt>
<rscale>  0 0.47890633E+02</rscale>
<asrwt>0</asrwt>
<pdfrwt beam="1">  1        2 0.30052639E-01 0.47890633E+02</pdfrwt>
<pdfrwt beam="2">  1       -2 0.45157702E-03 0.47890633E+02</pdfrwt>
<totfact> 0.81346524E+05</totfact>
</mgrwt>
</event>
<event>
 4    1  0.3704929E-001  0.3839521E+02  0.7818608E-02  0.1520364E+00
          2   -1    0    0  501    0  0.00000000000E+00  0.00000000000E+00  0.18905723745E+03  0.18905723746E+03  0.26000000000E-02 0. -1.
         -2   -1    0    0    0  501 -0.00000000000E+00 -0.00000000000E+00 -0.19493988158E+01  0.19494005496E+01  0.26000000000E-02 0.  1.
        -13    1    1    2    0    0  0.50572586358E+01 -0.18442853325E+02  0.85196565491E+02  0.87316554259E+02  0.10570000000E+00 0. -1.
         13    1    1    2    0    0 -0.50572586358E+01  0.18442853325E+02  0.10191127314E+03  0.10369008375E+03  0.10570000000E+00 0.  1.
<mgrwt>
<rscale>  0 0.38395214E+02</rscale>
<asrwt>0</asrwt>
<pdfrwt beam="1">  1        2 0.29085726E-01 0.38395214E+02</pdfrwt>
<pdfrwt beam="2">  1       -2 0.29990768E-03 0.38395214E+02</pdfrwt>
<totfact> 0.13852011E+06</totfact>
</mgrwt>
</event>
<event>
 4    1  0.3704929E-001  0.3447454E+02  0.7818608E-02  0.1553317E+00
         -2   -1    0    0    0  501 -0.00000000000E+00  0.00000000000E+00  0.77769321470E+01  0.77769325816E+01  0.26000000000E-02 0. -1.
          2   -1    0    0  501    0  0.00000000000E+00 -0.00000000000E+00 -0.38205744984E+02  0.38205745072E+02  0.26000000000E-02 0.  1.
        -13    1    1    2    0    0  0.13464449385E+02 -0.60174991829E+01 -0.27115347313E+02  0.30866728464E+02  0.10570000000E+00 0.  1.
         13    1    1    2    0    0 -0.13464449385E+02  0.60174991829E+01 -0.33134655233E+01  0.15115949190E+02  0.10570000000E+00 0. -1.
<mgrwt>
<rscale>  0 0.34474541E+02</rscale>
<asrwt>0</asrwt>
<pdfrwt beam="2">  1        2 0.58778068E-02 0.34474541E+02</pdfrwt>
<pdfrwt beam="1">  1       -2 0.11964512E-02 0.34474541E+02</pdfrwt>
<totfact> 0.12468476E+06</totfact>
</mgrwt>
</event>
<event>
 4    1  0.3704929E-001  0.4497217E+02  0.7818608E-02  0.1474515E+00
         -2   -1    0    0    0  501 -0.00000000000E+00  0.00000000000E+00  0.16881603994E+02  0.16881604194E+02  0.26000000000E-02 0. -1.
          2   -1    0    0  501    0  0.00000000000E+00 -0.00000000000E+00 -0.29951187922E+02  0.29951188035E+02  0.26000000000E-02 0.  1.
        -13    1    1    2    0    0  0.46718333844E+01  0.15789714025E+02  0.94111989148E+01  0.18966363217E+02  0.10570000000E+00 0. -1.
         13    1    1    2    0    0 -0.46718333844E+01 -0.15789714025E+02 -0.22480782843E+02  0.27866429012E+02  0.10570000000E+00 0.  1.
<mgrwt>
<rscale>  0 0.44972174E+02</rscale>
<asrwt>0</asrwt>
<pdfrwt beam="2">  1        2 0.46078751E-02 0.44972174E+02</pdfrwt>
<pdfrwt beam="1">  1       -2 0.25971699E-02 0.44972174E+02</pdfrwt>
<totfact> 0.61780584E+05</totfact>
</mgrwt>
</event>
<event>
 4    1  0.3704929E-001  0.2235919E+02  0.7818608E-02  0.1702113E+00
         -2   -1    0    0    0  501 -0.00000000000E+00  0.00000000000E+00  0.21506271829E+01  0.21506287545E+01  0.26000000000E-02 0. -1.
          2   -1    0    0  501    0  0.00000000000E+00 -0.00000000000E+00 -0.58114786713E+02  0.58114786771E+02  0.26000000000E-02 0.  1.
        -13    1    1    2    0    0  0.98460467585E+01  0.39445719433E+01 -0.18464913494E+02  0.21294799539E+02  0.10570000000E+00 0. -1.
         13    1    1    2    0    0 -0.98460467585E+01 -0.39445719433E+01 -0.37499246036E+02  0.38970615986E+02  0.10570000000E+00 0.  1.
<mgrwt>
<rscale>  0 0.22359185E+02</rscale>
<asrwt>0</asrwt>
<pdfrwt beam="2">  1        2 0.89407353E-02 0.22359185E+02</pdfrwt>
<pdfrwt beam="1">  1       -2 0.33086589E-03 0.22359185E+02</pdfrwt>
<totfact> 0.36931161E+06</totfact>
</mgrwt>
</event>
<event>
 4    1  0.3704929E-001  0.6292911E+02  0.7818608E-02  0.1385935E+00
         -2   -1    0    0    0  501 -0.00000000000E+00  0.00000000000E+00  0.17342022170E+02  0.17342022365E+02  0.26000000000E-02 0.  1.
          2   -1    0    0  501    0  0.00000000000E+00 -0.00000000000E+00 -0.57087826306E+02  0.57087826365E+02  0.26000000000E-02 0. -1.
        -13    1    1    2    0    0  0.26148565367E+02  0.48184867053E+01 -0.39771426982E+02  0.47840807493E+02  0.10570000000E+00 0. -1.
         13    1    1    2    0    0 -0.26148565367E+02 -0.48184867053E+01  0.25622845135E-01  0.26589041237E+02  0.10570000000E+00 0.  1.
<mgrwt>
<rscale>  0 0.62929114E+02</rscale>
<asrwt>0</asrwt>
<pdfrwt beam="2">  1        2 0.87827424E-02 0.62929114E+02</pdfrwt>
<pdfrwt beam="1">  1       -2 0.26680035E-02 0.62929114E+02</pdfrwt>
<totfact> 0.28892532E+05</totfact>
</mgrwt>
</event>
<event>
 4    1  0.3704929E-001  0.3712681E+02  0.7818608E-02  0.1530486E+00
         -2   -1    0    0    0  501 -0.00000000000E+00  0.00000000000E+00  0.34112541382E+02  0.34112541481E+02  0.26000000000E-02 0. -1.
          2   -1    0    0  501    0  0.00000000000E+00 -0.00000000000E+00 -0.10101859031E+02  0.10101859366E+02  0.26000000000E-02 0.  1.
        -13    1    1    2    0    0  0.71798261265E+00  0.11893286783E+02  0.28957327218E+02  0.31312996370E+02  0.10570000000E+00 0. -1.
         13    1    1    2    0    0 -0.71798261265E+00 -0.11893286783E+02 -0.49466448680E+01  0.12901404477E+02  0.10570000000E+00 0.  1.
<mgrwt>
<rscale>  0 0.37126815E+02</rscale>
<asrwt>0</asrwt>
<pdfrwt beam="2">  1        2 0.15541322E-02 0.37126815E+02</pdfrwt>
<pdfrwt beam="1">  1       -2 0.52480834E-02 0.37126815E+02</pdfrwt>
<totfact> 0.87468482E+05</totfact>
</mgrwt>
</event>
<event>
 4    1  0.3704929E-001  0.2285244E+02  0.7818608E-02  0.1693913E+00
         -2   -1    0    0    0  501 -0.00000000000E+00  0.00000000000E+00  0.16783285816E+02  0.16783286017E+02  0.26000000000E-02 0.  1.
          2   -1    0    0  501    0  0.00000000000E+00 -0.00000000000E+00 -0.77790752269E+01  0.77790756614E+01  0.26000000000E-02 0. -1.
        -13    1    1    2    0    0 -0.87548574400E+01 -0.53568922976E+01  0.98980521886E+01  0.14259257817E+02  0.10570000000E+00 0.  1.
         13    1    1    2    0    0  0.87548574400E+01  0.53568922976E+01 -0.89384159969E+00  0.10303103861E+02  0.10570000000E+00 0. -1.
<mgrwt>
<rscale>  0 0.22852435E+02</rscale>
<asrwt>0</asrwt>
<pdfrwt beam="2">  1        2 0.11967809E-02 0.22852435E+02</pdfrwt>
<pdfrwt beam="1">  1       -2 0.25820440E-02 0.22852435E+02</pdfrwt>
<totfact> 0.28375597E+06</totfact>
</mgrwt>
</event>
<event>
 4    1  0.3704929E-001  0.4383034E+02  0.7818608E-02  0.1481778E+00
          2   -1    0    0  501    0  0.00000000000E+00  0.00000000000E+00  0.10030817766E+02  0.10030818103E+02  0.26000000000E-02 0.  1.
         -2   -1    0    0    0  501 -0.00000000000E+00 -0.00000000000E+00 -0.47879914004E+02  0.47879914074E+02  0.26000000000E-02 0. -1.
        -13    1    1    2    0    0 -0.31353984391E+01 -0.11371742844E+02  0.54780137500E+01  0.13006424021E+02  0.10570000000E+00 0.  1.
         13    1    1    2    0    0  0.31353984391E+01  0.11371742844E+02 -0.43327109987E+02  0.44904308157E+02  0.10570000000E+00 0. -1.
<mgrwt>
<rscale>  0 0.43830341E+02</rscale>
<asrwt>0</asrwt>
<pdfrwt beam="1">  1        2 0.15432028E-02 0.43830341E+02</pdfrwt>
<pdfrwt beam="2">  1       -2 0.73661406E-02 0.43830341E+02</pdfrwt>
<totfact> 0.56268178E+05</totfact>
</mgrwt>
</event>
<event>
 4    1  0.3704929E-001  0.4133133E+02  0.7818608E-02  0.1498637E+00
         -2   -1    0    0    0  501 -0.00000000000E+00  0.00000000000E+00  0.51702250185E+01  0.51702256723E+01  0.26000000000E-02 0.  1.
          2   -1    0    0  501    0  0.00000000000E+00 -0.00000000000E+00 -0.82601750916E+02  0.82601750957E+02  0.26000000000E-02 0. -1.
        -13    1    1    2    0    0  0.14050323623E+02  0.34746237482E+01 -0.73915685956E+01  0.16252109491E+02  0.10570000000E+00 0.  1.
         13    1    1    2    0    0 -0.14050323623E+02 -0.34746237482E+01 -0.70039957302E+02  0.71519867138E+02  0.10570000000E+00 0. -1.
<mgrwt>
<rscale>  0 0.41331328E+02</rscale>
<asrwt>0</asrwt>
<pdfrwt beam="2">  1        2 0.12707961E-01 0.41331328E+02</pdfrwt>
<pdfrwt beam="1">  1       -2 0.79541935E-03 0.41331328E+02</pdfrwt>
<totfact> 0.92054879E+05</totfact>
</mgrwt>
</event>
<event>
 4    1  0.3704929E-001  0.2038192E+02  0.7818608E-02  0.1737838E+00
         -2   -1    0    0    0  501 -0.00000000000E+00  0.00000000000E+00  0.61041658073E+01  0.61041663610E+01  0.26000000000E-02 0. -1.
          2   -1    0    0  501    0  0.00000000000E+00 -0.00000000000E+00 -0.17013896092E+02  0.17013896290E+02  0.26000000000E-02 0.  1.
        -13    1    1    2    0    0 -0.96672048646E+01  0.29875736539E+01 -0.68272684909E+01  0.12206687256E+02  0.10570000000E+00 0. -1.
         13    1    1    2    0    0  0.96672048646E+01 -0.29875736539E+01 -0.40824617935E+01  0.10911375395E+02  0.10570000000E+00 0.  1.
<mgrwt>
<rscale>  0 0.20381919E+02</rscale>
<asrwt>0</asrwt>
<pdfrwt beam="2">  1        2 0.26175225E-02 0.20381919E+02</pdfrwt>
<pdfrwt beam="1">  1       -2 0.93910249E-03 0.20381919E+02</pdfrwt>
<totfact> 0.39381698E+06</totfact>
</mgrwt>
</event>
<event>
 4    1  0.3704929E-001  0.2293187E+02  0.7818608E-02  0.1692617E+00
          2   -1    0    0  501    0  0.00000000000E+00  0.00000000000E+00  0.83914254788E+01  0.83914258816E+01  0.26000000000E-02 0. -1.
         -2   -1    0    0    0  501 -0.00000000000E+00 -0.00000000000E+00 -0.15666902755E+02  0.15666902971E+02  0.26000000000E-02 0.  1.
        -13    1    1    2    0    0 -0.45865761660E+01 -0.10443045050E+02 -0.48623885650E+01  0.12399510711E+02  0.10570000000E+00 0.  1.
         13    1    1    2    0    0  0.45865761660E+01  0.10443045050E+02 -0.24130887115E+01  0.11658818141E+02  0.10570000000E+00 0. -1.
<mgrwt>
<rscale>  0 0.22931869E+02</rscale>
<asrwt>0</asrwt>
<pdfrwt beam="1">  1        2 0.12909886E-02 0.22931869E+02</pdfrwt>
<pdfrwt beam="2">  1       -2 0.24102928E-02 0.22931869E+02</pdfrwt>
<totfact> 0.28322838E+06</totfact>
</mgrwt>
</event>
<event>
 4    1  0.3704929E-001  0.3212343E+02  0.7818608E-02  0.1575737E+00
          2   -1    0    0  501    0  0.00000000000E+00  0.00000000000E+00  0.83005684539E+02  0.83005684580E+02  0.26000000000E-02 0.  1.
         -2   -1    0    0    0  501 -0.00000000000E+00 -0.00000000000E+00 -0.31079627855E+01  0.31079638730E+01  0.26000000000E-02 0. -1.
        -13    1    1    2    0    0  0.47913031333E+01 -0.13853235920E+02  0.57547631623E+02  0.59385265925E+02  0.10570000000E+00 0.  1.
         13    1    1    2    0    0 -0.47913031333E+01  0.13853235920E+02  0.22350090131E+02  0.26728382528E+02  0.10570000000E+00 0. -1.
<mgrwt>
<rscale>  0 0.32123426E+02</rscale>
<asrwt>0</asrwt>
<pdfrwt beam="1">  1        2 0.12770105E-01 0.32123426E+02</pdfrwt>
<pdfrwt beam="2">  1       -2 0.47814821E-03 0.32123426E+02</pdfrwt>
<totfact> 0.17015459E+06</totfact>
</mgrwt>
</event>
<event>
 4    1  0.3704929E-001  0.2428782E+02  0.7818608E-02  0.1671447E+00
          2   -1    0    0  501    0  0.00000000000E+00  0.00000000000E+00  0.11934506469E+03  0.11934506472E+03  0.26000000000E-02 0.  1.
         -2   -1    0    0    0  501 -0.00000000000E+00 -0.00000000000E+00 -0.12356976797E+01  0.12357004150E+01  0.26000000000E-02 0. -1.
        -13    1    1    2    0    0  0.88790633139E+01 -0.82833719267E+01  0.59584714065E+02  0.60809549731E+02  0.10570000000E+00 0.  1.
         13    1    1    2    0    0 -0.88790633139E+01  0.82833719267E+01  0.58524652948E+02  0.59771215405E+02  0.10570000000E+00 0. -1.
<mgrwt>
<rscale>  0 0.24287823E+02</rscale>
<asrwt>0</asrwt>
<pdfrwt beam="1">  1        2 0.18360782E-01 0.24287823E+02</pdfrwt>
<pdfrwt beam="2">  1       -2 0.19010752E-03 0.24287823E+02</pdfrwt>
<totfact> 0.35616726E+06</totfact>
</mgrwt>
</event>
<event>
 4    1  0.3704929E-001  0.3822607E+02  0.7818608E-02  0.1521687E+00
         -2   -1    0    0    0  501 -0.00000000000E+00  0.00000000000E+00  0.42214510838E+01  0.42214518845E+01  0.26000000000E-02 0. -1.
          2   -1    0    0  501    0  0.00000000000E+00 -0.00000000000E+00 -0.86536122812E+02  0.86536122851E+02  0.26000000000E-02 0.  1.
        -13    1    1    2    0    0 -0.13764268144E+02  0.80157296920E+01 -0.16076866367E+02  0.22631478182E+02  0.10570000000E+00 0. -1.
         13    1    1    2    0    0  0.13764268144E+02 -0.80157296920E+01 -0.66237805362E+02  0.68126096554E+02  0.10570000000E+00 0.  1.
<mgrwt>
<rscale>  0 0.38226067E+02</rscale>
<asrwt>0</asrwt>
<pdfrwt beam="2">  1        2 0.13313248E-01 0.38226067E+02</pdfrwt>
<pdfrwt beam="1">  1       -2 0.64945414E-03 0.38226067E+02</pdfrwt>
<totfact> 0.11277605E+06</totfact>
</mgrwt>
</event>
<event>
 4    1  0.3704929E-001  0.3768465E+02  0.7818608E-02  0.1525976E+00
         -2   -1    0    0    0  501 -0.00000000000E+00  0.00000000000E+00  0.14837563213E+02  0.14837563441E+02  0.26000000000E-02 0. -1.
          2   -1    0    0  501    0  0.00000000000E+00 -0.00000000000E+00 -0.23928004757E+02  0.23928004898E+02  0.26000000000E-02 0.  1.
        -13    1    1    2    0    0  0.75954219246E+01  0.16995507732E+02 -0.15488731094E+01  0.18680147154E+02  0.10570000000E+00 0.  1.
         13    1    1    2    0    0 -0.75954219246E+01 -0.16995507732E+02 -0.75415684345E+01  0.20085421186E+02  0.10570000000E+00 0. -1.
<mgrwt>
<rscale>  0 0.37684654E+02</rscale>
<asrwt>0</asrwt>
<pdfrwt beam="2">  1        2 0.36812315E-02 0.37684654E+02</pdfrwt>
<pdfrwt beam="1">  1       -2 0.22827021E-02 0.37684654E+02</pdfrwt>
<totfact> 0.93830866E+05</totfact>
</mgrwt>
</event>
<event>
 4    1  0.3704929E-001  0.6714173E+02  0.7818608E-02  0.1370092E+00
          2   -1    0    0  501    0  0.00000000000E+00  0.00000000000E+00  0.34191128841E+03  0.34191128842E+03  0.26000000000E-02 0. -1.
         -2   -1    0    0    0  501 -0.00000000000E+00 -0.00000000000E+00 -0.32961850372E+01  0.32961860626E+01  0.26000000000E-02 0.  1.
        -13    1    1    2    0    0  0.20954072354E+02 -0.25966926696E+02  0.18829445838E+03  0.19122805406E+03  0.10570000000E+00 0. -1.
         13    1    1    2    0    0 -0.20954072354E+02  0.25966926696E+02  0.15032064499E+03  0.15397942042E+03  0.10570000000E+00 0.  1.
<mgrwt>
<rscale>  0 0.67141732E+02</rscale>
<asrwt>0</asrwt>
<pdfrwt beam="1">  1        2 0.52601711E-01 0.67141732E+02</pdfrwt>
<pdfrwt beam="2">  1       -2 0.50710572E-03 0.67141732E+02</pdfrwt>
<totfact> 0.41999617E+05</totfact>
</mgrwt>
</event>
<event>
 4    1  0.3704929E-001  0.2189155E+02  0.7818608E-02  0.1710134E+00
          2   -1    0    0  501    0  0.00000000000E+00  0.00000000000E+00  0.30279641947E+02  0.30279642059E+02  0.26000000000E-02 0.  1.
         -2   -1    0    0    0  501 -0.00000000000E+00 -0.00000000000E+00 -0.39567838147E+01  0.39567846690E+01  0.26000000000E-02 0. -1.
        -13    1    1    2    0    0  0.10483672960E+02 -0.18371348386E+01  0.91692040418E+01  0.14048769996E+02  0.10570000000E+00 0. -1.
         13    1    1    2    0    0 -0.10483672960E+02  0.18371348386E+01  0.17153654090E+02  0.20187656731E+02  0.10570000000E+00 0.  1.
<mgrwt>
<rscale>  0 0.21891552E+02</rscale>
<asrwt>0</asrwt>
<pdfrwt beam="1">  1        2 0.46584066E-02 0.21891552E+02</pdfrwt>
<pdfrwt beam="2">  1       -2 0.60873604E-03 0.21891552E+02</pdfrwt>
<totfact> 0.35390400E+06</totfact>
</mgrwt>
</event>
<event>
 4    1  0.3704929E-001  0.2588800E+02  0.7818608E-02  0.1648565E+00
         -2   -1    0    0    0  501 -0.00000000000E+00  0.00000000000E+00  0.75583797892E+02  0.75583797936E+02  0.26000000000E-02 0. -1.
          2   -1    0    0  501    0  0.00000000000E+00 -0.00000000000E+00 -0.22167065601E+01  0.22167080849E+01  0.26000000000E-02 0.  1.
        -13    1    1    2    0    0  0.70110970819E+01 -0.10760345137E+02  0.31841903550E+02  0.34334508937E+02  0.10570000000E+00 0.  1.
         13    1    1    2    0    0 -0.70110970819E+01  0.10760345137E+02  0.41525187781E+02  0.43465997084E+02  0.10570000000E+00 0. -1.
<mgrwt>
<rscale>  0 0.25888002E+02</rscale>
<asrwt>0</asrwt>
<pdfrwt beam="2">  1        2 0.34103191E-03 0.25888002E+02</pdfrwt>
<pdfrwt beam="1">  1       -2 0.11628276E-01 0.25888002E+02</pdfrwt>
<totfact> 0.17784607E+06</totfact>
</mgrwt>
</event>
<event>
 4    1  0.3704929E-001  0.2064496E+02  0.7818608E-02  0.1732798E+00
          2   -1    0    0  501    0  0.00000000000E+00  0.00000000000E+00  0.28749811830E+01  0.28749823587E+01  0.26000000000E-02 0.  1.
         -2   -1    0    0    0  501 -0.00000000000E+00 -0.00000000000E+00 -0.37062336014E+02  0.37062336105E+02  0.26000000000E-02 0. -1.
        -13    1    1    2    0    0 -0.81082339464E+01 -0.60565263531E+01 -0.21019011317E+02  0.23328844344E+02  0.10570000000E+00 0.  1.
         13    1    1    2    0    0  0.81082339464E+01  0.60565263531E+01 -0.13168343514E+02  0.16608474119E+02  0.10570000000E+00 0. -1.
<mgrwt>
<rscale>  0 0.20644955E+02</rscale>
<asrwt>0</asrwt>
<pdfrwt beam="1">  1        2 0.44230492E-03 0.20644955E+02</pdfrwt>
<pdfrwt beam="2">  1       -2 0.57018976E-02 0.20644955E+02</pdfrwt>
<totfact> 0.32874406E+06</totfact>
</mgrwt>
</event>
<event>
 4    1  0.3704929E-001  0.2671711E+02  0.7818608E-02  0.1637497E+00
          2   -1    0    0  501    0  0.00000000000E+00  0.00000000000E+00  0.26059085515E+02  0.26059085644E+02  0.26000000000E-02 0.  1.
         -2   -1    0    0    0  501 -0.00000000000E+00 -0.00000000000E+00 -0.68479396000E+01  0.68479400936E+01  0.26000000000E-02 0. -1.
        -13    1    1    2    0    0 -0.96554264150E+01 -0.86339869782E+01  0.55828696235E+01  0.14105055694E+02  0.10570000000E+00 0.  1.
         13    1    1    2    0    0  0.96554264150E+01  0.86339869782E+01  0.13628276291E+02  0.18801970044E+02  0.10570000000E+00 0. -1.
<mgrwt>
<rscale>  0 0.26717115E+02</rscale>
<asrwt>0</asrwt>
<pdfrwt beam="1">  1        2 0.40090901E-02 0.26717115E+02</pdfrwt>
<pdfrwt beam="2">  1       -2 0.10535292E-02 0.26717115E+02</pdfrwt>
<totfact> 0.21914501E+06</totfact>
</mgrwt>
</event>
<event>
 4    1  0.3704929E-001  0.4239797E+02  0.7818608E-02  0.1491272E+00
          2   -1    0    0  501    0  0.00000000000E+00  0.00000000000E+00  0.31413690390E+01  0.31413701150E+01  0.26000000000E-02 0. -1.
         -2   -1    0    0    0  501 -0.00000000000E+00 -0.00000000000E+00 -0.14305767508E+03  0.14305767511E+03  0.26000000000E-02 0.  1.
        -13    1    1    2    0    0  0.12493585248E+02 -0.14187665930E+02 -0.10303379457E+03  0.10475377574E+03  0.10570000000E+00 0.  1.
         13    1    1    2    0    0 -0.12493585248E+02  0.14187665930E+02 -0.36882511477E+02  0.41445269480E+02  0.10570000000E+00 0. -1.
<mgrwt>
<rscale>  0 0.42397973E+02</rscale>
<asrwt>0</asrwt>
<pdfrwt beam="1">  1        2 0.48328774E-03 0.42397973E+02</pdfrwt>
<pdfrwt beam="2">  1       -2 0.22008868E-01 0.42397973E+02</pdfrwt>
<totfact> 0.47597106E+05</totfact>
</mgrwt>
</event>
<event>
 4    1  0.3704929E-001  0.6793914E+02  0.7818608E-02  0.1367245E+00
          2   -1    0    0  501    0  0.00000000000E+00  0.00000000000E+00  0.22101160813E+02  0.22101160966E+02  0.26000000000E-02 0. -1.
         -2   -1    0    0    0  501 -0.00000000000E+00 -0.00000000000E+00 -0.52211356827E+02  0.52211356892E+02  0.26000000000E-02 0.  1.
        -13    1    1    2    0    0 -0.30657731335E+02 -0.16587127044E+01  0.84367272157E+00  0.30714341513E+02  0.10570000000E+00 0. -1.
         13    1    1    2    0    0  0.30657731335E+02  0.16587127044E+01 -0.30953868736E+02  0.43598176345E+02  0.10570000000E+00 0.  1.
<mgrwt>
<rscale>  0 0.67939138E+02</rscale>
<asrwt>0</asrwt>
<pdfrwt beam="1">  1        2 0.34001786E-02 0.67939138E+02</pdfrwt>
<pdfrwt beam="2">  1       -2 0.80325164E-02 0.67939138E+02</pdfrwt>
<totfact> 0.19309033E+05</totfact>
</mgrwt>
</event>
<event>
 4    1  0.3704929E-001  0.2363933E+02  0.7818608E-02  0.1681352E+00
         -2   -1    0    0    0  501 -0.00000000000E+00  0.00000000000E+00  0.33788433782E+01  0.33788443785E+01  0.26000000000E-02 0.  1.
          2   -1    0    0  501    0  0.00000000000E+00 -0.00000000000E+00 -0.41346838135E+02  0.41346838216E+02  0.26000000000E-02 0. -1.
        -13    1    1    2    0    0  0.84414954666E+01  0.80608405652E+01 -0.15466019049E+02  0.19376400957E+02  0.10570000000E+00 0.  1.
         13    1    1    2    0    0 -0.84414954666E+01 -0.80608405652E+01 -0.22501975707E+02  0.25349281638E+02  0.10570000000E+00 0. -1.
<mgrwt>
<rscale>  0 0.23639333E+02</rscale>
<asrwt>0</asrwt>
<pdfrwt beam="2">  1        2 0.63610518E-02 0.23639333E+02</pdfrwt>
<pdfrwt beam="1">  1       -2 0.51982217E-03 0.23639333E+02</pdfrwt>
<totfact> 0.30867823E+06</totfact>
</mgrwt>
</event>
<event>
 4    1  0.3704929E-001  0.2334706E+02  0.7818608E-02  0.1685945E+00
         -2   -1    0    0    0  501 -0.00000000000E+00  0.00000000000E+00  0.88514399546E+01  0.88514403364E+01  0.26000000000E-02 0. -1.
          2   -1    0    0  501    0  0.00000000000E+00 -0.00000000000E+00 -0.15395383364E+02  0.15395383584E+02  0.26000000000E-02 0.  1.
        -13    1    1    2    0    0 -0.10039273006E+02 -0.59555459542E+01 -0.32014112501E+01  0.12104368492E+02  0.10570000000E+00 0. -1.
         13    1    1    2    0    0  0.10039273006E+02  0.59555459542E+01 -0.33425321598E+01  0.12142455429E+02  0.10570000000E+00 0.  1.
<mgrwt>
<rscale>  0 0.23347061E+02</rscale>
<asrwt>0</asrwt>
<pdfrwt beam="2">  1        2 0.23685206E-02 0.23347061E+02</pdfrwt>
<pdfrwt beam="1">  1       -2 0.13617600E-02 0.23347061E+02</pdfrwt>
<totfact> 0.28565221E+06</totfact>
</mgrwt>
</event>
<event>
 4    1  0.3704929E-001  0.2042946E+02  0.7818608E-02  0.1736920E+00
         -2   -1    0    0    0  501 -0.00000000000E+00  0.00000000000E+00  0.15264713208E+01  0.15264735351E+01  0.26000000000E-02 0. -1.
          2   -1    0    0  501    0  0.00000000000E+00 -0.00000000000E+00 -0.68354161315E+02  0.68354161365E+02  0.26000000000E-02 0.  1.
        -13    1    1    2    0    0  0.99880978221E+01  0.21369368763E+01 -0.33520718021E+02  0.35042521406E+02  0.10570000000E+00 0.  1.
         13    1    1    2    0    0 -0.99880978221E+01 -0.21369368763E+01 -0.33306971973E+02  0.34838113494E+02  0.10570000000E+00 0. -1.
<mgrwt>
<rscale>  0 0.20429464E+02</rscale>
<asrwt>0</asrwt>
<pdfrwt beam="2">  1        2 0.10516023E-01 0.20429464E+02</pdfrwt>
<pdfrwt beam="1">  1       -2 0.23484197E-03 0.20429464E+02</pdfrwt>
<totfact> 0.46553837E+06</totfact>
</mgrwt>
</event>
<event>
 4    1  0.3704929E-001  0.2566148E+02  0.7818608E-02  0.1651679E+00
         -2   -1    0    0    0  501 -0.00000000000E+00  0.00000000000E+00  0.47442345471E+02  0.47442345542E+02  0.26000000000E-02 0. -1.
          2   -1    0    0  501    0  0.00000000000E+00 -0.00000000000E+00 -0.34700622784E+01  0.34700632524E+01  0.26000000000E-02 0.  1.
        -13    1    1    2    0    0 -0.11262252205E+02 -0.13187985108E+01  0.10075656929E+02  0.15169297588E+02  0.10570000000E+00 0.  1.
         13    1    1    2    0    0  0.11262252205E+02  0.13187985108E+01  0.33896626263E+02  0.35743111207E+02  0.10570000000E+00 0. -1.
<mgrwt>
<rscale>  0 0.25661482E+02</rscale>
<asrwt>0</asrwt>
<pdfrwt beam="2">  1        2 0.53385577E-03 0.25661482E+02</pdfrwt>
<pdfrwt beam="1">  1       -2 0.72988231E-02 0.25661482E+02</pdfrwt>
<totfact> 0.19604254E+06</totfact>
</mgrwt>
</event>
<event>
 4    1  0.3704929E-001  0.2332174E+02  0.7818608E-02  0.1686347E+00
          2   -1    0    0  501    0  0.00000000000E+00  0.00000000000E+00  0.44228456171E+01  0.44228463813E+01  0.26000000000E-02 0.  1.
         -2   -1    0    0    0  501 -0.00000000000E+00 -0.00000000000E+00 -0.30743971010E+02  0.30743971120E+02  0.26000000000E-02 0. -1.
        -13    1    1    2    0    0  0.67681566272E+01 -0.88767704616E+01 -0.80783215243E+01  0.13779530075E+02  0.10570000000E+00 0.  1.
         13    1    1    2    0    0 -0.67681566272E+01  0.88767704616E+01 -0.18242803868E+02  0.21387287426E+02  0.10570000000E+00 0. -1.
<mgrwt>
<rscale>  0 0.23321737E+02</rscale>
<asrwt>0</asrwt>
<pdfrwt beam="1">  1        2 0.68043788E-03 0.23321737E+02</pdfrwt>
<pdfrwt beam="2">  1       -2 0.47298416E-02 0.23321737E+02</pdfrwt>
<totfact> 0.25631683E+06</totfact>
</mgrwt>
</event>
<event>
 4    1  0.3704929E-001  0.4125135E+02  0.7818608E-02  0.1499200E+00
          2   -1    0    0  501    0  0.00000000000E+00  0.00000000000E+00  0.15661262079E+03  0.15661262082E+03  0.26000000000E-02 0. -1.
         -2   -1    0    0    0  501 -0.00000000000E+00 -0.00000000000E+00 -0.27163736964E+01  0.27163749407E+01  0.26000000000E-02 0.  1.
        -13    1    1    2    0    0 -0.18713219249E+02 -0.86396095197E+01  0.79889393915E+02  0.82505477757E+02  0.10570000000E+00 0. -1.
         13    1    1    2    0    0  0.18713219249E+02  0.86396095197E+01  0.74006853182E+02  0.76823517999E+02  0.10570000000E+00 0.  1.
<mgrwt>
<rscale>  0 0.41251352E+02</rscale>
<asrwt>0</asrwt>
<pdfrwt beam="1">  1        2 0.24094248E-01 0.41251352E+02</pdfrwt>
<pdfrwt beam="2">  1       -2 0.41790376E-03 0.41251352E+02</pdfrwt>
<totfact> 0.10970192E+06</totfact>
</mgrwt>
</event>
<event>
 4    1  0.3704929E-001  0.4263373E+02  0.7818608E-02  0.1489679E+00
         -2   -1    0    0    0  501 -0.00000000000E+00  0.00000000000E+00  0.75434725541E+02  0.75434725585E+02  0.26000000000E-02 0. -1.
          2   -1    0    0  501    0  0.00000000000E+00 -0.00000000000E+00 -0.60238658441E+01  0.60238664052E+01  0.26000000000E-02 0.  1.
        -13    1    1    2    0    0  0.20213854104E+02 -0.45677141633E+01  0.25164819569E+02  0.32599742742E+02  0.10570000000E+00 0.  1.
         13    1    1    2    0    0 -0.20213854104E+02  0.45677141633E+01  0.44246040127E+02  0.48858849248E+02  0.10570000000E+00 0. -1.
<mgrwt>
<rscale>  0 0.42633728E+02</rscale>
<asrwt>0</asrwt>
<pdfrwt beam="2">  1        2 0.92674865E-03 0.42633728E+02</pdfrwt>
<pdfrwt beam="1">  1       -2 0.11605342E-01 0.42633728E+02</pdfrwt>
<totfact> 0.55357976E+05</totfact>
</mgrwt>
</event>
<event>
 4    1  0.3704929E-001  0.3455500E+02  0.7818608E-02  0.1552588E+00
         -2   -1    0    0    0  501 -0.00000000000E+00  0.00000000000E+00  0.45029332108E+02  0.45029332183E+02  0.26000000000E-02 0. -1.
          2   -1    0    0  501    0  0.00000000000E+00 -0.00000000000E+00 -0.66292768610E+01  0.66292773708E+01  0.26000000000E-02 0.  1.
        -13    1    1    2    0    0  0.96260287138E+01  0.66494424164E+01  0.38205841171E+02  0.39957139353E+02  0.10570000000E+00 0. -1.
         13    1    1    2    0    0 -0.96260287138E+01 -0.66494424164E+01  0.19421407590E+00  0.11701470200E+02  0.10570000000E+00 0.  1.
<mgrwt>
<rscale>  0 0.34554995E+02</rscale>
<asrwt>0</asrwt>
<pdfrwt beam="2">  1        2 0.10198888E-02 0.34554995E+02</pdfrwt>
<pdfrwt beam="1">  1       -2 0.69275894E-02 0.34554995E+02</pdfrwt>
<totfact> 0.99549581E+05</totfact>
</mgrwt>
</event>
<event>
 4    1  0.3704929E-001  0.3642611E+02  0.7818608E-02  0.1536289E+00
         -2   -1    0    0    0  501 -0.00000000000E+00  0.00000000000E+00  0.94557165595E+01  0.94557169169E+01  0.26000000000E-02 0.  1.
          2   -1    0    0  501    0  0.00000000000E+00 -0.00000000000E+00 -0.35080928811E+02  0.35080928908E+02  0.26000000000E-02 0. -1.
        -13    1    1    2    0    0 -0.16548169720E+02  0.58087465690E+01 -0.18817421886E+02  0.25723335645E+02  0.10570000000E+00 0. -1.
         13    1    1    2    0    0  0.16548169720E+02 -0.58087465690E+01 -0.68077903661E+01  0.18813310180E+02  0.10570000000E+00 0.  1.
<mgrwt>
<rscale>  0 0.36426108E+02</rscale>
<asrwt>0</asrwt>
<pdfrwt beam="2">  1        2 0.53970660E-02 0.36426108E+02</pdfrwt>
<pdfrwt beam="1">  1       -2 0.14547257E-02 0.36426108E+02</pdfrwt>
<totfact> 0.10755228E+06</totfact>
</mgrwt>
</event>
<event>
 4    1  0.3704929E-001  0.2830521E+02  0.7818608E-02  0.1617615E+00
         -2   -1    0    0    0  501 -0.00000000000E+00  0.00000000000E+00  0.83789039670E+01  0.83789043704E+01  0.26000000000E-02 0.  1.
          2   -1    0    0  501    0  0.00000000000E+00 -0.00000000000E+00 -0.23904817760E+02  0.23904817901E+02  0.26000000000E-02 0. -1.
        -13    1    1    2    0    0  0.70481303858E+01 -0.10395476229E+02 -0.15202238961E+02  0.19719566675E+02  0.10570000000E+00 0. -1.
         13    1    1    2    0    0 -0.70481303858E+01  0.10395476229E+02 -0.32367483222E+00  0.12564155596E+02  0.10570000000E+00 0.  1.
<mgrwt>
<rscale>  0 0.28305207E+02</rscale>
<asrwt>0</asrwt>
<pdfrwt beam="2">  1        2 0.36776643E-02 0.28305207E+02</pdfrwt>
<pdfrwt beam="1">  1       -2 0.12890622E-02 0.28305207E+02</pdfrwt>
<totfact> 0.18921842E+06</totfact>
</mgrwt>
</event>
<event>
 4    1  0.3704929E-001  0.3291010E+02  0.7818608E-02  0.1567983E+00
         -2   -1    0    0    0  501 -0.00000000000E+00  0.00000000000E+00  0.15701275924E+02  0.15701276140E+02  0.26000000000E-02 0. -1.
          2   -1    0    0  501    0  0.00000000000E+00 -0.00000000000E+00 -0.17245013915E+02  0.17245014111E+02  0.26000000000E-02 0.  1.
        -13    1    1    2    0    0 -0.78218395579E+01  0.69810934512E+01  0.11924375315E+02  0.15878247353E+02  0.10570000000E+00 0. -1.
         13    1    1    2    0    0  0.78218395579E+01 -0.69810934512E+01 -0.13468113306E+02  0.17068042898E+02  0.10570000000E+00 0.  1.
<mgrwt>
<rscale>  0 0.32910104E+02</rscale>
<asrwt>0</asrwt>
<pdfrwt beam="2">  1        2 0.26530791E-02 0.32910104E+02</pdfrwt>
<pdfrwt beam="1">  1       -2 0.24155810E-02 0.32910104E+02</pdfrwt>
<totfact> 0.12650908E+06</totfact>
</mgrwt>
</event>
<event>
 4    1  0.3704929E-001  0.2635212E+02  0.7818608E-02  0.1642307E+00
          2   -1    0    0  501    0  0.00000000000E+00  0.00000000000E+00  0.49620132677E+02  0.49620132745E+02  0.26000000000E-02 0. -1.
         -2   -1    0    0    0  501 -0.00000000000E+00 -0.00000000000E+00 -0.34987515721E+01  0.34987525382E+01  0.26000000000E-02 0.  1.
        -13    1    1    2    0    0  0.96684517994E+01  0.76643745820E+01  0.32380227532E+02  0.34651290097E+02  0.10570000000E+00 0. -1.
         13    1    1    2    0    0 -0.96684517994E+01 -0.76643745820E+01  0.13741153573E+02  0.18467595186E+02  0.10570000000E+00 0.  1.
<mgrwt>
<rscale>  0 0.26352119E+02</rscale>
<asrwt>0</asrwt>
<pdfrwt beam="1">  1        2 0.76338660E-02 0.26352119E+02</pdfrwt>
<pdfrwt beam="2">  1       -2 0.53826960E-03 0.26352119E+02</pdfrwt>
<totfact> 0.24655544E+06</totfact>
</mgrwt>
</event>
<event>
 4    1  0.3704929E-001  0.3187111E+02  0.7818608E-02  0.1578282E+00
         -2   -1    0    0    0  501 -0.00000000000E+00  0.00000000000E+00  0.22619356794E+02  0.22619356943E+02  0.26000000000E-02 0.  1.
          2   -1    0    0  501    0  0.00000000000E+00 -0.00000000000E+00 -0.11226754613E+02  0.11226754914E+02  0.26000000000E-02 0. -1.
        -13    1    1    2    0    0  0.90448223238E+01  0.11832789210E+02 -0.32114251326E+00  0.14897584246E+02  0.10570000000E+00 0. -1.
         13    1    1    2    0    0 -0.90448223238E+01 -0.11832789210E+02  0.11713744694E+02  0.18948527611E+02  0.10570000000E+00 0.  1.
<mgrwt>
<rscale>  0 0.31871114E+02</rscale>
<asrwt>0</asrwt>
<pdfrwt beam="2">  1        2 0.17271931E-02 0.31871114E+02</pdfrwt>
<pdfrwt beam="1">  1       -2 0.34799010E-02 0.31871114E+02</pdfrwt>
<totfact> 0.13073652E+06</totfact>
</mgrwt>
</event>
<event>
 4    1  0.3704929E-001  0.2064587E+02  0.7818608E-02  0.1732781E+00
         -2   -1    0    0    0  501 -0.00000000000E+00  0.00000000000E+00  0.60905049809E+01  0.60905055359E+01  0.26000000000E-02 0.  1.
          2   -1    0    0  501    0  0.00000000000E+00 -0.00000000000E+00 -0.17496571047E+02  0.17496571240E+02  0.26000000000E-02 0. -1.
        -13    1    1    2    0    0 -0.55015377833E+01 -0.87083193368E+01 -0.64694574555E+01  0.12164160304E+02  0.10570000000E+00 0. -1.
         13    1    1    2    0    0  0.55015377833E+01  0.87083193368E+01 -0.49366086103E+01  0.11422916471E+02  0.10570000000E+00 0.  1.
<mgrwt>
<rscale>  0 0.20645868E+02</rscale>
<asrwt>0</asrwt>
<pdfrwt beam="2">  1        2 0.26917802E-02 0.20645868E+02</pdfrwt>
<pdfrwt beam="1">  1       -2 0.93700083E-03 0.20645868E+02</pdfrwt>
<totfact> 0.38335968E+06</totfact>
</mgrwt>
</event>
<event>
 4    1  0.3704929E-001  0.2427994E+02  0.7818608E-02  0.1671565E+00
         -2   -1    0    0    0  501 -0.00000000000E+00  0.00000000000E+00  0.28918306134E+02  0.28918306250E+02  0.26000000000E-02 0. -1.
          2   -1    0    0  501    0  0.00000000000E+00 -0.00000000000E+00 -0.50963867205E+01  0.50963873837E+01  0.26000000000E-02 0.  1.
        -13    1    1    2    0    0  0.11868222778E+02  0.14200092113E+01  0.89402527648E+01  0.14926835902E+02  0.10570000000E+00 0. -1.
         13    1    1    2    0    0 -0.11868222778E+02 -0.14200092113E+01  0.14881666648E+02  0.19087857732E+02  0.10570000000E+00 0.  1.
<mgrwt>
<rscale>  0 0.24279941E+02</rscale>
<asrwt>0</asrwt>
<pdfrwt beam="2">  1        2 0.78405956E-03 0.24279941E+02</pdfrwt>
<pdfrwt beam="1">  1       -2 0.44489702E-02 0.24279941E+02</pdfrwt>
<totfact> 0.23582396E+06</totfact>
</mgrwt>
</event>
<event>
 4    1  0.3704929E-001  0.4354257E+02  0.7818608E-02  0.1483651E+00
          2   -1    0    0  501    0  0.00000000000E+00  0.00000000000E+00  0.68185813034E+02  0.68185813084E+02  0.26000000000E-02 0.  1.
         -2   -1    0    0    0  501 -0.00000000000E+00 -0.00000000000E+00 -0.69514289900E+01  0.69514294762E+01  0.26000000000E-02 0. -1.
        -13    1    1    2    0    0 -0.18456419914E+02  0.10868328620E+02  0.37348747727E+02  0.43054618014E+02  0.10570000000E+00 0.  1.
         13    1    1    2    0    0  0.18456419914E+02 -0.10868328620E+02  0.23885636317E+02  0.32082624546E+02  0.10570000000E+00 0. -1.
<mgrwt>
<rscale>  0 0.43542570E+02</rscale>
<asrwt>0</asrwt>
<pdfrwt beam="1">  1        2 0.10490126E-01 0.43542570E+02</pdfrwt>
<pdfrwt beam="2">  1       -2 0.10694506E-02 0.43542570E+02</pdfrwt>
<totfact> 0.77516505E+05</totfact>
</mgrwt>
</event>
<event>
 4    1  0.3704929E-001  0.2569735E+02  0.7818608E-02  0.1651183E+00
          2   -1    0    0  501    0  0.00000000000E+00  0.00000000000E+00  0.75886924791E+02  0.75886924836E+02  0.26000000000E-02 0. -1.
         -2   -1    0    0    0  501 -0.00000000000E+00 -0.00000000000E+00 -0.21754518663E+01  0.21754534200E+01  0.26000000000E-02 0.  1.
        -13    1    1    2    0    0 -0.11078191884E+02 -0.47965036236E+01  0.23494957298E+02  0.26415089880E+02  0.10570000000E+00 0.  1.
         13    1    1    2    0    0  0.11078191884E+02  0.47965036236E+01  0.50216515626E+02  0.51647288376E+02  0.10570000000E+00 0. -1.
<mgrwt>
<rscale>  0 0.25697347E+02</rscale>
<asrwt>0</asrwt>
<pdfrwt beam="1">  1        2 0.11674911E-01 0.25697347E+02</pdfrwt>
<pdfrwt beam="2">  1       -2 0.33468503E-03 0.25697347E+02</pdfrwt>
<totfact> 0.28218148E+06</totfact>
</mgrwt>
</event>
<event>
 4    1  0.3704929E-001  0.1313951E+03  0.7818608E-02  0.1225400E+00
          2   -1    0    0  501    0  0.00000000000E+00  0.00000000000E+00  0.33243800804E+03  0.33243800805E+03  0.26000000000E-02 0.  1.
         -2   -1    0    0    0  501 -0.00000000000E+00 -0.00000000000E+00 -0.12983376861E+02  0.12983377121E+02  0.26000000000E-02 0. -1.
        -13    1    1    2    0    0 -0.27256807181E+02  0.55518956022E+02  0.21797152712E+03  0.22657644587E+03  0.10570000000E+00 0. -1.
         13    1    1    2    0    0  0.27256807181E+02 -0.55518956022E+02  0.10148310406E+03  0.11884493930E+03  0.10570000000E+00 0.  1.
<mgrwt>
<rscale>  0 0.13139510E+03</rscale>
<asrwt>0</asrwt>
<pdfrwt beam="1">  1        2 0.51144314E-01 0.13139510E+03</pdfrwt>
<pdfrwt beam="2">  1       -2 0.19974424E-02 0.13139510E+03</pdfrwt>
<totfact> 0.69104183E+04</totfact>
</mgrwt>
</event>
<event>
 4    1  0.3704929E-001  0.3797149E+02  0.7818608E-02  0.1523693E+00
         -2   -1    0    0    0  501 -0.00000000000E+00  0.00000000000E+00  0.83642754733E+01  0.83642758774E+01  0.26000000000E-02 0.  1.
          2   -1    0    0  501    0  0.00000000000E+00 -0.00000000000E+00 -0.43095012511E+02  0.43095012589E+02  0.26000000000E-02 0. -1.
        -13    1    1    2    0    0  0.17102855938E+02 -0.78120994601E+01 -0.20927999145E+02  0.28134123408E+02  0.10570000000E+00 0. -1.
         13    1    1    2    0    0 -0.17102855938E+02  0.78120994601E+01 -0.13802737893E+02  0.23325165059E+02  0.10570000000E+00 0.  1.
<mgrwt>
<rscale>  0 0.37971493E+02</rscale>
<asrwt>0</asrwt>
<pdfrwt beam="2">  1        2 0.66300019E-02 0.37971493E+02</pdfrwt>
<pdfrwt beam="1">  1       -2 0.12868117E-02 0.37971493E+02</pdfrwt>
<totfact> 0.10013033E+06</totfact>
</mgrwt>
</event>
<event>
 4    1  0.3704929E-001  0.1933792E+03  0.7818608E-02  0.1155448E+00
         -2   -1    0    0    0  501 -0.00000000000E+00  0.00000000000E+00  0.50464029960E+03  0.50464029961E+03  0.26000000000E-02 0.  1.
          2   -1    0    0  501    0  0.00000000000E+00 -0.00000000000E+00 -0.18525833182E+02  0.18525833365E+02  0.26000000000E-02 0. -1.
        -13    1    1    2    0    0  0.26946680072E+02  0.92858748770E+02  0.24308352480E+03  0.26160749606E+03  0.10570000000E+00 0.  1.
         13    1    1    2    0    0 -0.26946680072E+02 -0.92858748770E+02  0.24303094162E+03  0.26155863692E+03  0.10570000000E+00 0. -1.
<mgrwt>
<rscale>  0 0.19337923E+03</rscale>
<asrwt>0</asrwt>
<pdfrwt beam="2">  1        2 0.28501283E-02 0.19337923E+03</pdfrwt>
<pdfrwt beam="1">  1       -2 0.77636967E-01 0.19337923E+03</pdfrwt>
<totfact> 0.49826934E+03</totfact>
</mgrwt>
</event>
<event>
 4    1  0.3704929E-001  0.2749386E+02  0.7818608E-02  0.1627566E+00
          2   -1    0    0  501    0  0.00000000000E+00  0.00000000000E+00  0.19811873931E+02  0.19811874102E+02  0.26000000000E-02 0.  1.
         -2   -1    0    0    0  501 -0.00000000000E+00 -0.00000000000E+00 -0.95386286125E+01  0.95386289669E+01  0.26000000000E-02 0. -1.
        -13    1    1    2    0    0 -0.10012909726E+02  0.85399724684E+01  0.89630660186E+00  0.13191058675E+02  0.10570000000E+00 0.  1.
         13    1    1    2    0    0  0.10012909726E+02 -0.85399724684E+01  0.93769387170E+01  0.16159444394E+02  0.10570000000E+00 0. -1.
<mgrwt>
<rscale>  0 0.27493862E+02</rscale>
<asrwt>0</asrwt>
<pdfrwt beam="1">  1        2 0.30479806E-02 0.27493862E+02</pdfrwt>
<pdfrwt beam="2">  1       -2 0.14674814E-02 0.27493862E+02</pdfrwt>
<totfact> 0.19883166E+06</totfact>
</mgrwt>
</event>
<event>
 4    1  0.3704929E-001  0.3312158E+02  0.7818608E-02  0.1565943E+00
          2   -1    0    0  501    0  0.00000000000E+00  0.00000000000E+00  0.52604406530E+02  0.52604406594E+02  0.26000000000E-02 0.  1.
         -2   -1    0    0    0  501 -0.00000000000E+00 -0.00000000000E+00 -0.52136279528E+01  0.52136286011E+01  0.26000000000E-02 0. -1.
        -13    1    1    2    0    0  0.42797491425E+01 -0.12365714884E+02  0.41413448979E+02  0.43431694488E+02  0.10570000000E+00 0.  1.
         13    1    1    2    0    0 -0.42797491425E+01  0.12365714884E+02  0.59773295982E+01  0.14386340707E+02  0.10570000000E+00 0. -1.
<mgrwt>
<rscale>  0 0.33121584E+02</rscale>
<asrwt>0</asrwt>
<pdfrwt beam="1">  1        2 0.80929856E-02 0.33121584E+02</pdfrwt>
<pdfrwt beam="2">  1       -2 0.80209667E-03 0.33121584E+02</pdfrwt>
<totfact> 0.14459688E+06</totfact>
</mgrwt>
</event>
<event>
 4    1  0.3704929E-001  0.2649630E+02  0.7818608E-02  0.1640396E+00
          2   -1    0    0  501    0  0.00000000000E+00  0.00000000000E+00  0.31109980063E+01  0.31109990928E+01  0.26000000000E-02 0. -1.
         -2   -1    0    0    0  501 -0.00000000000E+00 -0.00000000000E+00 -0.56417078928E+02  0.56417078988E+02  0.26000000000E-02 0.  1.
        -13    1    1    2    0    0 -0.72466197999E+01  0.11088305965E+02 -0.27092455681E+02  0.30157525678E+02  0.10570000000E+00 0. -1.
         13    1    1    2    0    0  0.72466197999E+01 -0.11088305965E+02 -0.26213625241E+02  0.29370552403E+02  0.10570000000E+00 0.  1.
<mgrwt>
<rscale>  0 0.26496298E+02</rscale>
<asrwt>0</asrwt>
<pdfrwt beam="1">  1        2 0.47861521E-03 0.26496298E+02</pdfrwt>
<pdfrwt beam="2">  1       -2 0.86795499E-02 0.26496298E+02</pdfrwt>
<totfact> 0.17762744E+06</totfact>
</mgrwt>
</event>
<event>
 4    1  0.3704929E-001  0.2946328E+02  0.7818608E-02  0.1604098E+00
          2   -1    0    0  501    0  0.00000000000E+00  0.00000000000E+00  0.14518031505E+02  0.14518031738E+02  0.26000000000E-02 0.  1.
         -2   -1    0    0    0  501 -0.00000000000E+00 -0.00000000000E+00 -0.14948394625E+02  0.14948394851E+02  0.26000000000E-02 0. -1.
        -13    1    1    2    0    0 -0.11542241206E+00  0.12435755126E+02 -0.81121476288E+01  0.14848550081E+02  0.10570000000E+00 0. -1.
         13    1    1    2    0    0  0.11542241206E+00 -0.12435755126E+02  0.76817845085E+01  0.14617876508E+02  0.10570000000E+00 0.  1.
<mgrwt>
<rscale>  0 0.29463284E+02</rscale>
<asrwt>0</asrwt>
<pdfrwt beam="1">  1        2 0.22335433E-02 0.29463284E+02</pdfrwt>
<pdfrwt beam="2">  1       -2 0.22997531E-02 0.29463284E+02</pdfrwt>
<totfact> 0.16308792E+06</totfact>
</mgrwt>
</event>
<event>
 4    1  0.3704929E-001  0.2385428E+02  0.7818608E-02  0.1678025E+00
          2   -1    0    0  501    0  0.00000000000E+00  0.00000000000E+00  0.30269753289E+02  0.30269753401E+02  0.26000000000E-02 0.  1.
         -2   -1    0    0    0  501 -0.00000000000E+00 -0.00000000000E+00 -0.46996322523E+01  0.46996329715E+01  0.26000000000E-02 0. -1.
        -13    1    1    2    0    0 -0.11363968909E+02  0.28957353381E+01  0.15970098538E+02  0.19813639047E+02  0.10570000000E+00 0. -1.
         13    1    1    2    0    0  0.11363968909E+02 -0.28957353381E+01  0.96000224994E+01  0.15155747325E+02  0.10570000000E+00 0.  1.
<mgrwt>
<rscale>  0 0.23854285E+02</rscale>
<asrwt>0</asrwt>
<pdfrwt beam="1">  1        2 0.46568852E-02 0.23854285E+02</pdfrwt>
<pdfrwt beam="2">  1       -2 0.72302041E-03 0.23854285E+02</pdfrwt>
<totfact> 0.29058172E+06</totfact>
</mgrwt>
</event>
<event>
 4    1  0.3704929E-001  0.3035937E+02  0.7818608E-02  0.1594150E+00
         -2   -1    0    0    0  501 -0.00000000000E+00  0.00000000000E+00  0.27831325421E+02  0.27831325542E+02  0.26000000000E-02 0. -1.
          2   -1    0    0  501    0  0.00000000000E+00 -0.00000000000E+00 -0.82792595498E+01  0.82792599580E+01  0.26000000000E-02 0.  1.
        -13    1    1    2    0    0 -0.12426585119E+02 -0.28954600876E+01 -0.40051394218E-02  0.12759894018E+02  0.10570000000E+00 0.  1.
         13    1    1    2    0    0  0.12426585119E+02  0.28954600876E+01  0.19556071010E+02  0.23350691482E+02  0.10570000000E+00 0. -1.
<mgrwt>
<rscale>  0 0.30359366E+02</rscale>
<asrwt>0</asrwt>
<pdfrwt beam="2">  1        2 0.12737323E-02 0.30359366E+02</pdfrwt>
<pdfrwt beam="1">  1       -2 0.42817424E-02 0.30359366E+02</pdfrwt>
<totfact> 0.14278990E+06</totfact>
</mgrwt>
</event>
<event>
 4    1  0.3704929E-001  0.8103386E+02  0.7818608E-02  0.1326143E+00
         -2   -1    0    0    0  501 -0.00000000000E+00  0.00000000000E+00  0.84905033763E+02  0.84905033802E+02  0.26000000000E-02 0.  1.
          2   -1    0    0  501    0  0.00000000000E+00 -0.00000000000E+00 -0.19334798715E+02  0.19334798890E+02  0.26000000000E-02 0. -1.
        -13    1    1    2    0    0  0.37004803614E+02  0.23606755437E+01  0.53792128138E+02  0.65334007237E+02  0.10570000000E+00 0.  1.
         13    1    1    2    0    0 -0.37004803614E+02 -0.23606755437E+01  0.11778106909E+02  0.38905825456E+02  0.10570000000E+00 0. -1.
<mgrwt>
<rscale>  0 0.81033863E+02</rscale>
<asrwt>0</asrwt>
<pdfrwt beam="2">  1        2 0.29745844E-02 0.81033863E+02</pdfrwt>
<pdfrwt beam="1">  1       -2 0.13062313E-01 0.81033863E+02</pdfrwt>
<totfact> 0.11195553E+05</totfact>
</mgrwt>
</event>
<event>
 4    1  0.3704929E-001  0.2380960E+02  0.7818608E-02  0.1678713E+00
         -2   -1    0    0    0  501 -0.00000000000E+00  0.00000000000E+00  0.12829207459E+03  0.12829207462E+03  0.26000000000E-02 0.  1.
          2   -1    0    0  501    0  0.00000000000E+00 -0.00000000000E+00 -0.11046985947E+01  0.11047016544E+01  0.26000000000E-02 0. -1.
        -13    1    1    2    0    0  0.10375360936E+02  0.57794137937E+01  0.59167324527E+02  0.60347603121E+02  0.10570000000E+00 0.  1.
         13    1    1    2    0    0 -0.10375360936E+02 -0.57794137937E+01  0.68020051472E+02  0.69049173153E+02  0.10570000000E+00 0. -1.
<mgrwt>
<rscale>  0 0.23809601E+02</rscale>
<asrwt>0</asrwt>
<pdfrwt beam="2">  1        2 0.16995383E-03 0.23809601E+02</pdfrwt>
<pdfrwt beam="1">  1       -2 0.19737247E-01 0.23809601E+02</pdfrwt>
<totfact> 0.18907990E+06</totfact>
</mgrwt>
</event>
<event>
 4    1  0.3704929E-001  0.2982096E+02  0.7818608E-02  0.1600076E+00
          2   -1    0    0  501    0  0.00000000000E+00  0.00000000000E+00  0.16298761743E+02  0.16298761950E+02  0.26000000000E-02 0. -1.
         -2   -1    0    0    0  501 -0.00000000000E+00 -0.00000000000E+00 -0.13640450788E+02  0.13640451036E+02  0.26000000000E-02 0.  1.
        -13    1    1    2    0    0 -0.10043508587E+02 -0.10975597415E+02  0.23207400705E+01  0.15057649562E+02  0.10570000000E+00 0.  1.
         13    1    1    2    0    0  0.10043508587E+02  0.10975597415E+02  0.33757088424E+00  0.14881563424E+02  0.10570000000E+00 0. -1.
<mgrwt>
<rscale>  0 0.29820963E+02</rscale>
<asrwt>0</asrwt>
<pdfrwt beam="1">  1        2 0.25075018E-02 0.29820963E+02</pdfrwt>
<pdfrwt beam="2">  1       -2 0.20985309E-02 0.29820963E+02</pdfrwt>
<totfact> 0.16022948E+06</totfact>
</mgrwt>
</event>
<event>
 4    1  0.3704929E-001  0.5028966E+02  0.7818608E-02  0.1443785E+00
          2   -1    0    0  501    0  0.00000000000E+00  0.00000000000E+00  0.35421295453E+02  0.35421295548E+02  0.26000000000E-02 0. -1.
         -2   -1    0    0    0  501 -0.00000000000E+00 -0.00000000000E+00 -0.17849783443E+02  0.17849783633E+02  0.26000000000E-02 0.  1.
        -13    1    1    2    0    0 -0.21442757704E+02 -0.13042187324E+02  0.71581826802E+01  0.26098683107E+02  0.10570000000E+00 0. -1.
         13    1    1    2    0    0  0.21442757704E+02  0.13042187324E+02  0.10413329329E+02  0.27172396073E+02  0.10570000000E+00 0.  1.
<mgrwt>
<rscale>  0 0.50289659E+02</rscale>
<asrwt>0</asrwt>
<pdfrwt beam="1">  1        2 0.54494301E-02 0.50289659E+02</pdfrwt>
<pdfrwt beam="2">  1       -2 0.27461206E-02 0.50289659E+02</pdfrwt>
<totfact> 0.47524807E+05</totfact>
</mgrwt>
</event>
<event>
 4    1  0.3704929E-001  0.3675702E+02  0.7818608E-02  0.1533529E+00
          2   -1    0    0  501    0  0.00000000000E+00  0.00000000000E+00  0.16812496548E+02  0.16812496749E+02  0.26000000000E-02 0.  1.
         -2   -1    0    0    0  501 -0.00000000000E+00 -0.00000000000E+00 -0.20090394767E+02  0.20090394935E+02  0.26000000000E-02 0. -1.
        -13    1    1    2    0    0  0.16430789148E+02  0.80779478717E+01 -0.40634776181E-01  0.18309475621E+02  0.10570000000E+00 0. -1.
         13    1    1    2    0    0 -0.16430789148E+02 -0.80779478717E+01 -0.32372634432E+01  0.18593416064E+02  0.10570000000E+00 0.  1.
<mgrwt>
<rscale>  0 0.36757024E+02</rscale>
<asrwt>0</asrwt>
<pdfrwt beam="1">  1        2 0.25865380E-02 0.36757024E+02</pdfrwt>
<pdfrwt beam="2">  1       -2 0.30908300E-02 0.36757024E+02</pdfrwt>
<totfact> 0.95639641E+05</totfact>
</mgrwt>
</event>
<event>
 4    1  0.3704929E-001  0.2772076E+02  0.7818608E-02  0.1624741E+00
          2   -1    0    0  501    0  0.00000000000E+00  0.00000000000E+00  0.53521511464E+01  0.53521517779E+01  0.26000000000E-02 0.  1.
         -2   -1    0    0    0  501 -0.00000000000E+00 -0.00000000000E+00 -0.35894009091E+02  0.35894009185E+02  0.26000000000E-02 0. -1.
        -13    1    1    2    0    0  0.10279563583E+01 -0.13667136873E+02 -0.18338952077E+02  0.22894882842E+02  0.10570000000E+00 0. -1.
         13    1    1    2    0    0 -0.10279563583E+01  0.13667136873E+02 -0.12202905868E+02  0.18351278121E+02  0.10570000000E+00 0.  1.
<mgrwt>
<rscale>  0 0.27720763E+02</rscale>
<asrwt>0</asrwt>
<pdfrwt beam="1">  1        2 0.82340795E-03 0.27720763E+02</pdfrwt>
<pdfrwt beam="2">  1       -2 0.55221551E-02 0.27720763E+02</pdfrwt>
<totfact> 0.17060393E+06</totfact>
</mgrwt>
</event>
<event>
 4    1  0.3704929E-001  0.4408560E+02  0.7818608E-02  0.1480132E+00
         -2   -1    0    0    0  501 -0.00000000000E+00  0.00000000000E+00  0.38314253809E+01  0.38314262631E+01  0.26000000000E-02 0.  1.
          2   -1    0    0  501    0  0.00000000000E+00 -0.00000000000E+00 -0.12681573533E+03  0.12681573536E+03  0.26000000000E-02 0. -1.
        -13    1    1    2    0    0  0.11919651969E+02 -0.13777292875E+02 -0.98265928198E+02  0.99940460871E+02  0.10570000000E+00 0. -1.
         13    1    1    2    0    0 -0.11919651969E+02  0.13777292875E+02 -0.24718381755E+02  0.30706700753E+02  0.10570000000E+00 0.  1.
<mgrwt>
<rscale>  0 0.44085602E+02</rscale>
<asrwt>0</asrwt>
<pdfrwt beam="2">  1        2 0.19510110E-01 0.44085602E+02</pdfrwt>
<pdfrwt beam="1">  1       -2 0.58945023E-03 0.44085602E+02</pdfrwt>
<totfact> 0.87545686E+05</totfact>
</mgrwt>
</event>
<event>
 4    1  0.3704929E-001  0.2240596E+02  0.7818608E-02  0.1701324E+00
         -2   -1    0    0    0  501 -0.00000000000E+00  0.00000000000E+00  0.62618970576E+02  0.62618970630E+02  0.26000000000E-02 0. -1.
          2   -1    0    0  501    0  0.00000000000E+00 -0.00000000000E+00 -0.20042923482E+01  0.20042940346E+01  0.26000000000E-02 0.  1.
        -13    1    1    2    0    0  0.32761568698E+01  0.10308591167E+02  0.38713853973E+02  0.40196690382E+02  0.10570000000E+00 0. -1.
         13    1    1    2    0    0 -0.32761568698E+01 -0.10308591167E+02  0.21900824254E+02  0.24426574282E+02  0.10570000000E+00 0.  1.
<mgrwt>
<rscale>  0 0.22405962E+02</rscale>
<asrwt>0</asrwt>
<pdfrwt beam="2">  1        2 0.30835284E-03 0.22405962E+02</pdfrwt>
<pdfrwt beam="1">  1       -2 0.96336868E-02 0.22405962E+02</pdfrwt>
<totfact> 0.25470824E+06</totfact>
</mgrwt>
</event>
<event>
 4    1  0.3704929E-001  0.3339085E+02  0.7818608E-02  0.1563373E+00
         -2   -1    0    0    0  501 -0.00000000000E+00  0.00000000000E+00  0.30681529379E+01  0.30681540396E+01  0.26000000000E-02 0. -1.
          2   -1    0    0  501    0  0.00000000000E+00 -0.00000000000E+00 -0.90848523822E+02  0.90848523859E+02  0.26000000000E-02 0.  1.
        -13    1    1    2    0    0 -0.15220517928E+02  0.68271771867E+01 -0.42000195562E+02  0.45191836808E+02  0.10570000000E+00 0.  1.
         13    1    1    2    0    0  0.15220517928E+02 -0.68271771867E+01 -0.45780175322E+02  0.48724841091E+02  0.10570000000E+00 0. -1.
<mgrwt>
<rscale>  0 0.33390850E+02</rscale>
<asrwt>0</asrwt>
<pdfrwt beam="2">  1        2 0.13976694E-01 0.33390850E+02</pdfrwt>
<pdfrwt beam="1">  1       -2 0.47202369E-03 0.33390850E+02</pdfrwt>
<totfact> 0.15830498E+06</totfact>
</mgrwt>
</event>
<event>
 4    1  0.3704929E-001  0.2767735E+02  0.7818608E-02  0.1625279E+00
         -2   -1    0    0    0  501 -0.00000000000E+00  0.00000000000E+00  0.62093715829E+02  0.62093715883E+02  0.26000000000E-02 0. -1.
          2   -1    0    0  501    0  0.00000000000E+00 -0.00000000000E+00 -0.30841909957E+01  0.30841920916E+01  0.26000000000E-02 0.  1.
        -13    1    1    2    0    0 -0.11299071065E+02 -0.52338535013E+01  0.43719484614E+02  0.45458406668E+02  0.10570000000E+00 0. -1.
         13    1    1    2    0    0  0.11299071065E+02  0.52338535013E+01  0.15290040220E+02  0.19719501307E+02  0.10570000000E+00 0.  1.
<mgrwt>
<rscale>  0 0.27677349E+02</rscale>
<asrwt>0</asrwt>
<pdfrwt beam="2">  1        2 0.47449104E-03 0.27677349E+02</pdfrwt>
<pdfrwt beam="1">  1       -2 0.95528789E-02 0.27677349E+02</pdfrwt>
<totfact> 0.15827429E+06</totfact>
</mgrwt>
</event>
<event>
 4    1  0.3704929E-001  0.2203516E+02  0.7818608E-02  0.1707645E+00
          2   -1    0    0  501    0  0.00000000000E+00  0.00000000000E+00  0.17385306139E+01  0.17385325581E+01  0.26000000000E-02 0. -1.
         -2   -1    0    0    0  501 -0.00000000000E+00 -0.00000000000E+00 -0.69821595754E+02  0.69821595803E+02  0.26000000000E-02 0.  1.
        -13    1    1    2    0    0 -0.52083429009E+01 -0.89816758142E+01 -0.46008429171E+02  0.47165496536E+02  0.10570000000E+00 0.  1.
         13    1    1    2    0    0  0.52083429009E+01  0.89816758142E+01 -0.22074635970E+02  0.24394631825E+02  0.10570000000E+00 0. -1.
<mgrwt>
<rscale>  0 0.22035159E+02</rscale>
<asrwt>0</asrwt>
<pdfrwt beam="1">  1        2 0.26746646E-03 0.22035159E+02</pdfrwt>
<pdfrwt beam="2">  1       -2 0.10741782E-01 0.22035159E+02</pdfrwt>
<totfact> 0.25928340E+06</totfact>
</mgrwt>
</event>
<event>
 4    1  0.3704929E-001  0.7659569E+02  0.7818608E-02  0.1339000E+00
         -2   -1    0    0    0  501 -0.00000000000E+00  0.00000000000E+00  0.16479528436E+02  0.16479528641E+02  0.26000000000E-02 0.  1.
          2   -1    0    0  501    0  0.00000000000E+00 -0.00000000000E+00 -0.89002855633E+02  0.89002855671E+02  0.26000000000E-02 0. -1.
        -13    1    1    2    0    0  0.17650850767E+02  0.10321854880E+02 -0.80856522594E+02  0.83401928271E+02  0.10570000000E+00 0. -1.
         13    1    1    2    0    0 -0.17650850767E+02 -0.10321854880E+02  0.83331953961E+01  0.22080456041E+02  0.10570000000E+00 0.  1.
<mgrwt>
<rscale>  0 0.76595694E+02</rscale>
<asrwt>0</asrwt>
<pdfrwt beam="2">  1        2 0.13692747E-01 0.76595694E+02</pdfrwt>
<pdfrwt beam="1">  1       -2 0.25353121E-02 0.76595694E+02</pdfrwt>
<totfact> 0.19061118E+05</totfact>
</mgrwt>
</event>
<event>
 4    1  0.3704929E-001  0.3852622E+02  0.7818608E-02  0.1519346E+00
         -2   -1    0    0    0  501 -0.00000000000E+00  0.00000000000E+00  0.10287455262E+02  0.10287455591E+02  0.26000000000E-02 0. -1.
          2   -1    0    0  501    0  0.00000000000E+00 -0.00000000000E+00 -0.36069887894E+02  0.36069887988E+02  0.26000000000E-02 0.  1.
        -13    1    1    2    0    0 -0.93305351863E+01  0.90160555830E+01 -0.30022805926E+02  0.32706699517E+02  0.10570000000E+00 0.  1.
         13    1    1    2    0    0  0.93305351863E+01 -0.90160555830E+01  0.42403732941E+01  0.13650644062E+02  0.10570000000E+00 0. -1.
<mgrwt>
<rscale>  0 0.38526218E+02</rscale>
<asrwt>0</asrwt>
<pdfrwt beam="2">  1        2 0.55492135E-02 0.38526218E+02</pdfrwt>
<pdfrwt beam="1">  1       -2 0.15826855E-02 0.38526218E+02</pdfrwt>
<totfact> 0.93956489E+05</totfact>
</mgrwt>
</event>
<event>
 4    1  0.3704929E-001  0.2525559E+02  0.7818608E-02  0.1657358E+00
         -2   -1    0    0    0  501 -0.00000000000E+00  0.00000000000E+00  0.39958638785E+01  0.39958647244E+01  0.26000000000E-02 0.  1.
          2   -1    0    0  501    0  0.00000000000E+00 -0.00000000000E+00 -0.39906564382E+02  0.39906564467E+02  0.26000000000E-02 0. -1.
        -13    1    1    2    0    0  0.10004169554E+02 -0.74731851552E+01 -0.14694823919E+02  0.19284214460E+02  0.10570000000E+00 0. -1.
         13    1    1    2    0    0 -0.10004169554E+02  0.74731851552E+01 -0.21215876585E+02  0.24618214732E+02  0.10570000000E+00 0.  1.
<mgrwt>
<rscale>  0 0.25255591E+02</rscale>
<asrwt>0</asrwt>
<pdfrwt beam="2">  1        2 0.61394712E-02 0.25255591E+02</pdfrwt>
<pdfrwt beam="1">  1       -2 0.61474839E-03 0.25255591E+02</pdfrwt>
<totfact> 0.26359909E+06</totfact>
</mgrwt>
</event>
<event>
 4    1  0.3704929E-001  0.2290419E+02  0.7818608E-02  0.1693068E+00
         -2   -1    0    0    0  501 -0.00000000000E+00  0.00000000000E+00  0.26655140195E+01  0.26655152876E+01  0.26000000000E-02 0. -1.
          2   -1    0    0  501    0  0.00000000000E+00 -0.00000000000E+00 -0.49202673814E+02  0.49202673883E+02  0.26000000000E-02 0.  1.
        -13    1    1    2    0    0  0.50676923655E+01 -0.97193138769E+01 -0.15760332086E+02  0.19197546929E+02  0.10570000000E+00 0.  1.
         13    1    1    2    0    0 -0.50676923655E+01  0.97193138769E+01 -0.30776827709E+02  0.32670642242E+02  0.10570000000E+00 0. -1.
<mgrwt>
<rscale>  0 0.22904188E+02</rscale>
<asrwt>0</asrwt>
<pdfrwt beam="2">  1        2 0.75696416E-02 0.22904188E+02</pdfrwt>
<pdfrwt beam="1">  1       -2 0.41007922E-03 0.22904188E+02</pdfrwt>
<totfact> 0.34036849E+06</totfact>
</mgrwt>
</event>
<event>
 4    1  0.3704929E-001  0.2250963E+02  0.7818608E-02  0.1699584E+00
          2   -1    0    0  501    0  0.00000000000E+00  0.00000000000E+00  0.11566268491E+02  0.11566268783E+02  0.26000000000E-02 0.  1.
         -2   -1    0    0    0  501 -0.00000000000E+00 -0.00000000000E+00 -0.10951752242E+02  0.10951752550E+02  0.26000000000E-02 0. -1.
        -13    1    1    2    0    0  0.10442825345E+02 -0.18546744134E+01  0.40726109188E+01  0.11361767052E+02  0.10570000000E+00 0.  1.
         13    1    1    2    0    0 -0.10442825345E+02  0.18546744134E+01 -0.34580946692E+01  0.11156254282E+02  0.10570000000E+00 0. -1.
<mgrwt>
<rscale>  0 0.22509635E+02</rscale>
<asrwt>0</asrwt>
<pdfrwt beam="1">  1        2 0.17794260E-02 0.22509635E+02</pdfrwt>
<pdfrwt beam="2">  1       -2 0.16848850E-02 0.22509635E+02</pdfrwt>
<totfact> 0.30369956E+06</totfact>
</mgrwt>
</event>
<event>
 4    1  0.3704929E-001  0.2342605E+02  0.7818608E-02  0.1684696E+00
         -2   -1    0    0    0  501 -0.00000000000E+00  0.00000000000E+00  0.20810136733E+02  0.20810136895E+02  0.26000000000E-02 0. -1.
          2   -1    0    0  501    0  0.00000000000E+00 -0.00000000000E+00 -0.65926979659E+01  0.65926984786E+01  0.26000000000E-02 0.  1.
        -13    1    1    2    0    0 -0.56828807108E+01  0.99397490875E+01  0.42219876412E+01  0.12203691951E+02  0.10570000000E+00 0.  1.
         13    1    1    2    0    0  0.56828807108E+01 -0.99397490875E+01  0.99954511255E+01  0.15199143423E+02  0.10570000000E+00 0. -1.
<mgrwt>
<rscale>  0 0.23426050E+02</rscale>
<asrwt>0</asrwt>
<pdfrwt beam="2">  1        2 0.10142613E-02 0.23426050E+02</pdfrwt>
<pdfrwt beam="1">  1       -2 0.32015595E-02 0.23426050E+02</pdfrwt>
<totfact> 0.26366469E+06</totfact>
</mgrwt>
</event>
<event>
 4    1  0.3704929E-001  0.4252591E+02  0.7818608E-02  0.1490406E+00
         -2   -1    0    0    0  501 -0.00000000000E+00  0.00000000000E+00  0.33742130808E+01  0.33742140825E+01  0.26000000000E-02 0. -1.
          2   -1    0    0  501    0  0.00000000000E+00 -0.00000000000E+00 -0.13399070904E+03  0.13399070906E+03  0.26000000000E-02 0.  1.
        -13    1    1    2    0    0  0.21105237613E+02  0.18053752647E+01 -0.71274553894E+02  0.74355656408E+02  0.10570000000E+00 0. -1.
         13    1    1    2    0    0 -0.21105237613E+02 -0.18053752647E+01 -0.59341942064E+02  0.63009266739E+02  0.10570000000E+00 0.  1.
<mgrwt>
<rscale>  0 0.42525911E+02</rscale>
<asrwt>0</asrwt>
<pdfrwt beam="2">  1        2 0.20613951E-01 0.42525911E+02</pdfrwt>
<pdfrwt beam="1">  1       -2 0.51910989E-03 0.42525911E+02</pdfrwt>
<totfact> 0.97220034E+05</totfact>
</mgrwt>
</event>
<event>
 4    1  0.3704929E-001  0.2838776E+02  0.7818608E-02  0.1616626E+00
          2   -1    0    0  501    0  0.00000000000E+00  0.00000000000E+00  0.20999294847E+01  0.20999310943E+01  0.26000000000E-02 0. -1.
         -2   -1    0    0    0  501 -0.00000000000E+00 -0.00000000000E+00 -0.95939450926E+02  0.95939450961E+02  0.26000000000E-02 0.  1.
        -13    1    1    2    0    0 -0.12571420146E+02 -0.53490179168E+01 -0.33632499476E+02  0.36301636198E+02  0.10570000000E+00 0. -1.
         13    1    1    2    0    0  0.12571420146E+02  0.53490179168E+01 -0.60207021965E+02  0.61737745857E+02  0.10570000000E+00 0.  1.
<mgrwt>
<rscale>  0 0.28387755E+02</rscale>
<asrwt>0</asrwt>
<pdfrwt beam="1">  1        2 0.32306628E-03 0.28387755E+02</pdfrwt>
<pdfrwt beam="2">  1       -2 0.14759912E-01 0.28387755E+02</pdfrwt>
<totfact> 0.13686091E+06</totfact>
</mgrwt>
</event>
<event>
 4    1  0.3704929E-001  0.4164991E+02  0.7818608E-02  0.1496409E+00
         -2   -1    0    0    0  501 -0.00000000000E+00  0.00000000000E+00  0.22290772599E+02  0.22290772751E+02  0.26000000000E-02 0. -1.
          2   -1    0    0  501    0  0.00000000000E+00 -0.00000000000E+00 -0.19455527269E+02  0.19455527443E+02  0.26000000000E-02 0.  1.
        -13    1    1    2    0    0  0.93017984022E+01 -0.10611585202E+02 -0.13932465872E+02  0.19830632158E+02  0.10570000000E+00 0.  1.
         13    1    1    2    0    0 -0.93017984022E+01  0.10611585202E+02  0.16767711202E+02  0.21915668036E+02  0.10570000000E+00 0. -1.
<mgrwt>
<rscale>  0 0.41649910E+02</rscale>
<asrwt>0</asrwt>
<pdfrwt beam="2">  1        2 0.29931581E-02 0.41649910E+02</pdfrwt>
<pdfrwt beam="1">  1       -2 0.34293497E-02 0.41649910E+02</pdfrwt>
<totfact> 0.70809586E+05</totfact>
</mgrwt>
</event>
<event>
 4    1  0.3704929E-001  0.5649600E+02  0.7818608E-02  0.1413154E+00
         -2   -1    0    0    0  501 -0.00000000000E+00  0.00000000000E+00  0.31497701914E+02  0.31497702021E+02  0.26000000000E-02 0.  1.
          2   -1    0    0  501    0  0.00000000000E+00 -0.00000000000E+00 -0.25333580166E+02  0.25333580299E+02  0.26000000000E-02 0. -1.
        -13    1    1    2    0    0  0.15273237179E+02  0.55483434090E+01 -0.20160960562E+02  0.25894620904E+02  0.10570000000E+00 0. -1.
         13    1    1    2    0    0 -0.15273237179E+02 -0.55483434090E+01  0.26325082309E+02  0.30936661416E+02  0.10570000000E+00 0.  1.
<mgrwt>
<rscale>  0 0.56496002E+02</rscale>
<asrwt>0</asrwt>
<pdfrwt beam="2">  1        2 0.38974739E-02 0.56496002E+02</pdfrwt>
<pdfrwt beam="1">  1       -2 0.48458003E-02 0.56496002E+02</pdfrwt>
<totfact> 0.32988162E+05</totfact>
</mgrwt>
</event>
<event>
 4    1  0.3704929E-001  0.7051160E+02  0.7818608E-02  0.1358362E+00
          2   -1    0    0  501    0  0.00000000000E+00  0.00000000000E+00  0.17739081065E+03  0.17739081067E+03  0.26000000000E-02 0. -1.
         -2   -1    0    0    0  501 -0.00000000000E+00 -0.00000000000E+00 -0.70069665928E+01  0.70069670752E+01  0.26000000000E-02 0.  1.
        -13    1    1    2    0    0  0.23821650750E+02  0.15680140509E+02  0.13939682970E+03  0.14228431099E+03  0.10570000000E+00 0. -1.
         13    1    1    2    0    0 -0.23821650750E+02 -0.15680140509E+02  0.30987014357E+02  0.42113466755E+02  0.10570000000E+00 0.  1.
<mgrwt>
<rscale>  0 0.70511603E+02</rscale>
<asrwt>0</asrwt>
<pdfrwt beam="1">  1        2 0.27290893E-01 0.70511603E+02</pdfrwt>
<pdfrwt beam="2">  1       -2 0.10779949E-02 0.70511603E+02</pdfrwt>
<totfact> 0.29337937E+05</totfact>
</mgrwt>
</event>
<event>
 4    1  0.3704929E-001  0.2139068E+02  0.7818608E-02  0.1719008E+00
          2   -1    0    0  501    0  0.00000000000E+00  0.00000000000E+00  0.18787198211E+01  0.18787216202E+01  0.26000000000E-02 0.  1.
         -2   -1    0    0    0  501 -0.00000000000E+00 -0.00000000000E+00 -0.60887350765E+02  0.60887350821E+02  0.26000000000E-02 0. -1.
        -13    1    1    2    0    0 -0.65272511451E+01 -0.84242793262E+01 -0.26870541112E+02  0.28906930689E+02  0.10570000000E+00 0.  1.
         13    1    1    2    0    0  0.65272511451E+01  0.84242793262E+01 -0.32138089831E+02  0.33859141752E+02  0.10570000000E+00 0. -1.
<mgrwt>
<rscale>  0 0.21390683E+02</rscale>
<asrwt>0</asrwt>
<pdfrwt beam="1">  1        2 0.28903401E-03 0.21390683E+02</pdfrwt>
<pdfrwt beam="2">  1       -2 0.93672834E-02 0.21390683E+02</pdfrwt>
<totfact> 0.28362971E+06</totfact>
</mgrwt>
</event>
<event>
 4    1  0.3704929E-001  0.2903923E+02  0.7818608E-02  0.1608958E+00
          2   -1    0    0  501    0  0.00000000000E+00  0.00000000000E+00  0.33342861463E+02  0.33342861564E+02  0.26000000000E-02 0.  1.
         -2   -1    0    0    0  501 -0.00000000000E+00 -0.00000000000E+00 -0.63227691456E+01  0.63227696802E+01  0.26000000000E-02 0. -1.
        -13    1    1    2    0    0 -0.11833158124E+02 -0.42821101642E+01  0.23402261308E+02  0.26571358743E+02  0.10570000000E+00 0.  1.
         13    1    1    2    0    0  0.11833158124E+02  0.42821101642E+01  0.36178310099E+01  0.13094272502E+02  0.10570000000E+00 0. -1.
<mgrwt>
<rscale>  0 0.29039231E+02</rscale>
<asrwt>0</asrwt>
<pdfrwt beam="1">  1        2 0.51296710E-02 0.29039231E+02</pdfrwt>
<pdfrwt beam="2">  1       -2 0.97273377E-03 0.29039231E+02</pdfrwt>
<totfact> 0.18522642E+06</totfact>
</mgrwt>
</event>
<event>
 4    1  0.3704929E-001  0.2200573E+02  0.7818608E-02  0.1708153E+00
          2   -1    0    0  501    0  0.00000000000E+00  0.00000000000E+00  0.35099470327E+01  0.35099479957E+01  0.26000000000E-02 0.  1.
         -2   -1    0    0    0  501 -0.00000000000E+00 -0.00000000000E+00 -0.34491421800E+02  0.34491421898E+02  0.26000000000E-02 0. -1.
        -13    1    1    2    0    0  0.18801613017E+01 -0.10018940861E+02 -0.22639650572E+02  0.24828997825E+02  0.10570000000E+00 0. -1.
         13    1    1    2    0    0 -0.18801613017E+01  0.10018940861E+02 -0.83418241951E+01  0.13172372068E+02  0.10570000000E+00 0.  1.
<mgrwt>
<rscale>  0 0.22005734E+02</rscale>
<asrwt>0</asrwt>
<pdfrwt beam="1">  1        2 0.53999196E-03 0.22005734E+02</pdfrwt>
<pdfrwt beam="2">  1       -2 0.53063724E-02 0.22005734E+02</pdfrwt>
<totfact> 0.28794200E+06</totfact>
</mgrwt>
</event>
<event>
 4    1  0.3704929E-001  0.2215371E+02  0.7818608E-02  0.1705607E+00
          2   -1    0    0  501    0  0.00000000000E+00  0.00000000000E+00  0.65204163569E+01  0.65204168753E+01  0.26000000000E-02 0. -1.
         -2   -1    0    0    0  501 -0.00000000000E+00 -0.00000000000E+00 -0.18817308639E+02  0.18817308819E+02  0.26000000000E-02 0.  1.
        -13    1    1    2    0    0  0.32990876977E+01 -0.10303708654E+02 -0.34334248653E+01  0.11351210088E+02  0.10570000000E+00 0. -1.
         13    1    1    2    0    0 -0.32990876977E+01  0.10303708654E+02 -0.88634674172E+01  0.13986515606E+02  0.10570000000E+00 0.  1.
<mgrwt>
<rscale>  0 0.22153708E+02</rscale>
<asrwt>0</asrwt>
<pdfrwt beam="1">  1        2 0.10031410E-02 0.22153708E+02</pdfrwt>
<pdfrwt beam="2">  1       -2 0.28949706E-02 0.22153708E+02</pdfrwt>
<totfact> 0.30087969E+06</totfact>
</mgrwt>
</event>
<event>
 4    1  0.3704929E-001  0.4794393E+02  0.7818608E-02  0.1456758E+00
         -2   -1    0    0    0  501 -0.00000000000E+00  0.00000000000E+00  0.27232262442E+02  0.27232262566E+02  0.26000000000E-02 0.  1.
          2   -1    0    0  501    0  0.00000000000E+00 -0.00000000000E+00 -0.21101997894E+02  0.21101998054E+02  0.26000000000E-02 0. -1.
        -13    1    1    2    0    0  0.21455679315E+02 -0.35455938397E+01 -0.71029401102E+01  0.22877507321E+02  0.10570000000E+00 0. -1.
         13    1    1    2    0    0 -0.21455679315E+02  0.35455938397E+01  0.13233204658E+02  0.25456753300E+02  0.10570000000E+00 0.  1.
<mgrwt>
<rscale>  0 0.47943932E+02</rscale>
<asrwt>0</asrwt>
<pdfrwt beam="2">  1        2 0.32464613E-02 0.47943932E+02</pdfrwt>
<pdfrwt beam="1">  1       -2 0.41895788E-02 0.47943932E+02</pdfrwt>
<totfact> 0.49628086E+05</totfact>
</mgrwt>
</event>
<event>
 4    1  0.3704929E-001  0.6465449E+02  0.7818608E-02  0.1379276E+00
          2   -1    0    0  501    0  0.00000000000E+00  0.00000000000E+00  0.40389453606E+02  0.40389453690E+02  0.26000000000E-02 0. -1.
         -2   -1    0    0    0  501 -0.00000000000E+00 -0.00000000000E+00 -0.25874351435E+02  0.25874351566E+02  0.26000000000E-02 0.  1.
        -13    1    1    2    0    0  0.10232114902E+02  0.12085481030E+02  0.36142110980E+02  0.39459072286E+02  0.10570000000E+00 0. -1.
         13    1    1    2    0    0 -0.10232114902E+02 -0.12085481030E+02 -0.21627008809E+02  0.26804732970E+02  0.10570000000E+00 0.  1.
<mgrwt>
<rscale>  0 0.64654495E+02</rscale>
<asrwt>0</asrwt>
<pdfrwt beam="1">  1        2 0.62137621E-02 0.64654495E+02</pdfrwt>
<pdfrwt beam="2">  1       -2 0.39806695E-02 0.64654495E+02</pdfrwt>
<totfact> 0.24993858E+05</totfact>
</mgrwt>
</event>
<event>
 4    1  0.3704929E-001  0.3893456E+02  0.7818608E-02  0.1516202E+00
          2   -1    0    0  501    0  0.00000000000E+00  0.00000000000E+00  0.63857263933E+02  0.63857263986E+02  0.26000000000E-02 0. -1.
         -2   -1    0    0    0  501 -0.00000000000E+00 -0.00000000000E+00 -0.59347183791E+01  0.59347189486E+01  0.26000000000E-02 0.  1.
        -13    1    1    2    0    0 -0.14164269404E+02  0.92013753759E+01  0.46310293333E+02  0.49294485266E+02  0.10570000000E+00 0.  1.
         13    1    1    2    0    0  0.14164269404E+02 -0.92013753759E+01  0.11612252221E+02  0.20497497669E+02  0.10570000000E+00 0. -1.
<mgrwt>
<rscale>  0 0.38934555E+02</rscale>
<asrwt>0</asrwt>
<pdfrwt beam="1">  1        2 0.98241941E-02 0.38934555E+02</pdfrwt>
<pdfrwt beam="2">  1       -2 0.91303368E-03 0.38934555E+02</pdfrwt>
<totfact> 0.10098519E+06</totfact>
</mgrwt>
</event>
<event>
 4    1  0.3704929E-001  0.3634638E+02  0.7818608E-02  0.1536959E+00
          2   -1    0    0  501    0  0.00000000000E+00  0.00000000000E+00  0.63828981971E+01  0.63828987267E+01  0.26000000000E-02 0. -1.
         -2   -1    0    0    0  501 -0.00000000000E+00 -0.00000000000E+00 -0.51742145235E+02  0.51742145300E+02  0.26000000000E-02 0.  1.
        -13    1    1    2    0    0  0.16179034589E+02  0.75617951999E+01 -0.28058203793E+02  0.33259823804E+02  0.10570000000E+00 0.  1.
         13    1    1    2    0    0 -0.16179034589E+02 -0.75617951999E+01 -0.17301043244E+02  0.24865220222E+02  0.10570000000E+00 0. -1.
<mgrwt>
<rscale>  0 0.36346382E+02</rscale>
<asrwt>0</asrwt>
<pdfrwt beam="1">  1        2 0.98198442E-03 0.36346382E+02</pdfrwt>
<pdfrwt beam="2">  1       -2 0.79603298E-02 0.36346382E+02</pdfrwt>
<totfact> 0.86579331E+05</totfact>
</mgrwt>
</event>
<event>
 4    1  0.3704929E-001  0.5444577E+02  0.7818608E-02  0.1422738E+00
          2   -1    0    0  501    0  0.00000000000E+00  0.00000000000E+00  0.25027964858E+03  0.25027964859E+03  0.26000000000E-02 0. -1.
         -2   -1    0    0    0  501 -0.00000000000E+00 -0.00000000000E+00 -0.29610292976E+01  0.29610304391E+01  0.26000000000E-02 0.  1.
        -13    1    1    2    0    0 -0.20123278334E+02  0.17801412489E+02  0.14406006291E+03  0.14654401904E+03  0.10570000000E+00 0. -1.
         13    1    1    2    0    0  0.20123278334E+02 -0.17801412489E+02  0.10325855636E+03  0.10669665999E+03  0.10570000000E+00 0.  1.
<mgrwt>
<rscale>  0 0.54445772E+02</rscale>
<asrwt>0</asrwt>
<pdfrwt beam="1">  1        2 0.38504554E-01 0.54445772E+02</pdfrwt>
<pdfrwt beam="2">  1       -2 0.45554315E-03 0.54445772E+02</pdfrwt>
<totfact> 0.64143725E+05</totfact>
</mgrwt>
</event>
<event>
 4    1  0.3704929E-001  0.3076169E+02  0.7818608E-02  0.1589819E+00
         -2   -1    0    0    0  501 -0.00000000000E+00  0.00000000000E+00  0.50937588044E+01  0.50937594680E+01  0.26000000000E-02 0.  1.
          2   -1    0    0  501    0  0.00000000000E+00 -0.00000000000E+00 -0.46443186729E+02  0.46443186802E+02  0.26000000000E-02 0. -1.
        -13    1    1    2    0    0  0.98782084702E+01  0.45846209029E+01 -0.38870825596E+02  0.40367685175E+02  0.10570000000E+00 0. -1.
         13    1    1    2    0    0 -0.98782084702E+01 -0.45846209029E+01 -0.24786023286E+01  0.11169261095E+02  0.10570000000E+00 0.  1.
<mgrwt>
<rscale>  0 0.30761691E+02</rscale>
<asrwt>0</asrwt>
<pdfrwt beam="2">  1        2 0.71451054E-02 0.30761691E+02</pdfrwt>
<pdfrwt beam="1">  1       -2 0.78365529E-03 0.30761691E+02</pdfrwt>
<totfact> 0.16922923E+06</totfact>
</mgrwt>
</event>
<event>
 4    1  0.3704929E-001  0.3050603E+02  0.7818608E-02  0.1592562E+00
         -2   -1    0    0    0  501 -0.00000000000E+00  0.00000000000E+00  0.16713825267E+01  0.16713845490E+01  0.26000000000E-02 0. -1.
          2   -1    0    0  501    0  0.00000000000E+00 -0.00000000000E+00 -0.13919877363E+03  0.13919877365E+03  0.26000000000E-02 0.  1.
        -13    1    1    2    0    0  0.14472253856E+02  0.45203360726E+01 -0.61086784190E+02  0.62940336391E+02  0.10570000000E+00 0.  1.
         13    1    1    2    0    0 -0.14472253856E+02 -0.45203360726E+01 -0.76440606912E+02  0.77929821811E+02  0.10570000000E+00 0. -1.
<mgrwt>
<rscale>  0 0.30506035E+02</rscale>
<asrwt>0</asrwt>
<pdfrwt beam="2">  1        2 0.21415187E-01 0.30506035E+02</pdfrwt>
<pdfrwt beam="1">  1       -2 0.25713604E-03 0.30506035E+02</pdfrwt>
<totfact> 0.21891935E+06</totfact>
</mgrwt>
</event>
<event>
 4    1  0.3704929E-001  0.2479543E+02  0.7818608E-02  0.1663958E+00
         -2   -1    0    0    0  501 -0.00000000000E+00  0.00000000000E+00  0.74078111728E+01  0.74078116291E+01  0.26000000000E-02 0. -1.
          2   -1    0    0  501    0  0.00000000000E+00 -0.00000000000E+00 -0.20748811057E+02  0.20748811220E+02  0.26000000000E-02 0.  1.
        -13    1    1    2    0    0 -0.11719195211E+02 -0.22716896730E+01 -0.10469443589E+02  0.15878303811E+02  0.10570000000E+00 0.  1.
         13    1    1    2    0    0  0.11719195211E+02  0.22716896730E+01 -0.28715562956E+01  0.12278319038E+02  0.10570000000E+00 0. -1.
<mgrwt>
<rscale>  0 0.24795426E+02</rscale>
<asrwt>0</asrwt>
<pdfrwt beam="2">  1        2 0.31921248E-02 0.24795426E+02</pdfrwt>
<pdfrwt beam="1">  1       -2 0.11396633E-02 0.24795426E+02</pdfrwt>
<totfact> 0.25509649E+06</totfact>
</mgrwt>
</event>
<event>
 4    1  0.3704929E-001  0.6819303E+02  0.7818608E-02  0.1366348E+00
          2   -1    0    0  501    0  0.00000000000E+00  0.00000000000E+00  0.10101631365E+03  0.10101631369E+03  0.26000000000E-02 0. -1.
         -2   -1    0    0    0  501 -0.00000000000E+00 -0.00000000000E+00 -0.11508758678E+02  0.11508758972E+02  0.26000000000E-02 0.  1.
        -13    1    1    2    0    0 -0.14297773563E+02 -0.25890185887E+02  0.72748729163E+02  0.78530992745E+02  0.10570000000E+00 0. -1.
         13    1    1    2    0    0  0.14297773563E+02  0.25890185887E+02  0.16758825812E+02  0.33994079914E+02  0.10570000000E+00 0.  1.
<mgrwt>
<rscale>  0 0.68193032E+02</rscale>
<asrwt>0</asrwt>
<pdfrwt beam="1">  1        2 0.15540970E-01 0.68193032E+02</pdfrwt>
<pdfrwt beam="2">  1       -2 0.17705784E-02 0.68193032E+02</pdfrwt>
<totfact> 0.26911074E+05</totfact>
</mgrwt>
</event>
<event>
 4    1  0.3704929E-001  0.2181743E+02  0.7818608E-02  0.1711429E+00
         -2   -1    0    0    0  501 -0.00000000000E+00  0.00000000000E+00  0.22770485062E+01  0.22770499906E+01  0.26000000000E-02 0.  1.
          2   -1    0    0  501    0  0.00000000000E+00 -0.00000000000E+00 -0.52260654986E+02  0.52260655050E+02  0.26000000000E-02 0. -1.
        -13    1    1    2    0    0 -0.28497995814E+01  0.95922599184E+01 -0.35846538871E+02  0.37217177883E+02  0.10570000000E+00 0. -1.
         13    1    1    2    0    0  0.28497995814E+01 -0.95922599184E+01 -0.14137067608E+02  0.17320527158E+02  0.10570000000E+00 0.  1.
<mgrwt>
<rscale>  0 0.21817432E+02</rscale>
<asrwt>0</asrwt>
<pdfrwt beam="2">  1        2 0.80401000E-02 0.21817432E+02</pdfrwt>
<pdfrwt beam="1">  1       -2 0.35031531E-03 0.21817432E+02</pdfrwt>
<totfact> 0.38369183E+06</totfact>
</mgrwt>
</event>
<event>
 4    1  0.3704929E-001  0.3732666E+02  0.7818608E-02  0.1528859E+00
         -2   -1    0    0    0  501 -0.00000000000E+00  0.00000000000E+00  0.56434041504E+01  0.56434047494E+01  0.26000000000E-02 0. -1.
          2   -1    0    0  501    0  0.00000000000E+00 -0.00000000000E+00 -0.61721599629E+02  0.61721599684E+02  0.26000000000E-02 0.  1.
        -13    1    1    2    0    0 -0.58095796788E+01  0.12090092745E+02 -0.51458172703E+02  0.53177779843E+02  0.10570000000E+00 0.  1.
         13    1    1    2    0    0  0.58095796788E+01 -0.12090092745E+02 -0.46200227753E+01  0.14187224590E+02  0.10570000000E+00 0. -1.
<mgrwt>
<rscale>  0 0.37326664E+02</rscale>
<asrwt>0</asrwt>
<pdfrwt beam="2">  1        2 0.94956303E-02 0.37326664E+02</pdfrwt>
<pdfrwt beam="1">  1       -2 0.86821611E-03 0.37326664E+02</pdfrwt>
<totfact> 0.11128508E+06</totfact>
</mgrwt>
</event>
<event>
 4    1  0.3704929E-001  0.2374909E+02  0.7818608E-02  0.1679648E+00
         -2   -1    0    0    0  501 -0.00000000000E+00  0.00000000000E+00  0.17660932869E+01  0.17660952007E+01  0.26000000000E-02 0.  1.
          2   -1    0    0  501    0  0.00000000000E+00 -0.00000000000E+00 -0.79839903757E+02  0.79839903799E+02  0.26000000000E-02 0. -1.
        -13    1    1    2    0    0 -0.26663390206E+01 -0.11511154192E+02 -0.35003839888E+02  0.36944499103E+02  0.10570000000E+00 0.  1.
         13    1    1    2    0    0  0.26663390206E+01  0.11511154192E+02 -0.43069970582E+02  0.44661499897E+02  0.10570000000E+00 0. -1.
<mgrwt>
<rscale>  0 0.23749088E+02</rscale>
<asrwt>0</asrwt>
<pdfrwt beam="2">  1        2 0.12283059E-01 0.23749088E+02</pdfrwt>
<pdfrwt beam="1">  1       -2 0.27170687E-03 0.23749088E+02</pdfrwt>
<totfact> 0.34172925E+06</totfact>
</mgrwt>
</event>
<event>
 4    1  0.3704929E-001  0.3511442E+02  0.7818608E-02  0.1547587E+00
         -2   -1    0    0    0  501 -0.00000000000E+00  0.00000000000E+00  0.26678195096E+01  0.26678207766E+01  0.26000000000E-02 0. -1.
          2   -1    0    0  501    0  0.00000000000E+00 -0.00000000000E+00 -0.11554590416E+03  0.11554590419E+03  0.26000000000E-02 0.  1.
        -13    1    1    2    0    0  0.65323623010E+01  0.15559418262E+02 -0.40127083060E+02  0.43531152309E+02  0.10570000000E+00 0. -1.
         13    1    1    2    0    0 -0.65323623010E+01 -0.15559418262E+02 -0.72751001590E+02  0.74682572658E+02  0.10570000000E+00 0.  1.
<mgrwt>
<rscale>  0 0.35114424E+02</rscale>
<asrwt>0</asrwt>
<pdfrwt beam="2">  1        2 0.17776289E-01 0.35114424E+02</pdfrwt>
<pdfrwt beam="1">  1       -2 0.41043396E-03 0.35114424E+02</pdfrwt>
<totfact> 0.14888031E+06</totfact>
</mgrwt>
</event>
<event>
 4    1  0.3704929E-001  0.2875197E+02  0.7818608E-02  0.1612308E+00
          2   -1    0    0  501    0  0.00000000000E+00  0.00000000000E+00  0.14041638854E+03  0.14041638857E+03  0.26000000000E-02 0. -1.
         -2   -1    0    0    0  501 -0.00000000000E+00 -0.00000000000E+00 -0.14718281514E+01  0.14718304478E+01  0.26000000000E-02 0.  1.
        -13    1    1    2    0    0  0.14325209864E+02  0.83312620441E+00  0.73751865890E+02  0.75134909541E+02  0.10570000000E+00 0. -1.
         13    1    1    2    0    0 -0.14325209864E+02 -0.83312620441E+00  0.65192694500E+02  0.66753309473E+02  0.10570000000E+00 0.  1.
<mgrwt>
<rscale>  0 0.28751971E+02</rscale>
<asrwt>0</asrwt>
<pdfrwt beam="1">  1        2 0.21602527E-01 0.28751971E+02</pdfrwt>
<pdfrwt beam="2">  1       -2 0.22643522E-03 0.28751971E+02</pdfrwt>
<totfact> 0.25211965E+06</totfact>
</mgrwt>
</event>
<event>
 4    1  0.3704929E-001  0.2503884E+02  0.7818608E-02  0.1660445E+00
         -2   -1    0    0    0  501 -0.00000000000E+00  0.00000000000E+00  0.77081860016E+01  0.77081864401E+01  0.26000000000E-02 0. -1.
          2   -1    0    0  501    0  0.00000000000E+00 -0.00000000000E+00 -0.20333683207E+02  0.20333683373E+02  0.26000000000E-02 0.  1.
        -13    1    1    2    0    0 -0.68465425611E+01  0.99700571316E+01 -0.26928343481E+01  0.12391114299E+02  0.10570000000E+00 0.  1.
         13    1    1    2    0    0  0.68465425611E+01 -0.99700571316E+01 -0.99326628572E+01  0.15650755514E+02  0.10570000000E+00 0. -1.
<mgrwt>
<rscale>  0 0.25038835E+02</rscale>
<asrwt>0</asrwt>
<pdfrwt beam="2">  1        2 0.31282590E-02 0.25038835E+02</pdfrwt>
<pdfrwt beam="1">  1       -2 0.11858748E-02 0.25038835E+02</pdfrwt>
<totfact> 0.24881545E+06</totfact>
</mgrwt>
</event>
<event>
 4    1  0.3704929E-001  0.2345932E+02  0.7818608E-02  0.1684171E+00
          2   -1    0    0  501    0  0.00000000000E+00  0.00000000000E+00  0.92547678106E+02  0.92547678143E+02  0.26000000000E-02 0.  1.
         -2   -1    0    0    0  501 -0.00000000000E+00 -0.00000000000E+00 -0.14866370106E+01  0.14866392842E+01  0.26000000000E-02 0. -1.
        -13    1    1    2    0    0  0.91788610553E+01  0.62149965161E+01  0.60896899776E+02  0.61897667539E+02  0.10570000000E+00 0.  1.
         13    1    1    2    0    0 -0.91788610553E+01 -0.62149965161E+01  0.30164141320E+02  0.32136649888E+02  0.10570000000E+00 0. -1.
<mgrwt>
<rscale>  0 0.23459319E+02</rscale>
<asrwt>0</asrwt>
<pdfrwt beam="1">  1        2 0.14238105E-01 0.23459319E+02</pdfrwt>
<pdfrwt beam="2">  1       -2 0.22871355E-03 0.23459319E+02</pdfrwt>
<totfact> 0.36272896E+06</totfact>
</mgrwt>
</event>
<event>
 4    1  0.3704929E-001  0.2343515E+02  0.7818608E-02  0.1684552E+00
          2   -1    0    0  501    0  0.00000000000E+00  0.00000000000E+00  0.42634419285E+01  0.42634427213E+01  0.26000000000E-02 0. -1.
         -2   -1    0    0    0  501 -0.00000000000E+00 -0.00000000000E+00 -0.32204386665E+02  0.32204386770E+02  0.26000000000E-02 0.  1.
        -13    1    1    2    0    0  0.61321110336E+01  0.81432280783E+01 -0.22960388026E+02  0.25121814028E+02  0.10570000000E+00 0.  1.
         13    1    1    2    0    0 -0.61321110336E+01 -0.81432280783E+01 -0.49805567111E+01  0.11346015464E+02  0.10570000000E+00 0. -1.
<mgrwt>
<rscale>  0 0.23435149E+02</rscale>
<asrwt>0</asrwt>
<pdfrwt beam="1">  1        2 0.65591423E-03 0.23435149E+02</pdfrwt>
<pdfrwt beam="2">  1       -2 0.49545210E-02 0.23435149E+02</pdfrwt>
<totfact> 0.25228863E+06</totfact>
</mgrwt>
</event>
<event>
 4    1  0.3704929E-001  0.2469735E+02  0.7818608E-02  0.1665387E+00
         -2   -1    0    0    0  501 -0.00000000000E+00  0.00000000000E+00  0.30897493811E+02  0.30897493921E+02  0.26000000000E-02 0. -1.
          2   -1    0    0  501    0  0.00000000000E+00 -0.00000000000E+00 -0.49353422926E+01  0.49353429775E+01  0.26000000000E-02 0.  1.
        -13    1    1    2    0    0 -0.18385852443E+01 -0.12150854742E+02  0.14731103565E+02  0.19184375189E+02  0.10570000000E+00 0.  1.
         13    1    1    2    0    0  0.18385852443E+01  0.12150854742E+02  0.11231047954E+02  0.16648461709E+02  0.10570000000E+00 0. -1.
<mgrwt>
<rscale>  0 0.24697346E+02</rscale>
<asrwt>0</asrwt>
<pdfrwt beam="2">  1        2 0.75928349E-03 0.24697346E+02</pdfrwt>
<pdfrwt beam="1">  1       -2 0.47534607E-02 0.24697346E+02</pdfrwt>
<totfact> 0.22538310E+06</totfact>
</mgrwt>
</event>
<event>
 4    1  0.3704929E-001  0.6051024E+02  0.7818608E-02  0.1395703E+00
         -2   -1    0    0    0  501 -0.00000000000E+00  0.00000000000E+00  0.14725825373E+03  0.14725825376E+03  0.26000000000E-02 0. -1.
          2   -1    0    0  501    0  0.00000000000E+00 -0.00000000000E+00 -0.62161013881E+01  0.62161019319E+01  0.26000000000E-02 0.  1.
        -13    1    1    2    0    0  0.22895041511E+02  0.58885984977E+00  0.20379072658E+02  0.30656931624E+02  0.10570000000E+00 0.  1.
         13    1    1    2    0    0 -0.22895041511E+02 -0.58885984977E+00  0.12066307969E+03  0.12281742406E+03  0.10570000000E+00 0. -1.
<mgrwt>
<rscale>  0 0.60510240E+02</rscale>
<asrwt>0</asrwt>
<pdfrwt beam="2">  1        2 0.95632341E-03 0.60510240E+02</pdfrwt>
<pdfrwt beam="1">  1       -2 0.22655114E-01 0.60510240E+02</pdfrwt>
<totfact> 0.19703508E+05</totfact>
</mgrwt>
</event>
<event>
 4    1  0.3704929E-001  0.5640646E+02  0.7818608E-02  0.1413562E+00
          2   -1    0    0  501    0  0.00000000000E+00  0.00000000000E+00  0.19392364338E+02  0.19392364512E+02  0.26000000000E-02 0. -1.
         -2   -1    0    0    0  501 -0.00000000000E+00 -0.00000000000E+00 -0.41017285981E+02  0.41017286064E+02  0.26000000000E-02 0.  1.
        -13    1    1    2    0    0  0.14836255753E+02 -0.21632600694E+02  0.28266329649E+00  0.26233089193E+02  0.10570000000E+00 0.  1.
         13    1    1    2    0    0 -0.14836255753E+02  0.21632600694E+02 -0.21907584940E+02  0.34176561383E+02  0.10570000000E+00 0. -1.
<mgrwt>
<rscale>  0 0.56406459E+02</rscale>
<asrwt>0</asrwt>
<pdfrwt beam="1">  1        2 0.29834407E-02 0.56406459E+02</pdfrwt>
<pdfrwt beam="2">  1       -2 0.63103517E-02 0.56406459E+02</pdfrwt>
<totfact> 0.31620709E+05</totfact>
</mgrwt>
</event>
<event>
 4    1  0.3704929E-001  0.4742119E+02  0.7818608E-02  0.1459769E+00
         -2   -1    0    0    0  501 -0.00000000000E+00  0.00000000000E+00  0.35155449057E+02  0.35155449153E+02  0.26000000000E-02 0.  1.
          2   -1    0    0  501    0  0.00000000000E+00 -0.00000000000E+00 -0.15991609335E+02  0.15991609547E+02  0.26000000000E-02 0. -1.
        -13    1    1    2    0    0 -0.15228947526E+02  0.24679798721E+01 -0.98374073495E+01  0.18297473138E+02  0.10570000000E+00 0. -1.
         13    1    1    2    0    0  0.15228947526E+02 -0.24679798721E+01  0.29001247071E+02  0.32849585562E+02  0.10570000000E+00 0.  1.
<mgrwt>
<rscale>  0 0.47421186E+02</rscale>
<asrwt>0</asrwt>
<pdfrwt beam="2">  1        2 0.24602476E-02 0.47421186E+02</pdfrwt>
<pdfrwt beam="1">  1       -2 0.54085306E-02 0.47421186E+02</pdfrwt>
<totfact> 0.48986336E+05</totfact>
</mgrwt>
</event>
<event>
 4    1  0.3704929E-001  0.2008367E+02  0.7818608E-02  0.1743669E+00
          2   -1    0    0  501    0  0.00000000000E+00  0.00000000000E+00  0.31971431489E+01  0.31971442061E+01  0.26000000000E-02 0. -1.
         -2   -1    0    0    0  501 -0.00000000000E+00 -0.00000000000E+00 -0.31540162165E+02  0.31540162272E+02  0.26000000000E-02 0.  1.
        -13    1    1    2    0    0 -0.60586960938E+01 -0.80065142784E+01 -0.13958323518E+02  0.17194709569E+02  0.10570000000E+00 0. -1.
         13    1    1    2    0    0  0.60586960938E+01  0.80065142784E+01 -0.14384695498E+02  0.17542596909E+02  0.10570000000E+00 0.  1.
<mgrwt>
<rscale>  0 0.20083668E+02</rscale>
<asrwt>0</asrwt>
<pdfrwt beam="1">  1        2 0.49186829E-03 0.20083668E+02</pdfrwt>
<pdfrwt beam="2">  1       -2 0.48523325E-02 0.20083668E+02</pdfrwt>
<totfact> 0.35552070E+06</totfact>
</mgrwt>
</event>
<event>
 4    1  0.3704929E-001  0.2247285E+02  0.7818608E-02  0.1700200E+00
          2   -1    0    0  501    0  0.00000000000E+00  0.00000000000E+00  0.65385711495E+01  0.65385716664E+01  0.26000000000E-02 0.  1.
         -2   -1    0    0    0  501 -0.00000000000E+00 -0.00000000000E+00 -0.19309601204E+02  0.19309601379E+02  0.26000000000E-02 0. -1.
        -13    1    1    2    0    0  0.13771873626E+01  0.10865577023E+02 -0.92698768557E+01  0.14349188078E+02  0.10570000000E+00 0. -1.
         13    1    1    2    0    0 -0.13771873626E+01 -0.10865577023E+02 -0.35011531987E+01  0.11498984968E+02  0.10570000000E+00 0.  1.
<mgrwt>
<rscale>  0 0.22472847E+02</rscale>
<asrwt>0</asrwt>
<pdfrwt beam="1">  1        2 0.10059341E-02 0.22472847E+02</pdfrwt>
<pdfrwt beam="2">  1       -2 0.29707079E-02 0.22472847E+02</pdfrwt>
<totfact> 0.29091392E+06</totfact>
</mgrwt>
</event>
<event>
 4    1  0.3704929E-001  0.3668947E+02  0.7818608E-02  0.1534090E+00
         -2   -1    0    0    0  501 -0.00000000000E+00  0.00000000000E+00  0.27897133061E+02  0.27897133182E+02  0.26000000000E-02 0. -1.
          2   -1    0    0  501    0  0.00000000000E+00 -0.00000000000E+00 -0.12063218654E+02  0.12063218935E+02  0.26000000000E-02 0.  1.
        -13    1    1    2    0    0  0.18656984089E+01  0.17647204236E+02  0.28534725247E+01  0.17973817787E+02  0.10570000000E+00 0.  1.
         13    1    1    2    0    0 -0.18656984089E+01 -0.17647204236E+02  0.12980441882E+02  0.21986534330E+02  0.10570000000E+00 0. -1.
<mgrwt>
<rscale>  0 0.36689466E+02</rscale>
<asrwt>0</asrwt>
<pdfrwt beam="2">  1        2 0.18558798E-02 0.36689466E+02</pdfrwt>
<pdfrwt beam="1">  1       -2 0.42918666E-02 0.36689466E+02</pdfrwt>
<totfact> 0.92271489E+05</totfact>
</mgrwt>
</event>
<event>
 4    1  0.3704929E-001  0.4259394E+02  0.7818608E-02  0.1489947E+00
         -2   -1    0    0    0  501 -0.00000000000E+00  0.00000000000E+00  0.91496076264E+01  0.91496079958E+01  0.26000000000E-02 0. -1.
          2   -1    0    0  501    0  0.00000000000E+00 -0.00000000000E+00 -0.49571622514E+02  0.49571622582E+02  0.26000000000E-02 0.  1.
        -13    1    1    2    0    0 -0.14187481498E+02 -0.12579629556E+02 -0.68434239387E+01  0.20158753302E+02  0.10570000000E+00 0.  1.
         13    1    1    2    0    0  0.14187481498E+02  0.12579629556E+02 -0.33578590949E+02  0.38562477276E+02  0.10570000000E+00 0. -1.
<mgrwt>
<rscale>  0 0.42593939E+02</rscale>
<asrwt>0</asrwt>
<pdfrwt beam="2">  1        2 0.76264033E-02 0.42593939E+02</pdfrwt>
<pdfrwt beam="1">  1       -2 0.14076320E-02 0.42593939E+02</pdfrwt>
<totfact> 0.76999330E+05</totfact>
</mgrwt>
</event>
<event>
 4    1  0.3704929E-001  0.2655561E+02  0.7818608E-02  0.1639614E+00
          2   -1    0    0  501    0  0.00000000000E+00  0.00000000000E+00  0.99062087326E+01  0.99062090738E+01  0.26000000000E-02 0. -1.
         -2   -1    0    0    0  501 -0.00000000000E+00 -0.00000000000E+00 -0.17796935167E+02  0.17796935357E+02  0.26000000000E-02 0.  1.
        -13    1    1    2    0    0  0.96540926202E+01  0.80614028860E+01 -0.83837712118E+01  0.15115770342E+02  0.10570000000E+00 0. -1.
         13    1    1    2    0    0 -0.96540926202E+01 -0.80614028860E+01  0.49304477721E+00  0.12587374089E+02  0.10570000000E+00 0.  1.
<mgrwt>
<rscale>  0 0.26555614E+02</rscale>
<asrwt>0</asrwt>
<pdfrwt beam="1">  1        2 0.15240322E-02 0.26555614E+02</pdfrwt>
<pdfrwt beam="2">  1       -2 0.27379901E-02 0.26555614E+02</pdfrwt>
<totfact> 0.20230548E+06</totfact>
</mgrwt>
</event>
<event>
 4    1  0.3704929E-001  0.5218271E+02  0.7818608E-02  0.1433912E+00
         -2   -1    0    0    0  501 -0.00000000000E+00  0.00000000000E+00  0.14269055732E+02  0.14269055969E+02  0.26000000000E-02 0.  1.
          2   -1    0    0  501    0  0.00000000000E+00 -0.00000000000E+00 -0.47708750772E+02  0.47708750842E+02  0.26000000000E-02 0. -1.
        -13    1    1    2    0    0  0.15606480773E+02  0.34383363976E+01 -0.41215530582E+02  0.44205379004E+02  0.10570000000E+00 0. -1.
         13    1    1    2    0    0 -0.15606480773E+02 -0.34383363976E+01  0.77758355423E+01  0.17772427807E+02  0.10570000000E+00 0.  1.
<mgrwt>
<rscale>  0 0.52182711E+02</rscale>
<asrwt>0</asrwt>
<pdfrwt beam="2">  1        2 0.73398077E-02 0.52182711E+02</pdfrwt>
<pdfrwt beam="1">  1       -2 0.21952394E-02 0.52182711E+02</pdfrwt>
<totfact> 0.45532982E+05</totfact>
</mgrwt>
</event>
<event>
 4    1  0.3704929E-001  0.2966766E+02  0.7818608E-02  0.1601792E+00
         -2   -1    0    0    0  501 -0.00000000000E+00  0.00000000000E+00  0.59155460423E+01  0.59155466137E+01  0.26000000000E-02 0.  1.
          2   -1    0    0  501    0  0.00000000000E+00 -0.00000000000E+00 -0.37197333978E+02  0.37197334068E+02  0.26000000000E-02 0. -1.
        -13    1    1    2    0    0  0.54852445384E+01  0.10873822024E+02 -0.27946238962E+02  0.30484936570E+02  0.10570000000E+00 0. -1.
         13    1    1    2    0    0 -0.54852445384E+01 -0.10873822024E+02 -0.33355489730E+01  0.12627944112E+02  0.10570000000E+00 0.  1.
<mgrwt>
<rscale>  0 0.29667663E+02</rscale>
<asrwt>0</asrwt>
<pdfrwt beam="2">  1        2 0.57226666E-02 0.29667663E+02</pdfrwt>
<pdfrwt beam="1">  1       -2 0.91008408E-03 0.29667663E+02</pdfrwt>
<totfact> 0.17859717E+06</totfact>
</mgrwt>
</event>
<event>
 4    1  0.3704929E-001  0.2254253E+02  0.7818608E-02  0.1699035E+00
         -2   -1    0    0    0  501 -0.00000000000E+00  0.00000000000E+00  0.29374547873E+02  0.29374547988E+02  0.26000000000E-02 0. -1.
          2   -1    0    0  501    0  0.00000000000E+00 -0.00000000000E+00 -0.43248789757E+01  0.43248797572E+01  0.26000000000E-02 0.  1.
        -13    1    1    2    0    0 -0.85245039729E+01 -0.70091543363E+01  0.91044907084E+01  0.14307282623E+02  0.10570000000E+00 0. -1.
         13    1    1    2    0    0  0.85245039729E+01  0.70091543363E+01  0.15945178189E+02  0.19392145123E+02  0.10570000000E+00 0.  1.
<mgrwt>
<rscale>  0 0.22542527E+02</rscale>
<asrwt>0</asrwt>
<pdfrwt beam="2">  1        2 0.66536606E-03 0.22542527E+02</pdfrwt>
<pdfrwt beam="1">  1       -2 0.45191613E-02 0.22542527E+02</pdfrwt>
<totfact> 0.27774801E+06</totfact>
</mgrwt>
</event>
<event>
 4    1  0.3704929E-001  0.3724391E+02  0.7818608E-02  0.1529532E+00
         -2   -1    0    0    0  501 -0.00000000000E+00  0.00000000000E+00  0.30071181725E+01  0.30071192965E+01  0.26000000000E-02 0.  1.
          2   -1    0    0  501    0  0.00000000000E+00 -0.00000000000E+00 -0.11531874347E+03  0.11531874350E+03  0.26000000000E-02 0. -1.
        -13    1    1    2    0    0  0.35726716593E+01  0.18102188791E+02 -0.64138225526E+02  0.66739616180E+02  0.10570000000E+00 0. -1.
         13    1    1    2    0    0 -0.35726716593E+01 -0.18102188791E+02 -0.48173399770E+02  0.51586246614E+02  0.10570000000E+00 0.  1.
<mgrwt>
<rscale>  0 0.37243907E+02</rscale>
<asrwt>0</asrwt>
<pdfrwt beam="2">  1        2 0.17741342E-01 0.37243907E+02</pdfrwt>
<pdfrwt beam="1">  1       -2 0.46263374E-03 0.37243907E+02</pdfrwt>
<totfact> 0.12904629E+06</totfact>
</mgrwt>
</event>
<event>
 4    1  0.3704929E-001  0.4379746E+02  0.7818608E-02  0.1481992E+00
          2   -1    0    0  501    0  0.00000000000E+00  0.00000000000E+00  0.80013008203E+02  0.80013008245E+02  0.26000000000E-02 0. -1.
         -2   -1    0    0    0  501 -0.00000000000E+00 -0.00000000000E+00 -0.59934537041E+01  0.59934542681E+01  0.26000000000E-02 0.  1.
        -13    1    1    2    0    0  0.45857295460E+01  0.17338927386E+02  0.12335753575E+02  0.21768080006E+02  0.10570000000E+00 0.  1.
         13    1    1    2    0    0 -0.45857295460E+01 -0.17338927386E+02  0.61683800923E+02  0.64238382507E+02  0.10570000000E+00 0. -1.
<mgrwt>
<rscale>  0 0.43797456E+02</rscale>
<asrwt>0</asrwt>
<pdfrwt beam="1">  1        2 0.12309693E-01 0.43797456E+02</pdfrwt>
<pdfrwt beam="2">  1       -2 0.92206990E-03 0.43797456E+02</pdfrwt>
<totfact> 0.79121156E+05</totfact>
</mgrwt>
</event>
<event>
 4    1  0.3704929E-001  0.2114026E+02  0.7818608E-02  0.1723559E+00
          2   -1    0    0  501    0  0.00000000000E+00  0.00000000000E+00  0.56248300397E+02  0.56248300457E+02  0.26000000000E-02 0. -1.
         -2   -1    0    0    0  501 -0.00000000000E+00 -0.00000000000E+00 -0.19863289938E+01  0.19863306954E+01  0.26000000000E-02 0.  1.
        -13    1    1    2    0    0 -0.78534970564E+01  0.65026402797E+01  0.34802042184E+02  0.36265066652E+02  0.10570000000E+00 0.  1.
         13    1    1    2    0    0  0.78534970564E+01 -0.65026402797E+01  0.19459929219E+02  0.21969564500E+02  0.10570000000E+00 0. -1.
<mgrwt>
<rscale>  0 0.21140263E+02</rscale>
<asrwt>0</asrwt>
<pdfrwt beam="1">  1        2 0.86535840E-02 0.21140263E+02</pdfrwt>
<pdfrwt beam="2">  1       -2 0.30558924E-03 0.21140263E+02</pdfrwt>
<totfact> 0.41686532E+06</totfact>
</mgrwt>
</event>
<event>
 4    1  0.3704929E-001  0.2496954E+02  0.7818608E-02  0.1661440E+00
         -2   -1    0    0    0  501 -0.00000000000E+00  0.00000000000E+00  0.55562822855E+02  0.55562822916E+02  0.26000000000E-02 0. -1.
          2   -1    0    0  501    0  0.00000000000E+00 -0.00000000000E+00 -0.28052822678E+01  0.28052834727E+01  0.26000000000E-02 0.  1.
        -13    1    1    2    0    0  0.48595285041E+01 -0.89250861592E+01  0.94275664698E+01  0.13862263966E+02  0.10570000000E+00 0.  1.
         13    1    1    2    0    0 -0.48595285041E+01  0.89250861592E+01  0.43329974118E+02  0.44505842423E+02  0.10570000000E+00 0. -1.
<mgrwt>
<rscale>  0 0.24969537E+02</rscale>
<asrwt>0</asrwt>
<pdfrwt beam="2">  1        2 0.43158197E-03 0.24969537E+02</pdfrwt>
<pdfrwt beam="1">  1       -2 0.85481271E-02 0.24969537E+02</pdfrwt>
<totfact> 0.20371949E+06</totfact>
</mgrwt>
</event>
<event>
 4    1  0.3704929E-001  0.4584664E+02  0.7818608E-02  0.1469124E+00
         -2   -1    0    0    0  501 -0.00000000000E+00  0.00000000000E+00  0.10171895909E+02  0.10171896241E+02  0.26000000000E-02 0. -1.
          2   -1    0    0  501    0  0.00000000000E+00 -0.00000000000E+00 -0.51659846011E+02  0.51659846076E+02  0.26000000000E-02 0.  1.
        -13    1    1    2    0    0  0.18675290646E+01 -0.16532151415E+02 -0.42011339984E+02  0.45185877826E+02  0.10570000000E+00 0.  1.
         13    1    1    2    0    0 -0.18675290646E+01  0.16532151415E+02  0.52338988182E+00  0.16645864491E+02  0.10570000000E+00 0. -1.
<mgrwt>
<rscale>  0 0.45846640E+02</rscale>
<asrwt>0</asrwt>
<pdfrwt beam="2">  1        2 0.79476685E-02 0.45846640E+02</pdfrwt>
<pdfrwt beam="1">  1       -2 0.15649071E-02 0.45846640E+02</pdfrwt>
<totfact> 0.64418273E+05</totfact>
</mgrwt>
</event>
<event>
 4    1  0.3704929E-001  0.2367255E+02  0.7818608E-02  0.1680835E+00
         -2   -1    0    0    0  501 -0.00000000000E+00  0.00000000000E+00  0.99051219033E+01  0.99051222445E+01  0.26000000000E-02 0.  1.
          2   -1    0    0  501    0  0.00000000000E+00 -0.00000000000E+00 -0.14143931150E+02  0.14143931389E+02  0.26000000000E-02 0. -1.
        -13    1    1    2    0    0  0.10251686651E+02  0.47904847407E+01  0.14057078997E+01  0.11403201762E+02  0.10570000000E+00 0.  1.
         13    1    1    2    0    0 -0.10251686651E+02 -0.47904847407E+01 -0.56445171463E+01  0.12645851871E+02  0.10570000000E+00 0. -1.
<mgrwt>
<rscale>  0 0.23672547E+02</rscale>
<asrwt>0</asrwt>
<pdfrwt beam="2">  1        2 0.21759895E-02 0.23672547E+02</pdfrwt>
<pdfrwt beam="1">  1       -2 0.15238649E-02 0.23672547E+02</pdfrwt>
<totfact> 0.27454262E+06</totfact>
</mgrwt>
</event>
<event>
 4    1  0.3704929E-001  0.4076962E+02  0.7818608E-02  0.1502623E+00
          2   -1    0    0  501    0  0.00000000000E+00  0.00000000000E+00  0.47179965056E+01  0.47179972220E+01  0.26000000000E-02 0. -1.
         -2   -1    0    0    0  501 -0.00000000000E+00 -0.00000000000E+00 -0.88075602862E+02  0.88075602900E+02  0.26000000000E-02 0.  1.
        -13    1    1    2    0    0 -0.11798623325E+01 -0.20211398532E+02 -0.47082460683E+02  0.51250970549E+02  0.10570000000E+00 0.  1.
         13    1    1    2    0    0  0.11798623325E+01  0.20211398532E+02 -0.36275145673E+02  0.41542629573E+02  0.10570000000E+00 0. -1.
<mgrwt>
<rscale>  0 0.40769617E+02</rscale>
<asrwt>0</asrwt>
<pdfrwt beam="1">  1        2 0.72584574E-03 0.40769617E+02</pdfrwt>
<pdfrwt beam="2">  1       -2 0.13550092E-01 0.40769617E+02</pdfrwt>
<totfact> 0.59595806E+05</totfact>
</mgrwt>
</event>
<event>
 4    1  0.3704929E-001  0.2883704E+02  0.7818608E-02  0.1611311E+00
         -2   -1    0    0    0  501 -0.00000000000E+00  0.00000000000E+00  0.24958770657E+02  0.24958770792E+02  0.26000000000E-02 0. -1.
          2   -1    0    0  501    0  0.00000000000E+00 -0.00000000000E+00 -0.83294875515E+01  0.83294879573E+01  0.26000000000E-02 0.  1.
        -13    1    1    2    0    0  0.98382121470E+01  0.10516810190E+02  0.75075060714E+01  0.16240921609E+02  0.10570000000E+00 0.  1.
         13    1    1    2    0    0 -0.98382121470E+01 -0.10516810190E+02  0.91217770338E+01  0.17047337140E+02  0.10570000000E+00 0. -1.
<mgrwt>
<rscale>  0 0.28837044E+02</rscale>
<asrwt>0</asrwt>
<pdfrwt beam="2">  1        2 0.12814597E-02 0.28837044E+02</pdfrwt>
<pdfrwt beam="1">  1       -2 0.38398108E-02 0.28837044E+02</pdfrwt>
<totfact> 0.16247855E+06</totfact>
</mgrwt>
</event>
<event>
 4    1  0.3704929E-001  0.3504245E+02  0.7818608E-02  0.1548224E+00
         -2   -1    0    0    0  501 -0.00000000000E+00  0.00000000000E+00  0.42289832725E+01  0.42289840717E+01  0.26000000000E-02 0.  1.
          2   -1    0    0  501    0  0.00000000000E+00 -0.00000000000E+00 -0.72592691987E+02  0.72592692033E+02  0.26000000000E-02 0. -1.
        -13    1    1    2    0    0  0.57161708759E+01  0.13017000900E+02 -0.11732437847E+02  0.18433073326E+02  0.10570000000E+00 0.  1.
         13    1    1    2    0    0 -0.57161708759E+01 -0.13017000900E+02 -0.56631270867E+02  0.58388602779E+02  0.10570000000E+00 0. -1.
<mgrwt>
<rscale>  0 0.35042449E+02</rscale>
<asrwt>0</asrwt>
<pdfrwt beam="2">  1        2 0.11168106E-01 0.35042449E+02</pdfrwt>
<pdfrwt beam="1">  1       -2 0.65061293E-03 0.35042449E+02</pdfrwt>
<totfact> 0.13411790E+06</totfact>
</mgrwt>
</event>
<event>
 4    1  0.3704929E-001  0.2151727E+02  0.7818608E-02  0.1716737E+00
          2   -1    0    0  501    0  0.00000000000E+00  0.00000000000E+00  0.10118586967E+01  0.10118620371E+01  0.26000000000E-02 0.  1.
         -2   -1    0    0    0  501 -0.00000000000E+00 -0.00000000000E+00 -0.11439147567E+03  0.11439147570E+03  0.26000000000E-02 0. -1.
        -13    1    1    2    0    0  0.42505031478E+01  0.98658280717E+01 -0.53582380835E+02  0.54648733279E+02  0.10570000000E+00 0.  1.
         13    1    1    2    0    0 -0.42505031478E+01 -0.98658280717E+01 -0.59797236135E+02  0.60754604454E+02  0.10570000000E+00 0. -1.
<mgrwt>
<rscale>  0 0.21517268E+02</rscale>
<asrwt>0</asrwt>
<pdfrwt beam="1">  1        2 0.15567092E-03 0.21517268E+02</pdfrwt>
<pdfrwt beam="2">  1       -2 0.17598679E-01 0.21517268E+02</pdfrwt>
<totfact> 0.24462772E+06</totfact>
</mgrwt>
</event>
<event>
 4    1  0.3704929E-001  0.3297027E+02  0.7818608E-02  0.1567401E+00
         -2   -1    0    0    0  501 -0.00000000000E+00  0.00000000000E+00  0.53996241336E+02  0.53996241398E+02  0.26000000000E-02 0. -1.
          2   -1    0    0  501    0  0.00000000000E+00 -0.00000000000E+00 -0.50329362468E+01  0.50329369184E+01  0.26000000000E-02 0.  1.
        -13    1    1    2    0    0  0.92810632819E+01 -0.12977681524E+02  0.17058576633E+02  0.23357323533E+02  0.10570000000E+00 0. -1.
         13    1    1    2    0    0 -0.92810632819E+01  0.12977681524E+02  0.31904728456E+02  0.35671854784E+02  0.10570000000E+00 0.  1.
<mgrwt>
<rscale>  0 0.32970269E+02</rscale>
<asrwt>0</asrwt>
<pdfrwt beam="2">  1        2 0.77429800E-03 0.32970269E+02</pdfrwt>
<pdfrwt beam="1">  1       -2 0.83071135E-02 0.32970269E+02</pdfrwt>
<totfact> 0.10805187E+06</totfact>
</mgrwt>
</event>
<event>
 4    1  0.3704929E-001  0.2279626E+02  0.7818608E-02  0.1694834E+00
          2   -1    0    0  501    0  0.00000000000E+00  0.00000000000E+00  0.24323282137E+02  0.24323282276E+02  0.26000000000E-02 0. -1.
         -2   -1    0    0    0  501 -0.00000000000E+00 -0.00000000000E+00 -0.53412753617E+01  0.53412759946E+01  0.26000000000E-02 0.  1.
        -13    1    1    2    0    0  0.62362643115E+01 -0.87807055437E+01  0.46369270175E+01  0.11726211966E+02  0.10570000000E+00 0.  1.
         13    1    1    2    0    0 -0.62362643115E+01  0.87807055437E+01  0.14345079758E+02  0.17938346305E+02  0.10570000000E+00 0. -1.
<mgrwt>
<rscale>  0 0.22796259E+02</rscale>
<asrwt>0</asrwt>
<pdfrwt beam="1">  1        2 0.37420435E-02 0.22796259E+02</pdfrwt>
<pdfrwt beam="2">  1       -2 0.82173473E-03 0.22796259E+02</pdfrwt>
<totfact> 0.31505422E+06</totfact>
</mgrwt>
</event>
<event>
 4    1  0.3704929E-001  0.4338522E+02  0.7818608E-02  0.1484682E+00
          2   -1    0    0  501    0  0.00000000000E+00  0.00000000000E+00  0.75158159929E+01  0.75158164426E+01  0.26000000000E-02 0.  1.
         -2   -1    0    0    0  501 -0.00000000000E+00 -0.00000000000E+00 -0.62610535135E+02  0.62610535189E+02  0.26000000000E-02 0. -1.
        -13    1    1    2    0    0 -0.21278620835E+02  0.41378762081E+01 -0.28856896965E+02  0.36092012954E+02  0.10570000000E+00 0. -1.
         13    1    1    2    0    0  0.21278620835E+02 -0.41378762081E+01 -0.26237822178E+02  0.34034338678E+02  0.10570000000E+00 0.  1.
<mgrwt>
<rscale>  0 0.43385218E+02</rscale>
<asrwt>0</asrwt>
<pdfrwt beam="1">  1        2 0.11562795E-02 0.43385218E+02</pdfrwt>
<pdfrwt beam="2">  1       -2 0.96323897E-02 0.43385218E+02</pdfrwt>
<totfact> 0.55047058E+05</totfact>
</mgrwt>
</event>
<event>
 4    1  0.3704929E-001  0.3896550E+02  0.7818608E-02  0.1515965E+00
          2   -1    0    0  501    0  0.00000000000E+00  0.00000000000E+00  0.65419277514E+01  0.65419282681E+01  0.26000000000E-02 0.  1.
         -2   -1    0    0    0  501 -0.00000000000E+00 -0.00000000000E+00 -0.58022268678E+02  0.58022268737E+02  0.26000000000E-02 0. -1.
        -13    1    1    2    0    0 -0.15538647669E+02  0.92722844332E+01 -0.37704911616E+02  0.41822199397E+02  0.10570000000E+00 0. -1.
         13    1    1    2    0    0  0.15538647669E+02 -0.92722844332E+01 -0.13775429311E+02  0.22741997607E+02  0.10570000000E+00 0.  1.
<mgrwt>
<rscale>  0 0.38965498E+02</rscale>
<asrwt>0</asrwt>
<pdfrwt beam="1">  1        2 0.10064505E-02 0.38965498E+02</pdfrwt>
<pdfrwt beam="2">  1       -2 0.89265026E-02 0.38965498E+02</pdfrwt>
<totfact> 0.72073884E+05</totfact>
</mgrwt>
</event>
<event>
 4    1  0.3704929E-001  0.2532745E+02  0.7818608E-02  0.1656343E+00
         -2   -1    0    0    0  501 -0.00000000000E+00  0.00000000000E+00  0.23139624785E+02  0.23139624931E+02  0.26000000000E-02 0.  1.
          2   -1    0    0  501    0  0.00000000000E+00 -0.00000000000E+00 -0.69305302268E+01  0.69305307144E+01  0.26000000000E-02 0. -1.
        -13    1    1    2    0    0  0.10111637373E+02  0.82119347824E+00 -0.89349922007E+00  0.10184747540E+02  0.10570000000E+00 0.  1.
         13    1    1    2    0    0 -0.10111637373E+02 -0.82119347824E+00  0.17102593779E+02  0.19885408106E+02  0.10570000000E+00 0. -1.
<mgrwt>
<rscale>  0 0.25327446E+02</rscale>
<asrwt>0</asrwt>
<pdfrwt beam="2">  1        2 0.10662355E-02 0.25327446E+02</pdfrwt>
<pdfrwt beam="1">  1       -2 0.35599423E-02 0.25327446E+02</pdfrwt>
<totfact> 0.21939939E+06</totfact>
</mgrwt>
</event>
<event>
 4    1  0.3704929E-001  0.2165204E+02  0.7818608E-02  0.1714340E+00
         -2   -1    0    0    0  501 -0.00000000000E+00  0.00000000000E+00  0.21194584266E+02  0.21194584426E+02  0.26000000000E-02 0. -1.
          2   -1    0    0  501    0  0.00000000000E+00 -0.00000000000E+00 -0.55298412765E+01  0.55298418877E+01  0.26000000000E-02 0.  1.
        -13    1    1    2    0    0  0.95788352037E+01  0.46630979096E+01  0.10204273927E+02  0.14752523338E+02  0.10570000000E+00 0. -1.
         13    1    1    2    0    0 -0.95788352037E+01 -0.46630979096E+01  0.54604690627E+01  0.11971902975E+02  0.10570000000E+00 0.  1.
<mgrwt>
<rscale>  0 0.21652039E+02</rscale>
<asrwt>0</asrwt>
<pdfrwt beam="2">  1        2 0.85074487E-03 0.21652039E+02</pdfrwt>
<pdfrwt beam="1">  1       -2 0.32607053E-02 0.21652039E+02</pdfrwt>
<totfact> 0.31317085E+06</totfact>
</mgrwt>
</event>
<event>
 4    1  0.3704929E-001  0.2599702E+02  0.7818608E-02  0.1647081E+00
          2   -1    0    0  501    0  0.00000000000E+00  0.00000000000E+00  0.60456248153E+02  0.60456248209E+02  0.26000000000E-02 0.  1.
         -2   -1    0    0    0  501 -0.00000000000E+00 -0.00000000000E+00 -0.27947675995E+01  0.27947688089E+01  0.26000000000E-02 0. -1.
        -13    1    1    2    0    0  0.33068847748E+01 -0.11638646679E+02  0.17275489580E+02  0.21091403371E+02  0.10570000000E+00 0.  1.
         13    1    1    2    0    0 -0.33068847748E+01  0.11638646679E+02  0.40385990973E+02  0.42159613647E+02  0.10570000000E+00 0. -1.
<mgrwt>
<rscale>  0 0.25997015E+02</rscale>
<asrwt>0</asrwt>
<pdfrwt beam="1">  1        2 0.93009607E-02 0.25997015E+02</pdfrwt>
<pdfrwt beam="2">  1       -2 0.42996437E-03 0.25997015E+02</pdfrwt>
<totfact> 0.26306677E+06</totfact>
</mgrwt>
</event>
<event>
 4    1  0.3704929E-001  0.9617667E+02  0.7818608E-02  0.1288548E+00
         -2   -1    0    0    0  501 -0.00000000000E+00  0.00000000000E+00  0.29525271536E+02  0.29525271651E+02  0.26000000000E-02 0.  1.
          2   -1    0    0  501    0  0.00000000000E+00 -0.00000000000E+00 -0.78322332113E+02  0.78322332156E+02  0.26000000000E-02 0. -1.
        -13    1    1    2    0    0  0.67213764103E+01 -0.34495514642E+02 -0.61204738341E+02  0.70577252704E+02  0.10570000000E+00 0. -1.
         13    1    1    2    0    0 -0.67213764103E+01  0.34495514642E+02  0.12407677765E+02  0.37270351102E+02  0.10570000000E+00 0.  1.
<mgrwt>
<rscale>  0 0.96176674E+02</rscale>
<asrwt>0</asrwt>
<pdfrwt beam="2">  1        2 0.12049589E-01 0.96176674E+02</pdfrwt>
<pdfrwt beam="1">  1       -2 0.45423495E-02 0.96176674E+02</pdfrwt>
<totfact> 0.98329804E+04</totfact>
</mgrwt>
</event>
<event>
 4    1  0.3704929E-001  0.2895761E+02  0.7818608E-02  0.1609905E+00
          2   -1    0    0  501    0  0.00000000000E+00  0.00000000000E+00  0.17397814022E+02  0.17397814216E+02  0.26000000000E-02 0.  1.
         -2   -1    0    0    0  501 -0.00000000000E+00 -0.00000000000E+00 -0.12049544176E+02  0.12049544457E+02  0.26000000000E-02 0. -1.
        -13    1    1    2    0    0  0.50908365809E+01 -0.12378024679E+02  0.82895240912E+01  0.15743554052E+02  0.10570000000E+00 0.  1.
         13    1    1    2    0    0 -0.50908365809E+01  0.12378024679E+02 -0.29412542454E+01  0.13703804621E+02  0.10570000000E+00 0. -1.
<mgrwt>
<rscale>  0 0.28957606E+02</rscale>
<asrwt>0</asrwt>
<pdfrwt beam="1">  1        2 0.26765868E-02 0.28957606E+02</pdfrwt>
<pdfrwt beam="2">  1       -2 0.18537761E-02 0.28957606E+02</pdfrwt>
<totfact> 0.17322820E+06</totfact>
</mgrwt>
</event>
<event>
 4    1  0.3704929E-001  0.2795954E+02  0.7818608E-02  0.1621804E+00
          2   -1    0    0  501    0  0.00000000000E+00  0.00000000000E+00  0.10526785738E+02  0.10526786059E+02  0.26000000000E-02 0. -1.
         -2   -1    0    0    0  501 -0.00000000000E+00 -0.00000000000E+00 -0.18565404079E+02  0.18565404261E+02  0.26000000000E-02 0.  1.
        -13    1    1    2    0    0  0.71882068316E+01  0.71091386053E+01  0.60264753267E+01  0.11770290842E+02  0.10570000000E+00 0. -1.
         13    1    1    2    0    0 -0.71882068316E+01 -0.71091386053E+01 -0.14065093668E+02  0.17321899478E+02  0.10570000000E+00 0.  1.
<mgrwt>
<rscale>  0 0.27959545E+02</rscale>
<asrwt>0</asrwt>
<pdfrwt beam="1">  1        2 0.16195055E-02 0.27959545E+02</pdfrwt>
<pdfrwt beam="2">  1       -2 0.28562161E-02 0.27959545E+02</pdfrwt>
<totfact> 0.17952180E+06</totfact>
</mgrwt>
</event>
<event>
 4    1  0.3704929E-001  0.2253715E+02  0.7818608E-02  0.1699124E+00
          2   -1    0    0  501    0  0.00000000000E+00  0.00000000000E+00  0.19220135748E+02  0.19220135924E+02  0.26000000000E-02 0. -1.
         -2   -1    0    0    0  501 -0.00000000000E+00 -0.00000000000E+00 -0.66066538416E+01  0.66066543532E+01  0.26000000000E-02 0.  1.
        -13    1    1    2    0    0  0.65740415940E+00  0.11248635667E+02  0.63927683186E+01  0.12955409830E+02  0.10570000000E+00 0. -1.
         13    1    1    2    0    0 -0.65740415940E+00 -0.11248635667E+02  0.62207135876E+01  0.12871380447E+02  0.10570000000E+00 0.  1.
<mgrwt>
<rscale>  0 0.22537151E+02</rscale>
<asrwt>0</asrwt>
<pdfrwt beam="1">  1        2 0.29569440E-02 0.22537151E+02</pdfrwt>
<pdfrwt beam="2">  1       -2 0.10164083E-02 0.22537151E+02</pdfrwt>
<totfact> 0.31619985E+06</totfact>
</mgrwt>
</event>
<event>
 4    1  0.3704929E-001  0.2084218E+02  0.7818608E-02  0.1729081E+00
          2   -1    0    0  501    0  0.00000000000E+00  0.00000000000E+00  0.42215761798E+02  0.42215761878E+02  0.26000000000E-02 0.  1.
         -2   -1    0    0    0  501 -0.00000000000E+00 -0.00000000000E+00 -0.25724763597E+01  0.25724776736E+01  0.26000000000E-02 0. -1.
        -13    1    1    2    0    0 -0.10021003406E+02  0.85881503861E+00  0.13964166697E+02  0.17209508900E+02  0.10570000000E+00 0.  1.
         13    1    1    2    0    0  0.10021003406E+02 -0.85881503861E+00  0.25679118741E+02  0.27578730651E+02  0.10570000000E+00 0. -1.
<mgrwt>
<rscale>  0 0.20842177E+02</rscale>
<asrwt>0</asrwt>
<pdfrwt beam="1">  1        2 0.64947326E-02 0.20842177E+02</pdfrwt>
<pdfrwt beam="2">  1       -2 0.39576571E-03 0.20842177E+02</pdfrwt>
<totfact> 0.41225502E+06</totfact>
</mgrwt>
</event>
<event>
 4    1  0.3704929E-001  0.5145867E+02  0.7818608E-02  0.1437629E+00
         -2   -1    0    0    0  501 -0.00000000000E+00  0.00000000000E+00  0.36169464302E+02  0.36169464396E+02  0.26000000000E-02 0. -1.
          2   -1    0    0  501    0  0.00000000000E+00 -0.00000000000E+00 -0.18302695411E+02  0.18302695596E+02  0.26000000000E-02 0.  1.
        -13    1    1    2    0    0 -0.58480796176E+01 -0.18577908282E+02  0.26730090052E+02  0.33073366899E+02  0.10570000000E+00 0. -1.
         13    1    1    2    0    0  0.58480796176E+01  0.18577908282E+02 -0.88633211605E+01  0.21398793093E+02  0.10570000000E+00 0.  1.
<mgrwt>
<rscale>  0 0.51458671E+02</rscale>
<asrwt>0</asrwt>
<pdfrwt beam="2">  1        2 0.28157993E-02 0.51458671E+02</pdfrwt>
<pdfrwt beam="1">  1       -2 0.55645330E-02 0.51458671E+02</pdfrwt>
<totfact> 0.40194465E+05</totfact>
</mgrwt>
</event>
<event>
 4    1  0.3704929E-001  0.3870921E+02  0.7818608E-02  0.1517931E+00
          2   -1    0    0  501    0  0.00000000000E+00  0.00000000000E+00  0.23283555130E+02  0.23283555275E+02  0.26000000000E-02 0. -1.
         -2   -1    0    0    0  501 -0.00000000000E+00 -0.00000000000E+00 -0.16088638308E+02  0.16088638518E+02  0.26000000000E-02 0.  1.
        -13    1    1    2    0    0 -0.13104677343E+02  0.10731601259E+02  0.13122121228E+02  0.21426643971E+02  0.10570000000E+00 0. -1.
         13    1    1    2    0    0  0.13104677343E+02 -0.10731601259E+02 -0.59272044058E+01  0.17945549822E+02  0.10570000000E+00 0.  1.
<mgrwt>
<rscale>  0 0.38709208E+02</rscale>
<asrwt>0</asrwt>
<pdfrwt beam="1">  1        2 0.35820854E-02 0.38709208E+02</pdfrwt>
<pdfrwt beam="2">  1       -2 0.24751752E-02 0.38709208E+02</pdfrwt>
<totfact> 0.87389074E+05</totfact>
</mgrwt>
</event>
<event>
 4    1  0.3704929E-001  0.2805728E+02  0.7818608E-02  0.1620612E+00
          2   -1    0    0  501    0  0.00000000000E+00  0.00000000000E+00  0.63437693834E+02  0.63437693888E+02  0.26000000000E-02 0. -1.
         -2   -1    0    0    0  501 -0.00000000000E+00 -0.00000000000E+00 -0.31022996286E+01  0.31023007181E+01  0.26000000000E-02 0.  1.
        -13    1    1    2    0    0  0.12547772795E+02 -0.12163924627E+01  0.44761160018E+02  0.46502675529E+02  0.10570000000E+00 0. -1.
         13    1    1    2    0    0 -0.12547772795E+02  0.12163924627E+01  0.15574234188E+02  0.20037319077E+02  0.10570000000E+00 0.  1.
<mgrwt>
<rscale>  0 0.28057282E+02</rscale>
<asrwt>0</asrwt>
<pdfrwt beam="1">  1        2 0.97596453E-02 0.28057282E+02</pdfrwt>
<pdfrwt beam="2">  1       -2 0.47727696E-03 0.28057282E+02</pdfrwt>
<totfact> 0.22206000E+06</totfact>
</mgrwt>
</event>
<event>
 4    1  0.3704929E-001  0.2922072E+02  0.7818608E-02  0.1606866E+00
         -2   -1    0    0    0  501 -0.00000000000E+00  0.00000000000E+00  0.19770125973E+02  0.19770126144E+02  0.26000000000E-02 0.  1.
          2   -1    0    0  501    0  0.00000000000E+00 -0.00000000000E+00 -0.10797233458E+02  0.10797233771E+02  0.26000000000E-02 0. -1.
        -13    1    1    2    0    0  0.93310428592E+01 -0.74160036419E+01 -0.43519522111E+01  0.12689213191E+02  0.10570000000E+00 0. -1.
         13    1    1    2    0    0 -0.93310428592E+01  0.74160036419E+01  0.13324844726E+02  0.17878146725E+02  0.10570000000E+00 0.  1.
<mgrwt>
<rscale>  0 0.29220724E+02</rscale>
<asrwt>0</asrwt>
<pdfrwt beam="2">  1        2 0.16611129E-02 0.29220724E+02</pdfrwt>
<pdfrwt beam="1">  1       -2 0.30415579E-02 0.29220724E+02</pdfrwt>
<totfact> 0.16153492E+06</totfact>
</mgrwt>
</event>
<event>
 4    1  0.3704929E-001  0.2060308E+02  0.7818608E-02  0.1733594E+00
         -2   -1    0    0    0  501 -0.00000000000E+00  0.00000000000E+00  0.81669741334E+02  0.81669741375E+02  0.26000000000E-02 0. -1.
          2   -1    0    0  501    0  0.00000000000E+00 -0.00000000000E+00 -0.12993996433E+01  0.12994022445E+01  0.26000000000E-02 0.  1.
        -13    1    1    2    0    0 -0.28619819735E+01 -0.98383262835E+01  0.44460205537E+02  0.45625701680E+02  0.10570000000E+00 0. -1.
         13    1    1    2    0    0  0.28619819735E+01  0.98383262835E+01  0.35910136153E+02  0.37343441940E+02  0.10570000000E+00 0.  1.
<mgrwt>
<rscale>  0 0.20603082E+02</rscale>
<asrwt>0</asrwt>
<pdfrwt beam="2">  1        2 0.19990782E-03 0.20603082E+02</pdfrwt>
<pdfrwt beam="1">  1       -2 0.12564577E-01 0.20603082E+02</pdfrwt>
<totfact> 0.29164763E+06</totfact>
</mgrwt>
</event>
<event>
 4    1  0.3704929E-001  0.2025456E+02  0.7818608E-02  0.1740313E+00
          2   -1    0    0  501    0  0.00000000000E+00  0.00000000000E+00  0.48141498900E+02  0.48141498970E+02  0.26000000000E-02 0. -1.
         -2   -1    0    0    0  501 -0.00000000000E+00 -0.00000000000E+00 -0.21304220791E+01  0.21304236656E+01  0.26000000000E-02 0.  1.
        -13    1    1    2    0    0  0.86003791583E+01  0.53463942876E+01  0.22977481069E+02  0.25110282004E+02  0.10570000000E+00 0.  1.
         13    1    1    2    0    0 -0.86003791583E+01 -0.53463942876E+01  0.23033595752E+02  0.25161640632E+02  0.10570000000E+00 0. -1.
<mgrwt>
<rscale>  0 0.20254555E+02</rscale>
<asrwt>0</asrwt>
<pdfrwt beam="1">  1        2 0.74063844E-02 0.20254555E+02</pdfrwt>
<pdfrwt beam="2">  1       -2 0.32775738E-03 0.20254555E+02</pdfrwt>
<totfact> 0.44785700E+06</totfact>
</mgrwt>
</event>
<event>
 4    1  0.3704929E-001  0.4901397E+02  0.7818608E-02  0.1450734E+00
          2   -1    0    0  501    0  0.00000000000E+00  0.00000000000E+00  0.17983434060E+03  0.17983434062E+03  0.26000000000E-02 0. -1.
         -2   -1    0    0    0  501 -0.00000000000E+00 -0.00000000000E+00 -0.33396972937E+01  0.33396983058E+01  0.26000000000E-02 0.  1.
        -13    1    1    2    0    0  0.20492911679E+02  0.97938657009E+01  0.53852685032E+02  0.58446574682E+02  0.10570000000E+00 0.  1.
         13    1    1    2    0    0 -0.20492911679E+02 -0.97938657009E+01  0.12264195827E+03  0.12472746424E+03  0.10570000000E+00 0. -1.
<mgrwt>
<rscale>  0 0.49013972E+02</rscale>
<asrwt>0</asrwt>
<pdfrwt beam="1">  1        2 0.27666827E-01 0.49013972E+02</pdfrwt>
<pdfrwt beam="2">  1       -2 0.51379957E-03 0.49013972E+02</pdfrwt>
<totfact> 0.74730839E+05</totfact>
</mgrwt>
</event>
<event>
 4    1  0.3704929E-001  0.3170041E+02  0.7818608E-02  0.1580019E+00
          2   -1    0    0  501    0  0.00000000000E+00  0.00000000000E+00  0.99547081119E+02  0.99547081153E+02  0.26000000000E-02 0.  1.
         -2   -1    0    0    0  501 -0.00000000000E+00 -0.00000000000E+00 -0.25237193188E+01  0.25237206581E+01  0.26000000000E-02 0. -1.
        -13    1    1    2    0    0  0.14351097695E+02 -0.64483618991E+01  0.54690463768E+02  0.56908640608E+02  0.10570000000E+00 0.  1.
         13    1    1    2    0    0 -0.14351097695E+02  0.64483618991E+01  0.42332898032E+02  0.45162161203E+02  0.10570000000E+00 0. -1.
<mgrwt>
<rscale>  0 0.31700408E+02</rscale>
<asrwt>0</asrwt>
<pdfrwt beam="1">  1        2 0.15314939E-01 0.31700408E+02</pdfrwt>
<pdfrwt beam="2">  1       -2 0.38826453E-03 0.31700408E+02</pdfrwt>
<totfact> 0.18315657E+06</totfact>
</mgrwt>
</event>
<event>
 4    1  0.3704929E-001  0.2903811E+02  0.7818608E-02  0.1608971E+00
          2   -1    0    0  501    0  0.00000000000E+00  0.00000000000E+00  0.39231804130E+02  0.39231804216E+02  0.26000000000E-02 0.  1.
         -2   -1    0    0    0  501 -0.00000000000E+00 -0.00000000000E+00 -0.53732684276E+01  0.53732690567E+01  0.26000000000E-02 0. -1.
        -13    1    1    2    0    0  0.46718441643E+01  0.13746268702E+02  0.16812012601E+02  0.22213531266E+02  0.10570000000E+00 0.  1.
         13    1    1    2    0    0 -0.46718441643E+01 -0.13746268702E+02  0.17046523101E+02  0.22391542007E+02  0.10570000000E+00 0. -1.
<mgrwt>
<rscale>  0 0.29038115E+02</rscale>
<asrwt>0</asrwt>
<pdfrwt beam="1">  1        2 0.60356622E-02 0.29038115E+02</pdfrwt>
<pdfrwt beam="2">  1       -2 0.82665673E-03 0.29038115E+02</pdfrwt>
<totfact> 0.18937202E+06</totfact>
</mgrwt>
</event>
<event>
 4    1  0.3704929E-001  0.2791918E+02  0.7818608E-02  0.1622298E+00
         -2   -1    0    0    0  501 -0.00000000000E+00  0.00000000000E+00  0.20977084103E+01  0.20977100216E+01  0.26000000000E-02 0. -1.
          2   -1    0    0  501    0  0.00000000000E+00 -0.00000000000E+00 -0.92896671610E+02  0.92896671647E+02  0.26000000000E-02 0.  1.
        -13    1    1    2    0    0  0.49154586309E+01  0.12092173161E+02 -0.62232856184E+02  0.63587120918E+02  0.10570000000E+00 0. -1.
         13    1    1    2    0    0 -0.49154586309E+01 -0.12092173161E+02 -0.28566107016E+02  0.31407260750E+02  0.10570000000E+00 0.  1.
<mgrwt>
<rscale>  0 0.27919184E+02</rscale>
<asrwt>0</asrwt>
<pdfrwt beam="2">  1        2 0.14291793E-01 0.27919184E+02</pdfrwt>
<pdfrwt beam="1">  1       -2 0.32272457E-03 0.27919184E+02</pdfrwt>
<totfact> 0.24310700E+06</totfact>
</mgrwt>
</event>
<event>
 4    1  0.3704929E-001  0.2438479E+02  0.7818608E-02  0.1669999E+00
          2   -1    0    0  501    0  0.00000000000E+00  0.00000000000E+00  0.89156385994E+02  0.89156386032E+02  0.26000000000E-02 0.  1.
         -2   -1    0    0    0  501 -0.00000000000E+00 -0.00000000000E+00 -0.16673442550E+01  0.16673462822E+01  0.26000000000E-02 0. -1.
        -13    1    1    2    0    0  0.11351071694E+02 -0.23093578907E+01  0.29579580669E+02  0.31767006902E+02  0.10570000000E+00 0. -1.
         13    1    1    2    0    0 -0.11351071694E+02  0.23093578907E+01  0.57909461070E+02  0.59056725412E+02  0.10570000000E+00 0.  1.
<mgrwt>
<rscale>  0 0.24384789E+02</rscale>
<asrwt>0</asrwt>
<pdfrwt beam="1">  1        2 0.13716367E-01 0.24384789E+02</pdfrwt>
<pdfrwt beam="2">  1       -2 0.25651467E-03 0.24384789E+02</pdfrwt>
<totfact> 0.32938306E+06</totfact>
</mgrwt>
</event>
<event>
 4    1  0.3704929E-001  0.2139517E+02  0.7818608E-02  0.1718927E+00
         -2   -1    0    0    0  501 -0.00000000000E+00  0.00000000000E+00  0.20353520115E+02  0.20353520281E+02  0.26000000000E-02 0. -1.
          2   -1    0    0  501    0  0.00000000000E+00 -0.00000000000E+00 -0.56225307725E+01  0.56225313737E+01  0.26000000000E-02 0.  1.
        -13    1    1    2    0    0 -0.87364885383E+01 -0.61360287299E+01  0.81799886335E+01  0.13449924427E+02  0.10570000000E+00 0.  1.
         13    1    1    2    0    0  0.87364885383E+01  0.61360287299E+01  0.65510007092E+01  0.12526127228E+02  0.10570000000E+00 0. -1.
<mgrwt>
<rscale>  0 0.21395168E+02</rscale>
<asrwt>0</asrwt>
<pdfrwt beam="2">  1        2 0.86500479E-03 0.21395168E+02</pdfrwt>
<pdfrwt beam="1">  1       -2 0.31313109E-02 0.21395168E+02</pdfrwt>
<totfact> 0.32261812E+06</totfact>
</mgrwt>
</event>
<event>
 4    1  0.3704929E-001  0.2379937E+02  0.7818608E-02  0.1678871E+00
         -2   -1    0    0    0  501 -0.00000000000E+00  0.00000000000E+00  0.93744781299E+01  0.93744784904E+01  0.26000000000E-02 0.  1.
          2   -1    0    0  501    0  0.00000000000E+00 -0.00000000000E+00 -0.15105106507E+02  0.15105106731E+02  0.26000000000E-02 0. -1.
        -13    1    1    2    0    0 -0.10542706704E+02  0.36183368674E+00  0.27976525946E+01  0.10914101924E+02  0.10570000000E+00 0. -1.
         13    1    1    2    0    0  0.10542706704E+02 -0.36183368674E+00 -0.85282809722E+01  0.13565483298E+02  0.10570000000E+00 0.  1.
<mgrwt>
<rscale>  0 0.23799370E+02</rscale>
<asrwt>0</asrwt>
<pdfrwt beam="2">  1        2 0.23238626E-02 0.23799370E+02</pdfrwt>
<pdfrwt beam="1">  1       -2 0.14422275E-02 0.23799370E+02</pdfrwt>
<totfact> 0.27268109E+06</totfact>
</mgrwt>
</event>
<event>
 4    1  0.3704929E-001  0.3807118E+02  0.7818608E-02  0.1522905E+00
          2   -1    0    0  501    0  0.00000000000E+00  0.00000000000E+00  0.14668663452E+02  0.14668663683E+02  0.26000000000E-02 0. -1.
         -2   -1    0    0    0  501 -0.00000000000E+00 -0.00000000000E+00 -0.24702575520E+02  0.24702575657E+02  0.26000000000E-02 0.  1.
        -13    1    1    2    0    0  0.20448888308E+00  0.16516928317E+02  0.47660985004E+01  0.17192370521E+02  0.10570000000E+00 0. -1.
         13    1    1    2    0    0 -0.20448888308E+00 -0.16516928317E+02 -0.14800010569E+02  0.22178868818E+02  0.10570000000E+00 0.  1.
<mgrwt>
<rscale>  0 0.38071185E+02</rscale>
<asrwt>0</asrwt>
<pdfrwt beam="1">  1        2 0.22567175E-02 0.38071185E+02</pdfrwt>
<pdfrwt beam="2">  1       -2 0.38003963E-02 0.38071185E+02</pdfrwt>
<totfact> 0.85991705E+05</totfact>
</mgrwt>
</event>
<event>
 4    1  0.3704929E-001  0.4483685E+02  0.7818608E-02  0.1475363E+00
          2   -1    0    0  501    0  0.00000000000E+00  0.00000000000E+00  0.71881876657E+02  0.71881876704E+02  0.26000000000E-02 0.  1.
         -2   -1    0    0    0  501 -0.00000000000E+00 -0.00000000000E+00 -0.69918285638E+01  0.69918290472E+01  0.26000000000E-02 0. -1.
        -13    1    1    2    0    0  0.16658870783E+02 -0.14985302382E+02  0.31204442187E+02  0.38416215950E+02  0.10570000000E+00 0. -1.
         13    1    1    2    0    0 -0.16658870783E+02  0.14985302382E+02  0.33685605906E+02  0.40457489801E+02  0.10570000000E+00 0.  1.
<mgrwt>
<rscale>  0 0.44836850E+02</rscale>
<asrwt>0</asrwt>
<pdfrwt beam="1">  1        2 0.11058750E-01 0.44836850E+02</pdfrwt>
<pdfrwt beam="2">  1       -2 0.10756660E-02 0.44836850E+02</pdfrwt>
<totfact> 0.72842038E+05</totfact>
</mgrwt>
</event>
<event>
 4    1  0.3704929E-001  0.2503618E+02  0.7818608E-02  0.1660483E+00
          2   -1    0    0  501    0  0.00000000000E+00  0.00000000000E+00  0.76361862025E+01  0.76361866451E+01  0.26000000000E-02 0. -1.
         -2   -1    0    0    0  501 -0.00000000000E+00 -0.00000000000E+00 -0.20521044831E+02  0.20521044996E+02  0.26000000000E-02 0.  1.
        -13    1    1    2    0    0 -0.35252753795E+01  0.11893133157E+02 -0.45547479449E+01  0.13214805490E+02  0.10570000000E+00 0.  1.
         13    1    1    2    0    0  0.35252753795E+01 -0.11893133157E+02 -0.83301106835E+01  0.14942426151E+02  0.10570000000E+00 0. -1.
<mgrwt>
<rscale>  0 0.25036176E+02</rscale>
<asrwt>0</asrwt>
<pdfrwt beam="1">  1        2 0.11747979E-02 0.25036176E+02</pdfrwt>
<pdfrwt beam="2">  1       -2 0.31570838E-02 0.25036176E+02</pdfrwt>
<totfact> 0.22773606E+06</totfact>
</mgrwt>
</event>
<event>
 4    1  0.3704929E-001  0.3611952E+02  0.7818608E-02  0.1538878E+00
         -2   -1    0    0    0  501 -0.00000000000E+00  0.00000000000E+00  0.54203170408E+02  0.54203170470E+02  0.26000000000E-02 0.  1.
          2   -1    0    0  501    0  0.00000000000E+00 -0.00000000000E+00 -0.60172671558E+01  0.60172677175E+01  0.26000000000E-02 0. -1.
        -13    1    1    2    0    0  0.12910871104E+02  0.90740630640E+01  0.94519702281E+01  0.18395111493E+02  0.10570000000E+00 0. -1.
         13    1    1    2    0    0 -0.12910871104E+02 -0.90740630640E+01  0.38733933024E+02  0.41825326695E+02  0.10570000000E+00 0.  1.
<mgrwt>
<rscale>  0 0.36119522E+02</rscale>
<asrwt>0</asrwt>
<pdfrwt beam="2">  1        2 0.92573344E-03 0.36119522E+02</pdfrwt>
<pdfrwt beam="1">  1       -2 0.83389495E-02 0.36119522E+02</pdfrwt>
<totfact> 0.87212140E+05</totfact>
</mgrwt>
</event>
<event>
 4    1  0.3704929E-001  0.2370890E+02  0.7818608E-02  0.1680270E+00
          2   -1    0    0  501    0  0.00000000000E+00  0.00000000000E+00  0.73365314476E+02  0.73365314522E+02  0.26000000000E-02 0. -1.
         -2   -1    0    0    0  501 -0.00000000000E+00 -0.00000000000E+00 -0.19154542652E+01  0.19154560298E+01  0.26000000000E-02 0.  1.
        -13    1    1    2    0    0  0.10902651398E+02 -0.44405328780E+01  0.40136829682E+02  0.41827770789E+02  0.10570000000E+00 0. -1.
         13    1    1    2    0    0 -0.10902651398E+02  0.44405328780E+01  0.31313030529E+02  0.33452999763E+02  0.10570000000E+00 0.  1.
<mgrwt>
<rscale>  0 0.23708899E+02</rscale>
<asrwt>0</asrwt>
<pdfrwt beam="1">  1        2 0.11286971E-01 0.23708899E+02</pdfrwt>
<pdfrwt beam="2">  1       -2 0.29468543E-03 0.23708899E+02</pdfrwt>
<totfact> 0.33726588E+06</totfact>
</mgrwt>
</event>
<event>
 4    1  0.3704929E-001  0.4326268E+02  0.7818608E-02  0.1485488E+00
         -2   -1    0    0    0  501 -0.00000000000E+00  0.00000000000E+00  0.39688708527E+01  0.39688717043E+01  0.26000000000E-02 0. -1.
          2   -1    0    0  501    0  0.00000000000E+00 -0.00000000000E+00 -0.11789621978E+03  0.11789621981E+03  0.26000000000E-02 0.  1.
        -13    1    1    2    0    0  0.10816673577E+01 -0.21338270025E+02 -0.47447851216E+02  0.52036540329E+02  0.10570000000E+00 0. -1.
         13    1    1    2    0    0 -0.10816673577E+01  0.21338270025E+02 -0.66479497709E+02  0.69828551182E+02  0.10570000000E+00 0.  1.
<mgrwt>
<rscale>  0 0.43262682E+02</rscale>
<asrwt>0</asrwt>
<pdfrwt beam="2">  1        2 0.18137877E-01 0.43262682E+02</pdfrwt>
<pdfrwt beam="1">  1       -2 0.61059567E-03 0.43262682E+02</pdfrwt>
<totfact> 0.89897344E+05</totfact>
</mgrwt>
</event>
<event>
 4    1  0.3704929E-001  0.3189022E+02  0.7818608E-02  0.1578088E+00
         -2   -1    0    0    0  501 -0.00000000000E+00  0.00000000000E+00  0.40775617961E+01  0.40775626250E+01  0.26000000000E-02 0. -1.
          2   -1    0    0  501    0  0.00000000000E+00 -0.00000000000E+00 -0.62352586983E+02  0.62352587037E+02  0.26000000000E-02 0.  1.
        -13    1    1    2    0    0 -0.30771109261E+01 -0.11652099473E+02 -0.73898953744E+01  0.14137247254E+02  0.10570000000E+00 0. -1.
         13    1    1    2    0    0  0.30771109261E+01  0.11652099473E+02 -0.50885129813E+02  0.52292902409E+02  0.10570000000E+00 0.  1.
<mgrwt>
<rscale>  0 0.31890221E+02</rscale>
<asrwt>0</asrwt>
<pdfrwt beam="2">  1        2 0.95927051E-02 0.31890221E+02</pdfrwt>
<pdfrwt beam="1">  1       -2 0.62731731E-03 0.31890221E+02</pdfrwt>
<totfact> 0.16332735E+06</totfact>
</mgrwt>
</event>
<event>
 4    1  0.3704929E-001  0.3493233E+02  0.7818608E-02  0.1549202E+00
         -2   -1    0    0    0  501 -0.00000000000E+00  0.00000000000E+00  0.12443421015E+03  0.12443421017E+03  0.26000000000E-02 0. -1.
          2   -1    0    0  501    0  0.00000000000E+00 -0.00000000000E+00 -0.24516311121E+01  0.24516324907E+01  0.26000000000E-02 0.  1.
        -13    1    1    2    0    0 -0.14496786359E+02  0.97380161893E+01  0.61951790280E+02  0.64366305358E+02  0.10570000000E+00 0. -1.
         13    1    1    2    0    0  0.14496786359E+02 -0.97380161893E+01  0.60030788754E+02  0.62519537306E+02  0.10570000000E+00 0.  1.
<mgrwt>
<rscale>  0 0.34932327E+02</rscale>
<asrwt>0</asrwt>
<pdfrwt beam="2">  1        2 0.37717417E-03 0.34932327E+02</pdfrwt>
<pdfrwt beam="1">  1       -2 0.19143723E-01 0.34932327E+02</pdfrwt>
<totfact> 0.78858934E+05</totfact>
</mgrwt>
</event>
<event>
 4    1  0.3704929E-001  0.5789459E+02  0.7818608E-02  0.1406886E+00
         -2   -1    0    0    0  501 -0.00000000000E+00  0.00000000000E+00  0.35330398779E+01  0.35330408346E+01  0.26000000000E-02 0.  1.
          2   -1    0    0  501    0  0.00000000000E+00 -0.00000000000E+00 -0.23717418801E+03  0.23717418802E+03  0.26000000000E-02 0. -1.
        -13    1    1    2    0    0  0.25777884596E+02  0.13136538579E+02 -0.11294962270E+03  0.11659629677E+03  0.10570000000E+00 0. -1.
         13    1    1    2    0    0 -0.25777884596E+02 -0.13136538579E+02 -0.12069152544E+03  0.12411093209E+03  0.10570000000E+00 0.  1.
<mgrwt>
<rscale>  0 0.57894593E+02</rscale>
<asrwt>0</asrwt>
<pdfrwt beam="2">  1        2 0.36488324E-01 0.57894593E+02</pdfrwt>
<pdfrwt beam="1">  1       -2 0.54354486E-03 0.57894593E+02</pdfrwt>
<totfact> 0.53889263E+05</totfact>
</mgrwt>
</event>
<event>
 4    1  0.3704929E-001  0.3828098E+02  0.7818608E-02  0.1521257E+00
         -2   -1    0    0    0  501 -0.00000000000E+00  0.00000000000E+00  0.14414440633E+02  0.14414440868E+02  0.26000000000E-02 0. -1.
          2   -1    0    0  501    0  0.00000000000E+00 -0.00000000000E+00 -0.25416065278E+02  0.25416065411E+02  0.26000000000E-02 0.  1.
        -13    1    1    2    0    0  0.85200793296E+01 -0.57244684394E+01 -0.22309789998E+02  0.24558077957E+02  0.10570000000E+00 0.  1.
         13    1    1    2    0    0 -0.85200793296E+01  0.57244684394E+01  0.11308165353E+02  0.15272428322E+02  0.10570000000E+00 0. -1.
<mgrwt>
<rscale>  0 0.38280981E+02</rscale>
<asrwt>0</asrwt>
<pdfrwt beam="2">  1        2 0.39101639E-02 0.38280981E+02</pdfrwt>
<pdfrwt beam="1">  1       -2 0.22176063E-02 0.38280981E+02</pdfrwt>
<totfact> 0.90911624E+05</totfact>
</mgrwt>
</event>
<event>
 4    1  0.3704929E-001  0.2171684E+02  0.7818608E-02  0.1713196E+00
          2   -1    0    0  501    0  0.00000000000E+00  0.00000000000E+00  0.15671513322E+02  0.15671513538E+02  0.26000000000E-02 0. -1.
         -2   -1    0    0    0  501 -0.00000000000E+00 -0.00000000000E+00 -0.75235384075E+01  0.75235388567E+01  0.26000000000E-02 0.  1.
        -13    1    1    2    0    0  0.10312826526E+02 -0.20698232189E+01  0.69509402500E+01  0.12608144271E+02  0.10570000000E+00 0.  1.
         13    1    1    2    0    0 -0.10312826526E+02  0.20698232189E+01  0.11970346644E+01  0.10586908123E+02  0.10570000000E+00 0. -1.
<mgrwt>
<rscale>  0 0.21716836E+02</rscale>
<asrwt>0</asrwt>
<pdfrwt beam="1">  1        2 0.24110021E-02 0.21716836E+02</pdfrwt>
<pdfrwt beam="2">  1       -2 0.11574675E-02 0.21716836E+02</pdfrwt>
<totfact> 0.33830354E+06</totfact>
</mgrwt>
</event>
<event>
 4    1  0.3704929E-001  0.2136352E+02  0.7818608E-02  0.1719498E+00
         -2   -1    0    0    0  501 -0.00000000000E+00  0.00000000000E+00  0.31267993523E+02  0.31267993631E+02  0.26000000000E-02 0. -1.
          2   -1    0    0  501    0  0.00000000000E+00 -0.00000000000E+00 -0.36490966059E+01  0.36490975322E+01  0.26000000000E-02 0.  1.
        -13    1    1    2    0    0  0.89880315512E+01 -0.49245853255E+01  0.88918829547E+01  0.13568824811E+02  0.10570000000E+00 0. -1.
         13    1    1    2    0    0 -0.89880315512E+01  0.49245853255E+01  0.18727013962E+02  0.21348266352E+02  0.10570000000E+00 0.  1.
<mgrwt>
<rscale>  0 0.21363515E+02</rscale>
<asrwt>0</asrwt>
<pdfrwt beam="2">  1        2 0.56139959E-03 0.21363515E+02</pdfrwt>
<pdfrwt beam="1">  1       -2 0.48104604E-02 0.21363515E+02</pdfrwt>
<totfact> 0.31072848E+06</totfact>
</mgrwt>
</event>
<event>
 4    1  0.3704929E-001  0.2739894E+02  0.7818608E-02  0.1628758E+00
          2   -1    0    0  501    0  0.00000000000E+00  0.00000000000E+00  0.28177650957E+01  0.28177662953E+01  0.26000000000E-02 0. -1.
         -2   -1    0    0    0  501 -0.00000000000E+00 -0.00000000000E+00 -0.66604340021E+02  0.66604340071E+02  0.26000000000E-02 0.  1.
        -13    1    1    2    0    0 -0.12145833813E+02  0.34266329499E+01 -0.18390229057E+02  0.22304142881E+02  0.10570000000E+00 0. -1.
         13    1    1    2    0    0  0.12145833813E+02 -0.34266329499E+01 -0.45396345868E+02  0.47117963486E+02  0.10570000000E+00 0.  1.
<mgrwt>
<rscale>  0 0.27398936E+02</rscale>
<asrwt>0</asrwt>
<pdfrwt beam="1">  1        2 0.43350247E-03 0.27398936E+02</pdfrwt>
<pdfrwt beam="2">  1       -2 0.10246820E-01 0.27398936E+02</pdfrwt>
<totfact> 0.16000669E+06</totfact>
</mgrwt>
</event>
<event>
 4    1  0.3704929E-001  0.3867573E+02  0.7818608E-02  0.1518189E+00
         -2   -1    0    0    0  501 -0.00000000000E+00  0.00000000000E+00  0.77082769325E+02  0.77082769369E+02  0.26000000000E-02 0.  1.
          2   -1    0    0  501    0  0.00000000000E+00 -0.00000000000E+00 -0.48513167688E+01  0.48513174655E+01  0.26000000000E-02 0. -1.
        -13    1    1    2    0    0 -0.10903585473E+02 -0.14834193840E+02  0.23582523810E+02  0.29918022742E+02  0.10570000000E+00 0.  1.
         13    1    1    2    0    0  0.10903585473E+02  0.14834193840E+02  0.48648928747E+02  0.52016064093E+02  0.10570000000E+00 0. -1.
<mgrwt>
<rscale>  0 0.38675727E+02</rscale>
<asrwt>0</asrwt>
<pdfrwt beam="2">  1        2 0.74635648E-03 0.38675727E+02</pdfrwt>
<pdfrwt beam="1">  1       -2 0.11858888E-01 0.38675727E+02</pdfrwt>
<totfact> 0.69553484E+05</totfact>
</mgrwt>
</event>
<event>
 4    1  0.3704929E-001  0.3181961E+02  0.7818608E-02  0.1578804E+00
         -2   -1    0    0    0  501 -0.00000000000E+00  0.00000000000E+00  0.41239972287E+01  0.41239980483E+01  0.26000000000E-02 0.  1.
          2   -1    0    0  501    0  0.00000000000E+00 -0.00000000000E+00 -0.61377792744E+02  0.61377792799E+02  0.26000000000E-02 0. -1.
        -13    1    1    2    0    0  0.33995126620E+01  0.12110246819E+02 -0.48680026954E+02  0.50278931583E+02  0.10570000000E+00 0. -1.
         13    1    1    2    0    0 -0.33995126620E+01 -0.12110246819E+02 -0.85737685610E+01  0.15222859264E+02  0.10570000000E+00 0.  1.
<mgrwt>
<rscale>  0 0.31819609E+02</rscale>
<asrwt>0</asrwt>
<pdfrwt beam="2">  1        2 0.94427368E-02 0.31819609E+02</pdfrwt>
<pdfrwt beam="1">  1       -2 0.63446122E-03 0.31819609E+02</pdfrwt>
<totfact> 0.16371345E+06</totfact>
</mgrwt>
</event>
<event>
 4    1  0.3704929E-001  0.2515820E+02  0.7818608E-02  0.1658740E+00
         -2   -1    0    0    0  501 -0.00000000000E+00  0.00000000000E+00  0.44015388370E+01  0.44015396049E+01  0.26000000000E-02 0.  1.
          2   -1    0    0  501    0  0.00000000000E+00 -0.00000000000E+00 -0.35949640834E+02  0.35949640928E+02  0.26000000000E-02 0. -1.
        -13    1    1    2    0    0 -0.12479617710E+02 -0.13936578384E+01 -0.16952064310E+02  0.21096606296E+02  0.10570000000E+00 0. -1.
         13    1    1    2    0    0  0.12479617710E+02  0.13936578384E+01 -0.14596037687E+02  0.19254574236E+02  0.10570000000E+00 0.  1.
<mgrwt>
<rscale>  0 0.25158200E+02</rscale>
<asrwt>0</asrwt>
<pdfrwt beam="2">  1        2 0.55307139E-02 0.25158200E+02</pdfrwt>
<pdfrwt beam="1">  1       -2 0.67715991E-03 0.25158200E+02</pdfrwt>
<totfact> 0.26229209E+06</totfact>
</mgrwt>
</event>
<event>
 4    1  0.3704929E-001  0.2295920E+02  0.7818608E-02  0.1692172E+00
         -2   -1    0    0    0  501 -0.00000000000E+00  0.00000000000E+00  0.38336261850E+02  0.38336261938E+02  0.26000000000E-02 0.  1.
          2   -1    0    0  501    0  0.00000000000E+00 -0.00000000000E+00 -0.34375062639E+01  0.34375072471E+01  0.26000000000E-02 0. -1.
        -13    1    1    2    0    0 -0.83289275805E+01 -0.57615822681E+01  0.27281825954E+02  0.29101135111E+02  0.10570000000E+00 0.  1.
         13    1    1    2    0    0  0.83289275805E+01  0.57615822681E+01  0.76169296324E+01  0.12672634075E+02  0.10570000000E+00 0. -1.
<mgrwt>
<rscale>  0 0.22959195E+02</rscale>
<asrwt>0</asrwt>
<pdfrwt beam="2">  1        2 0.52884721E-03 0.22959195E+02</pdfrwt>
<pdfrwt beam="1">  1       -2 0.58978864E-02 0.22959195E+02</pdfrwt>
<totfact> 0.25883803E+06</totfact>
</mgrwt>
</event>
<event>
 4    1  0.3704929E-001  0.5769788E+02  0.7818608E-02  0.1407755E+00
          2   -1    0    0  501    0  0.00000000000E+00  0.00000000000E+00  0.49053777569E+02  0.49053777638E+02  0.26000000000E-02 0. -1.
         -2   -1    0    0    0  501 -0.00000000000E+00 -0.00000000000E+00 -0.16966302602E+02  0.16966302801E+02  0.26000000000E-02 0.  1.
        -13    1    1    2    0    0  0.22192564735E+02 -0.31037977417E+01  0.36833202281E+02  0.43114260433E+02  0.10570000000E+00 0. -1.
         13    1    1    2    0    0 -0.22192564735E+02  0.31037977417E+01 -0.47457273131E+01  0.22905820006E+02  0.10570000000E+00 0.  1.
<mgrwt>
<rscale>  0 0.57697877E+02</rscale>
<asrwt>0</asrwt>
<pdfrwt beam="1">  1        2 0.75467350E-02 0.57697877E+02</pdfrwt>
<pdfrwt beam="2">  1       -2 0.26102004E-02 0.57697877E+02</pdfrwt>
<totfact> 0.35203724E+05</totfact>
</mgrwt>
</event>
<event>
 4    1  0.3704929E-001  0.3409989E+02  0.7818608E-02  0.1556742E+00
          2   -1    0    0  501    0  0.00000000000E+00  0.00000000000E+00  0.77839536259E+02  0.77839536303E+02  0.26000000000E-02 0. -1.
         -2   -1    0    0    0  501 -0.00000000000E+00 -0.00000000000E+00 -0.37346137841E+01  0.37346146892E+01  0.26000000000E-02 0.  1.
        -13    1    1    2    0    0  0.18738340355E-02 -0.11815253639E+02  0.66457134064E+02  0.67499348608E+02  0.10570000000E+00 0. -1.
         13    1    1    2    0    0 -0.18738340355E-02  0.11815253639E+02  0.76477884114E+01  0.14074802384E+02  0.10570000000E+00 0.  1.
<mgrwt>
<rscale>  0 0.34099891E+02</rscale>
<asrwt>0</asrwt>
<pdfrwt beam="1">  1        2 0.11975312E-01 0.34099891E+02</pdfrwt>
<pdfrwt beam="2">  1       -2 0.57455610E-03 0.34099891E+02</pdfrwt>
<totfact> 0.14538496E+06</totfact>
</mgrwt>
</event>
<event>
 4    1  0.3704929E-001  0.2167389E+02  0.7818608E-02  0.1713954E+00
          2   -1    0    0  501    0  0.00000000000E+00  0.00000000000E+00  0.46490994869E+01  0.46491002139E+01  0.26000000000E-02 0. -1.
         -2   -1    0    0    0  501 -0.00000000000E+00 -0.00000000000E+00 -0.25260671681E+02  0.25260671815E+02  0.26000000000E-02 0.  1.
        -13    1    1    2    0    0 -0.48890451920E+01 -0.87986909264E+01 -0.47671395806E+01  0.11138066133E+02  0.10570000000E+00 0. -1.
         13    1    1    2    0    0  0.48890451920E+01  0.87986909264E+01 -0.15844432614E+02  0.18771705896E+02  0.10570000000E+00 0.  1.
<mgrwt>
<rscale>  0 0.21673891E+02</rscale>
<asrwt>0</asrwt>
<pdfrwt beam="1">  1        2 0.71524616E-03 0.21673891E+02</pdfrwt>
<pdfrwt beam="2">  1       -2 0.38862572E-02 0.21673891E+02</pdfrwt>
<totfact> 0.30751084E+06</totfact>
</mgrwt>
</event>
<event>
 4    1  0.3704929E-001  0.3101704E+02  0.7818608E-02  0.1587111E+00
         -2   -1    0    0    0  501 -0.00000000000E+00  0.00000000000E+00  0.31539065935E+02  0.31539066042E+02  0.26000000000E-02 0. -1.
          2   -1    0    0  501    0  0.00000000000E+00 -0.00000000000E+00 -0.76259138604E+01  0.76259143036E+01  0.26000000000E-02 0.  1.
        -13    1    1    2    0    0 -0.13313054971E+02 -0.79381587733E+01  0.12589487219E+02  0.19968929824E+02  0.10570000000E+00 0.  1.
         13    1    1    2    0    0  0.13313054971E+02  0.79381587733E+01  0.11323664855E+02  0.19196050522E+02  0.10570000000E+00 0. -1.
<mgrwt>
<rscale>  0 0.31017041E+02</rscale>
<asrwt>0</asrwt>
<pdfrwt beam="2">  1        2 0.11732176E-02 0.31017041E+02</pdfrwt>
<pdfrwt beam="1">  1       -2 0.48521641E-02 0.31017041E+02</pdfrwt>
<totfact> 0.13398422E+06</totfact>
</mgrwt>
</event>
<event>
 4    1  0.3704929E-001  0.3221167E+02  0.7818608E-02  0.1574854E+00
          2   -1    0    0  501    0  0.00000000000E+00  0.00000000000E+00  0.50743366151E+02  0.50743366218E+02  0.26000000000E-02 0.  1.
         -2   -1    0    0    0  501 -0.00000000000E+00 -0.00000000000E+00 -0.51119557251E+01  0.51119563863E+01  0.26000000000E-02 0. -1.
        -13    1    1    2    0    0 -0.11322547170E+02 -0.64852095122E+01  0.64452750556E+01  0.14553719795E+02  0.10570000000E+00 0. -1.
         13    1    1    2    0    0  0.11322547170E+02  0.64852095122E+01  0.39186135371E+02  0.41301602809E+02  0.10570000000E+00 0.  1.
<mgrwt>
<rscale>  0 0.32211666E+02</rscale>
<asrwt>0</asrwt>
<pdfrwt beam="1">  1        2 0.78066715E-02 0.32211666E+02</pdfrwt>
<pdfrwt beam="2">  1       -2 0.78645481E-03 0.32211666E+02</pdfrwt>
<totfact> 0.15370330E+06</totfact>
</mgrwt>
</event>
<event>
 4    1  0.3704929E-001  0.2582328E+02  0.7818608E-02  0.1649451E+00
          2   -1    0    0  501    0  0.00000000000E+00  0.00000000000E+00  0.13650574375E+02  0.13650574623E+02  0.26000000000E-02 0. -1.
         -2   -1    0    0    0  501 -0.00000000000E+00 -0.00000000000E+00 -0.12212703646E+02  0.12212703923E+02  0.26000000000E-02 0.  1.
        -13    1    1    2    0    0 -0.91517281765E+01  0.60062151494E+01  0.75757437875E+01  0.13312844004E+02  0.10570000000E+00 0. -1.
         13    1    1    2    0    0  0.91517281765E+01 -0.60062151494E+01 -0.61378730582E+01  0.12550434543E+02  0.10570000000E+00 0.  1.
<mgrwt>
<rscale>  0 0.25823278E+02</rscale>
<asrwt>0</asrwt>
<pdfrwt beam="1">  1        2 0.21000884E-02 0.25823278E+02</pdfrwt>
<pdfrwt beam="2">  1       -2 0.18788775E-02 0.25823278E+02</pdfrwt>
<totfact> 0.22282136E+06</totfact>
</mgrwt>
</event>
<event>
 4    1  0.3704929E-001  0.2364620E+02  0.7818608E-02  0.1681245E+00
          2   -1    0    0  501    0  0.00000000000E+00  0.00000000000E+00  0.11533566346E+02  0.11533566639E+02  0.26000000000E-02 0.  1.
         -2   -1    0    0    0  501 -0.00000000000E+00 -0.00000000000E+00 -0.12119897614E+02  0.12119897892E+02  0.26000000000E-02 0. -1.
        -13    1    1    2    0    0 -0.95372153548E+01 -0.68819178745E+01  0.91352482718E+00  0.11796820354E+02  0.10570000000E+00 0. -1.
         13    1    1    2    0    0  0.95372153548E+01  0.68819178745E+01 -0.14998560950E+01  0.11856644177E+02  0.10570000000E+00 0.  1.
<mgrwt>
<rscale>  0 0.23646196E+02</rscale>
<asrwt>0</asrwt>
<pdfrwt beam="1">  1        2 0.17743949E-02 0.23646196E+02</pdfrwt>
<pdfrwt beam="2">  1       -2 0.18645997E-02 0.23646196E+02</pdfrwt>
<totfact> 0.27053849E+06</totfact>
</mgrwt>
</event>
<event>
 4    1  0.3704929E-001  0.2109418E+02  0.7818608E-02  0.1724405E+00
         -2   -1    0    0    0  501 -0.00000000000E+00  0.00000000000E+00  0.30186939158E+02  0.30186939270E+02  0.26000000000E-02 0.  1.
          2   -1    0    0  501    0  0.00000000000E+00 -0.00000000000E+00 -0.36850729430E+01  0.36850738602E+01  0.26000000000E-02 0. -1.
        -13    1    1    2    0    0 -0.96191836506E+01 -0.31562317699E+01  0.17997939477E+02  0.20650120847E+02  0.10570000000E+00 0.  1.
         13    1    1    2    0    0  0.96191836506E+01  0.31562317699E+01  0.85039267380E+01  0.13221892283E+02  0.10570000000E+00 0. -1.
<mgrwt>
<rscale>  0 0.21094178E+02</rscale>
<asrwt>0</asrwt>
<pdfrwt beam="2">  1        2 0.56693440E-03 0.21094178E+02</pdfrwt>
<pdfrwt beam="1">  1       -2 0.46441444E-02 0.21094178E+02</pdfrwt>
<totfact> 0.32071214E+06</totfact>
</mgrwt>
</event>
<event>
 4    1  0.3704929E-001  0.2310472E+02  0.7818608E-02  0.1689818E+00
          2   -1    0    0  501    0  0.00000000000E+00  0.00000000000E+00  0.16169790272E+01  0.16169811175E+01  0.26000000000E-02 0.  1.
         -2   -1    0    0    0  501 -0.00000000000E+00 -0.00000000000E+00 -0.82534725250E+02  0.82534725291E+02  0.26000000000E-02 0. -1.
        -13    1    1    2    0    0  0.39351205194E+00  0.10252027627E+02 -0.59795735549E+02  0.60669597696E+02  0.10570000000E+00 0. -1.
         13    1    1    2    0    0 -0.39351205194E+00 -0.10252027627E+02 -0.21122010674E+02  0.23482108713E+02  0.10570000000E+00 0.  1.
<mgrwt>
<rscale>  0 0.23104719E+02</rscale>
<asrwt>0</asrwt>
<pdfrwt beam="1">  1        2 0.24876623E-03 0.23104719E+02</pdfrwt>
<pdfrwt beam="2">  1       -2 0.12697647E-01 0.23104719E+02</pdfrwt>
<totfact> 0.22576705E+06</totfact>
</mgrwt>
</event>
<event>
 4    1  0.3704929E-001  0.4057456E+02  0.7818608E-02  0.1504025E+00
         -2   -1    0    0    0  501 -0.00000000000E+00  0.00000000000E+00  0.37803852621E+02  0.37803852711E+02  0.26000000000E-02 0. -1.
          2   -1    0    0  501    0  0.00000000000E+00 -0.00000000000E+00 -0.10887085675E+02  0.10887085985E+02  0.26000000000E-02 0.  1.
        -13    1    1    2    0    0 -0.77084060629E+01  0.88058521560E+01 -0.64274872608E+01  0.13352390093E+02  0.10570000000E+00 0.  1.
         13    1    1    2    0    0  0.77084060629E+01 -0.88058521560E+01  0.33344254207E+02  0.35338548603E+02  0.10570000000E+00 0. -1.
<mgrwt>
<rscale>  0 0.40574563E+02</rscale>
<asrwt>0</asrwt>
<pdfrwt beam="2">  1        2 0.16749363E-02 0.40574563E+02</pdfrwt>
<pdfrwt beam="1">  1       -2 0.58159773E-02 0.40574563E+02</pdfrwt>
<totfact> 0.70026196E+05</totfact>
</mgrwt>
</event>
<event>
 4    1  0.3704929E-001  0.2319725E+02  0.7818608E-02  0.1688333E+00
          2   -1    0    0  501    0  0.00000000000E+00  0.00000000000E+00  0.88949215983E+02  0.88949216021E+02  0.26000000000E-02 0. -1.
         -2   -1    0    0    0  501 -0.00000000000E+00 -0.00000000000E+00 -0.15124138996E+01  0.15124161344E+01  0.26000000000E-02 0.  1.
        -13    1    1    2    0    0  0.24573111047E+01 -0.10709207726E+02  0.58200545530E+02  0.59228710778E+02  0.10570000000E+00 0. -1.
         13    1    1    2    0    0 -0.24573111047E+01  0.10709207726E+02  0.29236256553E+02  0.31232921377E+02  0.10570000000E+00 0.  1.
<mgrwt>
<rscale>  0 0.23197253E+02</rscale>
<asrwt>0</asrwt>
<pdfrwt beam="1">  1        2 0.13684499E-01 0.23197253E+02</pdfrwt>
<pdfrwt beam="2">  1       -2 0.23267917E-03 0.23197253E+02</pdfrwt>
<totfact> 0.36885305E+06</totfact>
</mgrwt>
</event>
<event>
 4    1  0.3704929E-001  0.3536972E+02  0.7818608E-02  0.1545342E+00
          2   -1    0    0  501    0  0.00000000000E+00  0.00000000000E+00  0.10623629782E+03  0.10623629785E+03  0.26000000000E-02 0.  1.
         -2   -1    0    0    0  501 -0.00000000000E+00 -0.00000000000E+00 -0.29439489036E+01  0.29439500517E+01  0.26000000000E-02 0. -1.
        -13    1    1    2    0    0  0.14453858506E+02 -0.50475688903E+01  0.78969598190E+02  0.80440043437E+02  0.10570000000E+00 0.  1.
         13    1    1    2    0    0 -0.14453858506E+02  0.50475688903E+01  0.24322750729E+02  0.28740204469E+02  0.10570000000E+00 0. -1.
<mgrwt>
<rscale>  0 0.35369721E+02</rscale>
<asrwt>0</asrwt>
<pdfrwt beam="1">  1        2 0.16344046E-01 0.35369721E+02</pdfrwt>
<pdfrwt beam="2">  1       -2 0.45291530E-03 0.35369721E+02</pdfrwt>
<totfact> 0.14316922E+06</totfact>
</mgrwt>
</event>
<event>
 4    1  0.3704929E-001  0.3028092E+02  0.7818608E-02  0.1595004E+00
         -2   -1    0    0    0  501 -0.00000000000E+00  0.00000000000E+00  0.25659385802E+02  0.25659385934E+02  0.26000000000E-02 0. -1.
          2   -1    0    0  501    0  0.00000000000E+00 -0.00000000000E+00 -0.89337090593E+01  0.89337094376E+01  0.26000000000E-02 0.  1.
        -13    1    1    2    0    0  0.79701305684E+01  0.12832451681E+02  0.95208605188E+01  0.17856448553E+02  0.10570000000E+00 0.  1.
         13    1    1    2    0    0 -0.79701305684E+01 -0.12832451681E+02  0.72048162243E+01  0.16736646819E+02  0.10570000000E+00 0. -1.
<mgrwt>
<rscale>  0 0.30280918E+02</rscale>
<asrwt>0</asrwt>
<pdfrwt beam="2">  1        2 0.13744168E-02 0.30280918E+02</pdfrwt>
<pdfrwt beam="1">  1       -2 0.39475978E-02 0.30280918E+02</pdfrwt>
<totfact> 0.14493912E+06</totfact>
</mgrwt>
</event>
<event>
 4    1  0.3704929E-001  0.3039400E+02  0.7818608E-02  0.1593774E+00
         -2   -1    0    0    0  501 -0.00000000000E+00  0.00000000000E+00  0.26581565011E+02  0.26581565138E+02  0.26000000000E-02 0. -1.
          2   -1    0    0  501    0  0.00000000000E+00 -0.00000000000E+00 -0.86883096773E+01  0.86883100663E+01  0.26000000000E-02 0.  1.
        -13    1    1    2    0    0 -0.76261263695E+01 -0.12814842233E+02  0.55515807086E+01  0.15912548687E+02  0.10570000000E+00 0. -1.
         13    1    1    2    0    0  0.76261263695E+01  0.12814842233E+02  0.12341674625E+02  0.19357326517E+02  0.10570000000E+00 0.  1.
<mgrwt>
<rscale>  0 0.30394005E+02</rscale>
<asrwt>0</asrwt>
<pdfrwt beam="2">  1        2 0.13366631E-02 0.30394005E+02</pdfrwt>
<pdfrwt beam="1">  1       -2 0.40894716E-02 0.30394005E+02</pdfrwt>
<totfact> 0.14315091E+06</totfact>
</mgrwt>
</event>
<event>
 4    1  0.3704929E-001  0.3536114E+02  0.7818608E-02  0.1545417E+00
          2   -1    0    0  501    0  0.00000000000E+00  0.00000000000E+00  0.15215490494E+03  0.15215490497E+03  0.26000000000E-02 0.  1.
         -2   -1    0    0    0  501 -0.00000000000E+00 -0.00000000000E+00 -0.20545016903E+01  0.20545033355E+01  0.26000000000E-02 0. -1.
        -13    1    1    2    0    0 -0.42136560960E+00 -0.17163670593E+02  0.56639651106E+02  0.59184714134E+02  0.10570000000E+00 0.  1.
         13    1    1    2    0    0  0.42136560960E+00  0.17163670593E+02  0.93460752147E+02  0.95024694167E+02  0.10570000000E+00 0. -1.
<mgrwt>
<rscale>  0 0.35361145E+02</rscale>
<asrwt>0</asrwt>
<pdfrwt beam="1">  1        2 0.23408453E-01 0.35361145E+02</pdfrwt>
<pdfrwt beam="2">  1       -2 0.31607724E-03 0.35361145E+02</pdfrwt>
<totfact> 0.15807657E+06</totfact>
</mgrwt>
</event>
<event>
 4    1  0.3704929E-001  0.2524547E+02  0.7818608E-02  0.1657501E+00
          2   -1    0    0  501    0  0.00000000000E+00  0.00000000000E+00  0.12445969706E+02  0.12445969977E+02  0.26000000000E-02 0. -1.
         -2   -1    0    0    0  501 -0.00000000000E+00 -0.00000000000E+00 -0.12802009635E+02  0.12802009899E+02  0.26000000000E-02 0.  1.
        -13    1    1    2    0    0 -0.56364345311E+01  0.11290709674E+02 -0.44774882093E+00  0.12627793579E+02  0.10570000000E+00 0.  1.
         13    1    1    2    0    0  0.56364345311E+01 -0.11290709674E+02  0.91708891130E-01  0.12620186298E+02  0.10570000000E+00 0. -1.
<mgrwt>
<rscale>  0 0.25245469E+02</rscale>
<asrwt>0</asrwt>
<pdfrwt beam="1">  1        2 0.19147646E-02 0.25245469E+02</pdfrwt>
<pdfrwt beam="2">  1       -2 0.19695400E-02 0.25245469E+02</pdfrwt>
<totfact> 0.23323094E+06</totfact>
</mgrwt>
</event>
<event>
 4    1  0.3704929E-001  0.2842714E+02  0.7818608E-02  0.1616155E+00
         -2   -1    0    0    0  501 -0.00000000000E+00  0.00000000000E+00  0.35940500592E+01  0.35940509997E+01  0.26000000000E-02 0. -1.
          2   -1    0    0  501    0  0.00000000000E+00 -0.00000000000E+00 -0.56211114248E+02  0.56211114308E+02  0.26000000000E-02 0.  1.
        -13    1    1    2    0    0 -0.10021935901E+02 -0.85675563344E+01 -0.15142063378E+02  0.20078233901E+02  0.10570000000E+00 0. -1.
         13    1    1    2    0    0  0.10021935901E+02  0.85675563344E+01 -0.37475000811E+02  0.39726931407E+02  0.10570000000E+00 0.  1.
<mgrwt>
<rscale>  0 0.28427141E+02</rscale>
<asrwt>0</asrwt>
<pdfrwt beam="2">  1        2 0.86478631E-02 0.28427141E+02</pdfrwt>
<pdfrwt beam="1">  1       -2 0.55293090E-03 0.28427141E+02</pdfrwt>
<totfact> 0.21069677E+06</totfact>
</mgrwt>
</event>
<event>
 4    1  0.3704929E-001  0.4493560E+02  0.7818608E-02  0.1474744E+00
         -2   -1    0    0    0  501 -0.00000000000E+00  0.00000000000E+00  0.11705256343E+02  0.11705256632E+02  0.26000000000E-02 0. -1.
          2   -1    0    0  501    0  0.00000000000E+00 -0.00000000000E+00 -0.43126101228E+02  0.43126101306E+02  0.26000000000E-02 0.  1.
        -13    1    1    2    0    0 -0.10540931281E+02 -0.13932733387E+02  0.15270537500E+01  0.17537826477E+02  0.10570000000E+00 0. -1.
         13    1    1    2    0    0  0.10540931281E+02  0.13932733387E+02 -0.32947898635E+02  0.37293531461E+02  0.10570000000E+00 0.  1.
<mgrwt>
<rscale>  0 0.44935602E+02</rscale>
<asrwt>0</asrwt>
<pdfrwt beam="2">  1        2 0.66347848E-02 0.44935602E+02</pdfrwt>
<pdfrwt beam="1">  1       -2 0.18008087E-02 0.44935602E+02</pdfrwt>
<totfact> 0.65633975E+05</totfact>
</mgrwt>
</event>
<event>
 4    1  0.3704929E-001  0.2332397E+02  0.7818608E-02  0.1686312E+00
          2   -1    0    0  501    0  0.00000000000E+00  0.00000000000E+00  0.92699377902E+01  0.92699381548E+01  0.26000000000E-02 0.  1.
         -2   -1    0    0    0  501 -0.00000000000E+00 -0.00000000000E+00 -0.14671281941E+02  0.14671282171E+02  0.26000000000E-02 0. -1.
        -13    1    1    2    0    0  0.67578025138E+01  0.89782675474E+01  0.49846030436E+00  0.11248858526E+02  0.10570000000E+00 0.  1.
         13    1    1    2    0    0 -0.67578025138E+01 -0.89782675474E+01 -0.58998044548E+01  0.12692361800E+02  0.10570000000E+00 0. -1.
<mgrwt>
<rscale>  0 0.23323969E+02</rscale>
<asrwt>0</asrwt>
<pdfrwt beam="1">  1        2 0.14261443E-02 0.23323969E+02</pdfrwt>
<pdfrwt beam="2">  1       -2 0.22571203E-02 0.23323969E+02</pdfrwt>
<totfact> 0.27437719E+06</totfact>
</mgrwt>
</event>
<event>
 4    1  0.3704929E-001  0.2163759E+02  0.7818608E-02  0.1714596E+00
          2   -1    0    0  501    0  0.00000000000E+00  0.00000000000E+00  0.49304060191E+02  0.49304060260E+02  0.26000000000E-02 0.  1.
         -2   -1    0    0    0  501 -0.00000000000E+00 -0.00000000000E+00 -0.23739687001E+01  0.23739701238E+01  0.26000000000E-02 0. -1.
        -13    1    1    2    0    0  0.44201230606E+01 -0.90117088304E+01  0.33103660784E+02  0.34592078771E+02  0.10570000000E+00 0.  1.
         13    1    1    2    0    0 -0.44201230606E+01  0.90117088304E+01  0.13826430707E+02  0.17085951612E+02  0.10570000000E+00 0. -1.
<mgrwt>
<rscale>  0 0.21637591E+02</rscale>
<asrwt>0</asrwt>
<pdfrwt beam="1">  1        2 0.75852404E-02 0.21637591E+02</pdfrwt>
<pdfrwt beam="2">  1       -2 0.36522606E-03 0.21637591E+02</pdfrwt>
<totfact> 0.38743189E+06</totfact>
</mgrwt>
</event>
<event>
 4    1  0.3704929E-001  0.2785873E+02  0.7818608E-02  0.1623040E+00
         -2   -1    0    0    0  501 -0.00000000000E+00  0.00000000000E+00  0.22029326019E+02  0.22029326173E+02  0.26000000000E-02 0. -1.
          2   -1    0    0  501    0  0.00000000000E+00 -0.00000000000E+00 -0.88076792052E+01  0.88076795890E+01  0.26000000000E-02 0.  1.
        -13    1    1    2    0    0  0.29910701846E+01  0.10985110827E+02  0.15493490136E+02  0.19227027067E+02  0.10570000000E+00 0.  1.
         13    1    1    2    0    0 -0.29910701846E+01 -0.10985110827E+02 -0.22718433226E+01  0.11609978695E+02  0.10570000000E+00 0. -1.
<mgrwt>
<rscale>  0 0.27858733E+02</rscale>
<asrwt>0</asrwt>
<pdfrwt beam="2">  1        2 0.13550276E-02 0.27858733E+02</pdfrwt>
<pdfrwt beam="1">  1       -2 0.33891271E-02 0.27858733E+02</pdfrwt>
<totfact> 0.17795232E+06</totfact>
</mgrwt>
</event>
<event>
 4    1  0.3704929E-001  0.2744790E+02  0.7818608E-02  0.1628143E+00
         -2   -1    0    0    0  501 -0.00000000000E+00  0.00000000000E+00  0.26326587940E+01  0.26326600779E+01  0.26000000000E-02 0. -1.
          2   -1    0    0  501    0  0.00000000000E+00 -0.00000000000E+00 -0.71542392898E+02  0.71542392945E+02  0.26000000000E-02 0.  1.
        -13    1    1    2    0    0 -0.37403049218E+01  0.95310678897E+01 -0.97601755267E+01  0.14145788590E+02  0.10570000000E+00 0. -1.
         13    1    1    2    0    0  0.37403049218E+01 -0.95310678897E+01 -0.59149558577E+02  0.60029264433E+02  0.10570000000E+00 0.  1.
<mgrwt>
<rscale>  0 0.27447897E+02</rscale>
<asrwt>0</asrwt>
<pdfrwt beam="2">  1        2 0.11006521E-01 0.27447897E+02</pdfrwt>
<pdfrwt beam="1">  1       -2 0.40502459E-03 0.27447897E+02</pdfrwt>
<totfact> 0.23924351E+06</totfact>
</mgrwt>
</event>
<event>
 4    1  0.3704929E-001  0.4092608E+02  0.7818608E-02  0.1501505E+00
          2   -1    0    0  501    0  0.00000000000E+00  0.00000000000E+00  0.13776174238E+03  0.13776174241E+03  0.26000000000E-02 0.  1.
         -2   -1    0    0    0  501 -0.00000000000E+00 -0.00000000000E+00 -0.30395664338E+01  0.30395675458E+01  0.26000000000E-02 0. -1.
        -13    1    1    2    0    0 -0.99251625351E+01 -0.15420807744E+02  0.98593742631E+02  0.10028483146E+03  0.10570000000E+00 0.  1.
         13    1    1    2    0    0  0.99251625351E+01  0.15420807744E+02  0.36128433319E+02  0.40516478492E+02  0.10570000000E+00 0. -1.
<mgrwt>
<rscale>  0 0.40926082E+02</rscale>
<asrwt>0</asrwt>
<pdfrwt beam="1">  1        2 0.21194115E-01 0.40926082E+02</pdfrwt>
<pdfrwt beam="2">  1       -2 0.46762568E-03 0.40926082E+02</pdfrwt>
<totfact> 0.10769013E+06</totfact>
</mgrwt>
</event>
<event>
 4    1  0.3704929E-001  0.4997475E+02  0.7818608E-02  0.1445478E+00
          2   -1    0    0  501    0  0.00000000000E+00  0.00000000000E+00  0.27989501209E+02  0.27989501329E+02  0.26000000000E-02 0.  1.
         -2   -1    0    0    0  501 -0.00000000000E+00 -0.00000000000E+00 -0.22307257916E+02  0.22307258068E+02  0.26000000000E-02 0. -1.
        -13    1    1    2    0    0 -0.16536576718E+02 -0.17087618258E+02  0.10566044055E+02  0.26021097724E+02  0.10570000000E+00 0. -1.
         13    1    1    2    0    0  0.16536576718E+02  0.17087618258E+02 -0.48838007623E+01  0.24275661673E+02  0.10570000000E+00 0.  1.
<mgrwt>
<rscale>  0 0.49974755E+02</rscale>
<asrwt>0</asrwt>
<pdfrwt beam="1">  1        2 0.43060771E-02 0.49974755E+02</pdfrwt>
<pdfrwt beam="2">  1       -2 0.34318859E-02 0.49974755E+02</pdfrwt>
<totfact> 0.46486383E+05</totfact>
</mgrwt>
</event>
<event>
 4    1  0.3704929E-001  0.4091343E+02  0.7818608E-02  0.1501595E+00
          2   -1    0    0  501    0  0.00000000000E+00  0.00000000000E+00  0.13816554052E+03  0.13816554055E+03  0.26000000000E-02 0. -1.
         -2   -1    0    0    0  501 -0.00000000000E+00 -0.00000000000E+00 -0.30288092769E+01  0.30288103929E+01  0.26000000000E-02 0.  1.
        -13    1    1    2    0    0 -0.16828121739E+02 -0.10664301664E+02  0.83589932582E+02  0.85931373856E+02  0.10570000000E+00 0. -1.
         13    1    1    2    0    0  0.16828121739E+02  0.10664301664E+02  0.51546798664E+02  0.55262977084E+02  0.10570000000E+00 0.  1.
<mgrwt>
<rscale>  0 0.40913428E+02</rscale>
<asrwt>0</asrwt>
<pdfrwt beam="1">  1        2 0.21256239E-01 0.40913428E+02</pdfrwt>
<pdfrwt beam="2">  1       -2 0.46597071E-03 0.40913428E+02</pdfrwt>
<totfact> 0.10786301E+06</totfact>
</mgrwt>
</event>
<event>
 4    1  0.3704929E-001  0.2494601E+02  0.7818608E-02  0.1661779E+00
          2   -1    0    0  501    0  0.00000000000E+00  0.00000000000E+00  0.19046228726E+02  0.19046228904E+02  0.26000000000E-02 0. -1.
         -2   -1    0    0    0  501 -0.00000000000E+00 -0.00000000000E+00 -0.81683278328E+01  0.81683282466E+01  0.26000000000E-02 0.  1.
        -13    1    1    2    0    0  0.96178218115E+01  0.78292917819E+01  0.39898617585E+01  0.13028064919E+02  0.10570000000E+00 0. -1.
         13    1    1    2    0    0 -0.96178218115E+01 -0.78292917819E+01  0.68880391351E+01  0.14186492231E+02  0.10570000000E+00 0.  1.
<mgrwt>
<rscale>  0 0.24946010E+02</rscale>
<asrwt>0</asrwt>
<pdfrwt beam="1">  1        2 0.29301891E-02 0.24946010E+02</pdfrwt>
<pdfrwt beam="2">  1       -2 0.12566659E-02 0.24946010E+02</pdfrwt>
<totfact> 0.24941303E+06</totfact>
</mgrwt>
</event>
<event>
 4    1  0.3704929E-001  0.2110431E+02  0.7818608E-02  0.1724219E+00
         -2   -1    0    0    0  501 -0.00000000000E+00  0.00000000000E+00  0.39028823462E+01  0.39028832123E+01  0.26000000000E-02 0.  1.
          2   -1    0    0  501    0  0.00000000000E+00 -0.00000000000E+00 -0.28529676171E+02  0.28529676290E+02  0.26000000000E-02 0. -1.
        -13    1    1    2    0    0  0.17296066973E+01 -0.99702839570E+01 -0.77187990672E+01  0.12727495160E+02  0.10570000000E+00 0.  1.
         13    1    1    2    0    0 -0.17296066973E+01  0.99702839570E+01 -0.16907994758E+02  0.19705064342E+02  0.10570000000E+00 0. -1.
<mgrwt>
<rscale>  0 0.21104311E+02</rscale>
<asrwt>0</asrwt>
<pdfrwt beam="2">  1        2 0.43891809E-02 0.21104311E+02</pdfrwt>
<pdfrwt beam="1">  1       -2 0.60044353E-03 0.21104311E+02</pdfrwt>
<totfact> 0.38211081E+06</totfact>
</mgrwt>
</event>
<event>
 4    1  0.3704929E-001  0.4055903E+02  0.7818608E-02  0.1504137E+00
          2   -1    0    0  501    0  0.00000000000E+00  0.00000000000E+00  0.49569894150E+01  0.49569900969E+01  0.26000000000E-02 0. -1.
         -2   -1    0    0    0  501 -0.00000000000E+00 -0.00000000000E+00 -0.82965407804E+02  0.82965407845E+02  0.26000000000E-02 0.  1.
        -13    1    1    2    0    0  0.20239168527E+02  0.95489648666E+00 -0.37175385063E+02  0.42338589927E+02  0.10570000000E+00 0. -1.
         13    1    1    2    0    0 -0.20239168527E+02 -0.95489648666E+00 -0.40833033326E+02  0.45583808015E+02  0.10570000000E+00 0.  1.
<mgrwt>
<rscale>  0 0.40559028E+02</rscale>
<asrwt>0</asrwt>
<pdfrwt beam="1">  1        2 0.76261387E-03 0.40559028E+02</pdfrwt>
<pdfrwt beam="2">  1       -2 0.12763908E-01 0.40559028E+02</pdfrwt>
<totfact> 0.61141856E+05</totfact>
</mgrwt>
</event>
<event>
 4    1  0.3704929E-001  0.2373478E+02  0.7818608E-02  0.1679869E+00
          2   -1    0    0  501    0  0.00000000000E+00  0.00000000000E+00  0.81551612578E+02  0.81551612619E+02  0.26000000000E-02 0.  1.
         -2   -1    0    0    0  501 -0.00000000000E+00 -0.00000000000E+00 -0.17269413642E+01  0.17269433214E+01  0.26000000000E-02 0. -1.
        -13    1    1    2    0    0  0.27944721449E+01  0.11179915097E+02  0.49851469191E+02  0.51166197133E+02  0.10570000000E+00 0.  1.
         13    1    1    2    0    0 -0.27944721449E+01 -0.11179915097E+02  0.29973202023E+02  0.32112358807E+02  0.10570000000E+00 0. -1.
<mgrwt>
<rscale>  0 0.23734779E+02</rscale>
<asrwt>0</asrwt>
<pdfrwt beam="1">  1        2 0.12546402E-01 0.23734779E+02</pdfrwt>
<pdfrwt beam="2">  1       -2 0.26568343E-03 0.23734779E+02</pdfrwt>
<totfact> 0.34370640E+06</totfact>
</mgrwt>
</event>
<event>
 4    1  0.3704929E-001  0.2387984E+02  0.7818608E-02  0.1677633E+00
          2   -1    0    0  501    0  0.00000000000E+00  0.00000000000E+00  0.66689452676E+02  0.66689452727E+02  0.26000000000E-02 0. -1.
         -2   -1    0    0    0  501 -0.00000000000E+00 -0.00000000000E+00 -0.21376946118E+01  0.21376961930E+01  0.26000000000E-02 0.  1.
        -13    1    1    2    0    0 -0.58326906098E+01 -0.91687198784E+01  0.46531944727E+02  0.47784084762E+02  0.10570000000E+00 0. -1.
         13    1    1    2    0    0  0.58326906098E+01  0.91687198784E+01  0.18019813338E+02  0.21043064158E+02  0.10570000000E+00 0.  1.
<mgrwt>
<rscale>  0 0.23879844E+02</rscale>
<asrwt>0</asrwt>
<pdfrwt beam="1">  1        2 0.10259915E-01 0.23879844E+02</pdfrwt>
<pdfrwt beam="2">  1       -2 0.32887624E-03 0.23879844E+02</pdfrwt>
<totfact> 0.32578012E+06</totfact>
</mgrwt>
</event>
<event>
 4    1  0.3704929E-001  0.2958668E+02  0.7818608E-02  0.1602703E+00
          2   -1    0    0  501    0  0.00000000000E+00  0.00000000000E+00  0.17305255272E+02  0.17305255468E+02  0.26000000000E-02 0. -1.
         -2   -1    0    0    0  501 -0.00000000000E+00 -0.00000000000E+00 -0.12646035576E+02  0.12646035844E+02  0.26000000000E-02 0.  1.
        -13    1    1    2    0    0 -0.33532779811E+00 -0.10921288106E+02 -0.77654809551E+01  0.13405254402E+02  0.10570000000E+00 0.  1.
         13    1    1    2    0    0  0.33532779811E+00  0.10921288106E+02  0.12424700651E+02  0.16546036909E+02  0.10570000000E+00 0. -1.
<mgrwt>
<rscale>  0 0.29586678E+02</rscale>
<asrwt>0</asrwt>
<pdfrwt beam="1">  1        2 0.26623470E-02 0.29586678E+02</pdfrwt>
<pdfrwt beam="2">  1       -2 0.19455440E-02 0.29586678E+02</pdfrwt>
<totfact> 0.16435054E+06</totfact>
</mgrwt>
</event>
<event>
 4    1  0.3704929E-001  0.2714728E+02  0.7818608E-02  0.1631947E+00
         -2   -1    0    0    0  501 -0.00000000000E+00  0.00000000000E+00  0.18087275209E+02  0.18087275396E+02  0.26000000000E-02 0. -1.
          2   -1    0    0  501    0  0.00000000000E+00 -0.00000000000E+00 -0.10186370123E+02  0.10186370454E+02  0.26000000000E-02 0.  1.
        -13    1    1    2    0    0  0.23155241373E+01  0.11703460973E+02 -0.27911293729E+01  0.12252927260E+02  0.10570000000E+00 0.  1.
         13    1    1    2    0    0 -0.23155241373E+01 -0.11703460973E+02  0.10692034459E+02  0.16020718590E+02  0.10570000000E+00 0. -1.
<mgrwt>
<rscale>  0 0.27147279E+02</rscale>
<asrwt>0</asrwt>
<pdfrwt beam="2">  1        2 0.15671339E-02 0.27147279E+02</pdfrwt>
<pdfrwt beam="1">  1       -2 0.27826577E-02 0.27147279E+02</pdfrwt>
<totfact> 0.19227739E+06</totfact>
</mgrwt>
</event>
<event>
 4    1  0.3704929E-001  0.2986638E+02  0.7818608E-02  0.1599570E+00
         -2   -1    0    0    0  501 -0.00000000000E+00  0.00000000000E+00  0.12317053304E+02  0.12317053578E+02  0.26000000000E-02 0.  1.
          2   -1    0    0  501    0  0.00000000000E+00 -0.00000000000E+00 -0.18104991886E+02  0.18104992073E+02  0.26000000000E-02 0. -1.
        -13    1    1    2    0    0 -0.30531531372E+01  0.11363748414E+02 -0.12259180881E+02  0.16992798782E+02  0.10570000000E+00 0. -1.
         13    1    1    2    0    0  0.30531531372E+01 -0.11363748414E+02  0.64712422978E+01  0.13429246869E+02  0.10570000000E+00 0.  1.
<mgrwt>
<rscale>  0 0.29866380E+02</rscale>
<asrwt>0</asrwt>
<pdfrwt beam="2">  1        2 0.27853834E-02 0.29866380E+02</pdfrwt>
<pdfrwt beam="1">  1       -2 0.18949313E-02 0.29866380E+02</pdfrwt>
<totfact> 0.16138776E+06</totfact>
</mgrwt>
</event>
<event>
 4    1  0.3704929E-001  0.3217981E+02  0.7818608E-02  0.1575172E+00
         -2   -1    0    0    0  501 -0.00000000000E+00  0.00000000000E+00  0.13338966225E+02  0.13338966479E+02  0.26000000000E-02 0.  1.
          2   -1    0    0  501    0  0.00000000000E+00 -0.00000000000E+00 -0.19408177762E+02  0.19408177936E+02  0.26000000000E-02 0. -1.
        -13    1    1    2    0    0  0.34812084696E+01 -0.12206953163E+02  0.70263214352E+01  0.14508924265E+02  0.10570000000E+00 0.  1.
         13    1    1    2    0    0 -0.34812084696E+01  0.12206953163E+02 -0.13095532972E+02  0.18238220150E+02  0.10570000000E+00 0. -1.
<mgrwt>
<rscale>  0 0.32179809E+02</rscale>
<asrwt>0</asrwt>
<pdfrwt beam="2">  1        2 0.29858736E-02 0.32179809E+02</pdfrwt>
<pdfrwt beam="1">  1       -2 0.20521487E-02 0.32179809E+02</pdfrwt>
<totfact> 0.13548214E+06</totfact>
</mgrwt>
</event>
<event>
 4    1  0.3704929E-001  0.2044217E+02  0.7818608E-02  0.1736675E+00
         -2   -1    0    0    0  501 -0.00000000000E+00  0.00000000000E+00  0.95305498138E+00  0.95305852786E+00  0.26000000000E-02 0.  1.
          2   -1    0    0  501    0  0.00000000000E+00 -0.00000000000E+00 -0.10961637352E+03  0.10961637355E+03  0.26000000000E-02 0. -1.
        -13    1    1    2    0    0 -0.31670216960E+01  0.96999595485E+01 -0.57486550186E+02  0.58385219589E+02  0.10570000000E+00 0. -1.
         13    1    1    2    0    0  0.31670216960E+01 -0.96999595485E+01 -0.51176768350E+02  0.52184212487E+02  0.10570000000E+00 0.  1.
<mgrwt>
<rscale>  0 0.20442175E+02</rscale>
<asrwt>0</asrwt>
<pdfrwt beam="2">  1        2 0.16864048E-01 0.20442175E+02</pdfrwt>
<pdfrwt beam="1">  1       -2 0.14662421E-03 0.20442175E+02</pdfrwt>
<totfact> 0.51354748E+06</totfact>
</mgrwt>
</event>
<event>
 4    1  0.3704929E-001  0.4230661E+02  0.7818608E-02  0.1491892E+00
          2   -1    0    0  501    0  0.00000000000E+00  0.00000000000E+00  0.39649815629E+01  0.39649824154E+01  0.26000000000E-02 0. -1.
         -2   -1    0    0    0  501 -0.00000000000E+00 -0.00000000000E+00 -0.11285356677E+03  0.11285356680E+03  0.26000000000E-02 0.  1.
        -13    1    1    2    0    0 -0.16623014249E+02  0.13038077566E+02 -0.57386170799E+02  0.61151450030E+02  0.10570000000E+00 0. -1.
         13    1    1    2    0    0  0.16623014249E+02 -0.13038077566E+02 -0.51502414406E+02  0.55667099183E+02  0.10570000000E+00 0.  1.
<mgrwt>
<rscale>  0 0.42306612E+02</rscale>
<asrwt>0</asrwt>
<pdfrwt beam="1">  1        2 0.60999732E-03 0.42306612E+02</pdfrwt>
<pdfrwt beam="2">  1       -2 0.17362085E-01 0.42306612E+02</pdfrwt>
<totfact> 0.51296592E+05</totfact>
</mgrwt>
</event>
<event>
 4    1  0.3704929E-001  0.2274241E+02  0.7818608E-02  0.1695720E+00
         -2   -1    0    0    0  501 -0.00000000000E+00  0.00000000000E+00  0.60909872704E+02  0.60909872760E+02  0.26000000000E-02 0.  1.
          2   -1    0    0  501    0  0.00000000000E+00 -0.00000000000E+00 -0.21228791299E+01  0.21228807221E+01  0.26000000000E-02 0. -1.
        -13    1    1    2    0    0  0.10915724443E+02  0.31178504786E+01  0.31187866821E+02  0.33189881606E+02  0.10570000000E+00 0.  1.
         13    1    1    2    0    0 -0.10915724443E+02 -0.31178504786E+01  0.27599126754E+02  0.29842871876E+02  0.10570000000E+00 0. -1.
<mgrwt>
<rscale>  0 0.22742414E+02</rscale>
<asrwt>0</asrwt>
<pdfrwt beam="2">  1        2 0.32659690E-03 0.22742414E+02</pdfrwt>
<pdfrwt beam="1">  1       -2 0.93707501E-02 0.22742414E+02</pdfrwt>
<totfact> 0.24754198E+06</totfact>
</mgrwt>
</event>
<event>
 4    1  0.3704929E-001  0.6987761E+02  0.7818608E-02  0.1360510E+00
          2   -1    0    0  501    0  0.00000000000E+00  0.00000000000E+00  0.21686387779E+02  0.21686387935E+02  0.26000000000E-02 0. -1.
         -2   -1    0    0    0  501 -0.00000000000E+00 -0.00000000000E+00 -0.56289692780E+02  0.56289692840E+02  0.26000000000E-02 0.  1.
        -13    1    1    2    0    0 -0.21786703855E+02 -0.11104728088E+02  0.10545094455E+02  0.26630539618E+02  0.10570000000E+00 0. -1.
         13    1    1    2    0    0  0.21786703855E+02  0.11104728088E+02 -0.45148399456E+02  0.51345541157E+02  0.10570000000E+00 0.  1.
<mgrwt>
<rscale>  0 0.69877611E+02</rscale>
<asrwt>0</asrwt>
<pdfrwt beam="1">  1        2 0.33363674E-02 0.69877611E+02</pdfrwt>
<pdfrwt beam="2">  1       -2 0.86599527E-02 0.69877611E+02</pdfrwt>
<totfact> 0.17752388E+05</totfact>
</mgrwt>
</event>
<event>
 4    1  0.3704929E-001  0.2441228E+02  0.7818608E-02  0.1669590E+00
         -2   -1    0    0    0  501 -0.00000000000E+00  0.00000000000E+00  0.58603172685E+02  0.58603172743E+02  0.26000000000E-02 0. -1.
          2   -1    0    0  501    0  0.00000000000E+00 -0.00000000000E+00 -0.25423505515E+01  0.25423518810E+01  0.26000000000E-02 0.  1.
        -13    1    1    2    0    0 -0.48706960168E+00  0.11417971744E+02  0.17294793707E+02  0.20729890916E+02  0.10570000000E+00 0. -1.
         13    1    1    2    0    0  0.48706960168E+00 -0.11417971744E+02  0.38766028426E+02  0.40415633707E+02  0.10570000000E+00 0.  1.
<mgrwt>
<rscale>  0 0.24412280E+02</rscale>
<asrwt>0</asrwt>
<pdfrwt beam="2">  1        2 0.39113098E-03 0.24412280E+02</pdfrwt>
<pdfrwt beam="1">  1       -2 0.90158723E-02 0.24412280E+02</pdfrwt>
<totfact> 0.21255713E+06</totfact>
</mgrwt>
</event>
<event>
 4    1  0.3704929E-001  0.2700303E+02  0.7818608E-02  0.1633794E+00
         -2   -1    0    0    0  501 -0.00000000000E+00  0.00000000000E+00  0.29939923326E+02  0.29939923439E+02  0.26000000000E-02 0. -1.
          2   -1    0    0  501    0  0.00000000000E+00 -0.00000000000E+00 -0.60885550111E+01  0.60885555662E+01  0.26000000000E-02 0.  1.
        -13    1    1    2    0    0 -0.13234913025E+02 -0.10258012306E+01  0.86399559767E+01  0.15839040460E+02  0.10570000000E+00 0. -1.
         13    1    1    2    0    0  0.13234913025E+02  0.10258012306E+01  0.15211412339E+02  0.20189438545E+02  0.10570000000E+00 0.  1.
<mgrwt>
<rscale>  0 0.27003028E+02</rscale>
<asrwt>0</asrwt>
<pdfrwt beam="2">  1        2 0.93670084E-03 0.27003028E+02</pdfrwt>
<pdfrwt beam="1">  1       -2 0.46061420E-02 0.27003028E+02</pdfrwt>
<totfact> 0.18491747E+06</totfact>
</mgrwt>
</event>
<event>
 4    1  0.3704929E-001  0.2637869E+02  0.7818608E-02  0.1641954E+00
          2   -1    0    0  501    0  0.00000000000E+00  0.00000000000E+00  0.90427357426E+01  0.90427361163E+01  0.26000000000E-02 0.  1.
         -2   -1    0    0    0  501 -0.00000000000E+00 -0.00000000000E+00 -0.19237403204E+02  0.19237403379E+02  0.26000000000E-02 0. -1.
        -13    1    1    2    0    0  0.11239242887E+02  0.20490579315E+01  0.19677150016E+01  0.11593200330E+02  0.10570000000E+00 0. -1.
         13    1    1    2    0    0 -0.11239242887E+02 -0.20490579315E+01 -0.12162382463E+02  0.16686939166E+02  0.10570000000E+00 0.  1.
<mgrwt>
<rscale>  0 0.26378685E+02</rscale>
<asrwt>0</asrwt>
<pdfrwt beam="1">  1        2 0.13911902E-02 0.26378685E+02</pdfrwt>
<pdfrwt beam="2">  1       -2 0.29596005E-02 0.26378685E+02</pdfrwt>
<totfact> 0.20385856E+06</totfact>
</mgrwt>
</event>
<event>
 4    1  0.3704929E-001  0.3199378E+02  0.7818608E-02  0.1577041E+00
         -2   -1    0    0    0  501 -0.00000000000E+00  0.00000000000E+00  0.14590103364E+02  0.14590103596E+02  0.26000000000E-02 0.  1.
          2   -1    0    0  501    0  0.00000000000E+00 -0.00000000000E+00 -0.17539315900E+02  0.17539316093E+02  0.26000000000E-02 0. -1.
        -13    1    1    2    0    0  0.15536657481E+02  0.25287321101E+01  0.13847542528E+01  0.15802244416E+02  0.10570000000E+00 0. -1.
         13    1    1    2    0    0 -0.15536657481E+02 -0.25287321101E+01 -0.43339667882E+01  0.16327175272E+02  0.10570000000E+00 0.  1.
<mgrwt>
<rscale>  0 0.31993777E+02</rscale>
<asrwt>0</asrwt>
<pdfrwt beam="2">  1        2 0.26983563E-02 0.31993777E+02</pdfrwt>
<pdfrwt beam="1">  1       -2 0.22446313E-02 0.31993777E+02</pdfrwt>
<totfact> 0.13590243E+06</totfact>
</mgrwt>
</event>
<event>
 4    1  0.3704929E-001  0.2129743E+02  0.7818608E-02  0.1720694E+00
          2   -1    0    0  501    0  0.00000000000E+00  0.00000000000E+00  0.85982508034E+01  0.85982511965E+01  0.26000000000E-02 0.  1.
         -2   -1    0    0    0  501 -0.00000000000E+00 -0.00000000000E+00 -0.13188164487E+02  0.13188164743E+02  0.26000000000E-02 0. -1.
        -13    1    1    2    0    0 -0.80198893184E+01 -0.63634315853E+01 -0.52899926456E+01  0.11524195456E+02  0.10570000000E+00 0. -1.
         13    1    1    2    0    0  0.80198893184E+01  0.63634315853E+01  0.70007896199E+00  0.10262220484E+02  0.10570000000E+00 0.  1.
<mgrwt>
<rscale>  0 0.21297432E+02</rscale>
<asrwt>0</asrwt>
<pdfrwt beam="1">  1        2 0.13228079E-02 0.21297432E+02</pdfrwt>
<pdfrwt beam="2">  1       -2 0.20289484E-02 0.21297432E+02</pdfrwt>
<totfact> 0.33750972E+06</totfact>
</mgrwt>
</event>
<event>
 4    1  0.3704929E-001  0.2693034E+02  0.7818608E-02  0.1634730E+00
          2   -1    0    0  501    0  0.00000000000E+00  0.00000000000E+00  0.20737247799E+01  0.20737264098E+01  0.26000000000E-02 0.  1.
         -2   -1    0    0    0  501 -0.00000000000E+00 -0.00000000000E+00 -0.87432370092E+02  0.87432370130E+02  0.26000000000E-02 0. -1.
        -13    1    1    2    0    0  0.54285978831E+01 -0.11979382514E+02 -0.52268570830E+02  0.53897958676E+02  0.10570000000E+00 0. -1.
         13    1    1    2    0    0 -0.54285978831E+01  0.11979382514E+02 -0.33090074482E+02  0.35608137864E+02  0.10570000000E+00 0.  1.
<mgrwt>
<rscale>  0 0.26930336E+02</rscale>
<asrwt>0</asrwt>
<pdfrwt beam="1">  1        2 0.31903478E-03 0.26930336E+02</pdfrwt>
<pdfrwt beam="2">  1       -2 0.13451131E-01 0.26930336E+02</pdfrwt>
<totfact> 0.15772226E+06</totfact>
</mgrwt>
</event>
<event>
 4    1  0.3704929E-001  0.4829720E+02  0.7818608E-02  0.1454748E+00
          2   -1    0    0  501    0  0.00000000000E+00  0.00000000000E+00  0.45750535095E+02  0.45750535169E+02  0.26000000000E-02 0.  1.
         -2   -1    0    0    0  501 -0.00000000000E+00 -0.00000000000E+00 -0.12746405578E+02  0.12746405843E+02  0.26000000000E-02 0. -1.
        -13    1    1    2    0    0  0.17757105421E+02 -0.15454354399E+02  0.23023589831E+02  0.32927932276E+02  0.10570000000E+00 0. -1.
         13    1    1    2    0    0 -0.17757105421E+02  0.15454354399E+02  0.99805396864E+01  0.25569008736E+02  0.10570000000E+00 0.  1.
<mgrwt>
<rscale>  0 0.48297200E+02</rscale>
<asrwt>0</asrwt>
<pdfrwt beam="1">  1        2 0.70385439E-02 0.48297200E+02</pdfrwt>
<pdfrwt beam="2">  1       -2 0.19609855E-02 0.48297200E+02</pdfrwt>
<totfact> 0.55158273E+05</totfact>
</mgrwt>
</event>
<event>
 4    1  0.3704929E-001  0.2251831E+02  0.7818608E-02  0.1699439E+00
         -2   -1    0    0    0  501 -0.00000000000E+00  0.00000000000E+00  0.26444961334E+02  0.26444961461E+02  0.26000000000E-02 0. -1.
          2   -1    0    0  501    0  0.00000000000E+00 -0.00000000000E+00 -0.47936742566E+01  0.47936749617E+01  0.26000000000E-02 0.  1.
        -13    1    1    2    0    0  0.53399606635E+01 -0.85135610025E+01  0.37845251950E+01  0.10739166833E+02  0.10570000000E+00 0.  1.
         13    1    1    2    0    0 -0.53399606635E+01  0.85135610025E+01  0.17866761882E+02  0.20499469590E+02  0.10570000000E+00 0. -1.
<mgrwt>
<rscale>  0 0.22518308E+02</rscale>
<asrwt>0</asrwt>
<pdfrwt beam="2">  1        2 0.73748840E-03 0.22518308E+02</pdfrwt>
<pdfrwt beam="1">  1       -2 0.40684557E-02 0.22518308E+02</pdfrwt>
<totfact> 0.28137503E+06</totfact>
</mgrwt>
</event>
<event>
 4    1  0.3704929E-001  0.2817543E+02  0.7818608E-02  0.1619179E+00
          2   -1    0    0  501    0  0.00000000000E+00  0.00000000000E+00  0.52897188921E+02  0.52897188985E+02  0.26000000000E-02 0.  1.
         -2   -1    0    0    0  501 -0.00000000000E+00 -0.00000000000E+00 -0.37518755212E+01  0.37518764220E+01  0.26000000000E-02 0. -1.
        -13    1    1    2    0    0  0.13975774589E+02  0.52149031397E+00  0.21173464004E+02  0.25375598080E+02  0.10570000000E+00 0. -1.
         13    1    1    2    0    0 -0.13975774589E+02 -0.52149031397E+00  0.27971849396E+02  0.31273467327E+02  0.10570000000E+00 0.  1.
<mgrwt>
<rscale>  0 0.28175429E+02</rscale>
<asrwt>0</asrwt>
<pdfrwt beam="1">  1        2 0.81380284E-02 0.28175429E+02</pdfrwt>
<pdfrwt beam="2">  1       -2 0.57721174E-03 0.28175429E+02</pdfrwt>
<totfact> 0.21294754E+06</totfact>
</mgrwt>
</event>
<event>
 4    1  0.3704929E-001  0.3873549E+02  0.7818608E-02  0.1517729E+00
          2   -1    0    0  501    0  0.00000000000E+00  0.00000000000E+00  0.12979885549E+02  0.12979885810E+02  0.26000000000E-02 0. -1.
         -2   -1    0    0    0  501 -0.00000000000E+00 -0.00000000000E+00 -0.28899289630E+02  0.28899289747E+02  0.26000000000E-02 0.  1.
        -13    1    1    2    0    0 -0.15987088907E+02  0.67320053183E+01  0.13527894941E+01  0.17399658595E+02  0.10570000000E+00 0. -1.
         13    1    1    2    0    0  0.15987088907E+02 -0.67320053183E+01 -0.17272193575E+02  0.24479516962E+02  0.10570000000E+00 0.  1.
<mgrwt>
<rscale>  0 0.38735487E+02</rscale>
<asrwt>0</asrwt>
<pdfrwt beam="1">  1        2 0.19969055E-02 0.38735487E+02</pdfrwt>
<pdfrwt beam="2">  1       -2 0.44460446E-02 0.38735487E+02</pdfrwt>
<totfact> 0.80969576E+05</totfact>
</mgrwt>
</event>
<event>
 4    1  0.3704929E-001  0.5363351E+02  0.7818608E-02  0.1426674E+00
         -2   -1    0    0    0  501 -0.00000000000E+00  0.00000000000E+00  0.39154257213E+02  0.39154257299E+02  0.26000000000E-02 0. -1.
          2   -1    0    0  501    0  0.00000000000E+00 -0.00000000000E+00 -0.18366794848E+02  0.18366795032E+02  0.26000000000E-02 0.  1.
        -13    1    1    2    0    0  0.97932686645E+01 -0.16372869626E+02  0.30605083581E+02  0.36064681954E+02  0.10570000000E+00 0. -1.
         13    1    1    2    0    0 -0.97932686645E+01  0.16372869626E+02 -0.98176212158E+01  0.21456370377E+02  0.10570000000E+00 0.  1.
<mgrwt>
<rscale>  0 0.53633505E+02</rscale>
<asrwt>0</asrwt>
<pdfrwt beam="2">  1        2 0.28256608E-02 0.53633505E+02</pdfrwt>
<pdfrwt beam="1">  1       -2 0.60237319E-02 0.53633505E+02</pdfrwt>
<totfact> 0.35949498E+05</totfact>
</mgrwt>
</event>
<event>
 4    1  0.3704929E-001  0.2428930E+02  0.7818608E-02  0.1671425E+00
          2   -1    0    0  501    0  0.00000000000E+00  0.00000000000E+00  0.17742520814E+02  0.17742521004E+02  0.26000000000E-02 0.  1.
         -2   -1    0    0    0  501 -0.00000000000E+00 -0.00000000000E+00 -0.83129422194E+01  0.83129426260E+01  0.26000000000E-02 0. -1.
        -13    1    1    2    0    0 -0.11191651178E+02 -0.39865298525E+01  0.74149414129E+01  0.14004927882E+02  0.10570000000E+00 0.  1.
         13    1    1    2    0    0  0.11191651178E+02  0.39865298525E+01  0.20146371813E+01  0.12050535748E+02  0.10570000000E+00 0. -1.
<mgrwt>
<rscale>  0 0.24289303E+02</rscale>
<asrwt>0</asrwt>
<pdfrwt beam="1">  1        2 0.27296186E-02 0.24289303E+02</pdfrwt>
<pdfrwt beam="2">  1       -2 0.12789143E-02 0.24289303E+02</pdfrwt>
<totfact> 0.26377086E+06</totfact>
</mgrwt>
</event>
<event>
 4    1  0.3704929E-001  0.5825356E+02  0.7818608E-02  0.1405310E+00
         -2   -1    0    0    0  501 -0.00000000000E+00  0.00000000000E+00  0.10457786249E+02  0.10457786572E+02  0.26000000000E-02 0.  1.
          2   -1    0    0  501    0  0.00000000000E+00 -0.00000000000E+00 -0.81123212873E+02  0.81123212915E+02  0.26000000000E-02 0. -1.
        -13    1    1    2    0    0  0.20846548390E+02  0.20305731880E+02 -0.37230177302E+02  0.47254614604E+02  0.10570000000E+00 0. -1.
         13    1    1    2    0    0 -0.20846548390E+02 -0.20305731880E+02 -0.33435249323E+02  0.44326384882E+02  0.10570000000E+00 0.  1.
<mgrwt>
<rscale>  0 0.58253557E+02</rscale>
<asrwt>0</asrwt>
<pdfrwt beam="2">  1        2 0.12480494E-01 0.58253557E+02</pdfrwt>
<pdfrwt beam="1">  1       -2 0.16088903E-02 0.58253557E+02</pdfrwt>
<totfact> 0.38379552E+05</totfact>
</mgrwt>
</event>
<event>
 4    1  0.3704929E-001  0.1221149E+03  0.7818608E-02  0.1239648E+00
         -2   -1    0    0    0  501 -0.00000000000E+00  0.00000000000E+00  0.27936806089E+02  0.27936806210E+02  0.26000000000E-02 0. -1.
          2   -1    0    0  501    0  0.00000000000E+00 -0.00000000000E+00 -0.13344452909E+03  0.13344452911E+03  0.26000000000E-02 0.  1.
        -13    1    1    2    0    0  0.33641993091E+02  0.50231181857E+02 -0.41458840275E+02  0.73306220332E+02  0.10570000000E+00 0. -1.
         13    1    1    2    0    0 -0.33641993091E+02 -0.50231181857E+02 -0.64048882724E+02  0.88075114991E+02  0.10570000000E+00 0.  1.
<mgrwt>
<rscale>  0 0.12211493E+03</rscale>
<asrwt>0</asrwt>
<pdfrwt beam="2">  1        2 0.20529927E-01 0.12211493E+03</pdfrwt>
<pdfrwt beam="1">  1       -2 0.42979702E-02 0.12211493E+03</pdfrwt>
<totfact> 0.59621958E+04</totfact>
</mgrwt>
</event>
<event>
 4    1  0.3704929E-001  0.2305924E+02  0.7818608E-02  0.1690552E+00
          2   -1    0    0  501    0  0.00000000000E+00  0.00000000000E+00  0.14434238545E+02  0.14434238779E+02  0.26000000000E-02 0. -1.
         -2   -1    0    0    0  501 -0.00000000000E+00 -0.00000000000E+00 -0.92095011033E+01  0.92095014703E+01  0.26000000000E-02 0.  1.
        -13    1    1    2    0    0  0.75168483470E+01  0.81511742196E+01 -0.62622426287E+00  0.11106213556E+02  0.10570000000E+00 0.  1.
         13    1    1    2    0    0 -0.75168483470E+01 -0.81511742196E+01  0.58509617041E+01  0.12537526693E+02  0.10570000000E+00 0. -1.
<mgrwt>
<rscale>  0 0.23059240E+02</rscale>
<asrwt>0</asrwt>
<pdfrwt beam="1">  1        2 0.22206521E-02 0.23059240E+02</pdfrwt>
<pdfrwt beam="2">  1       -2 0.14168464E-02 0.23059240E+02</pdfrwt>
<totfact> 0.29240679E+06</totfact>
</mgrwt>
</event>
<event>
 4    1  0.3704929E-001  0.2185358E+02  0.7818608E-02  0.1710797E+00
         -2   -1    0    0    0  501 -0.00000000000E+00  0.00000000000E+00  0.94052274027E+01  0.94052277620E+01  0.26000000000E-02 0.  1.
          2   -1    0    0  501    0  0.00000000000E+00 -0.00000000000E+00 -0.12694512148E+02  0.12694512415E+02  0.26000000000E-02 0. -1.
        -13    1    1    2    0    0  0.46732214021E+01 -0.94683164303E+01  0.11969180544E+01  0.10626937452E+02  0.10570000000E+00 0.  1.
         13    1    1    2    0    0 -0.46732214021E+01  0.94683164303E+01 -0.44862028000E+01  0.11472802724E+02  0.10570000000E+00 0. -1.
<mgrwt>
<rscale>  0 0.21853584E+02</rscale>
<asrwt>0</asrwt>
<pdfrwt beam="2">  1        2 0.19530019E-02 0.21853584E+02</pdfrwt>
<pdfrwt beam="1">  1       -2 0.14469581E-02 0.21853584E+02</pdfrwt>
<totfact> 0.32774841E+06</totfact>
</mgrwt>
</event>
<event>
 4    1  0.3704929E-001  0.2879655E+02  0.7818608E-02  0.1611785E+00
         -2   -1    0    0    0  501 -0.00000000000E+00  0.00000000000E+00  0.34632148063E+02  0.34632148160E+02  0.26000000000E-02 0.  1.
          2   -1    0    0  501    0  0.00000000000E+00 -0.00000000000E+00 -0.59860636123E+01  0.59860641769E+01  0.26000000000E-02 0. -1.
        -13    1    1    2    0    0 -0.83364938478E+01  0.11092775916E+02  0.19740679423E+02  0.24129906833E+02  0.10570000000E+00 0.  1.
         13    1    1    2    0    0  0.83364938478E+01 -0.11092775916E+02  0.89054050276E+01  0.16488305504E+02  0.10570000000E+00 0. -1.
<mgrwt>
<rscale>  0 0.28796545E+02</rscale>
<asrwt>0</asrwt>
<pdfrwt beam="2">  1        2 0.92093289E-03 0.28796545E+02</pdfrwt>
<pdfrwt beam="1">  1       -2 0.53280230E-02 0.28796545E+02</pdfrwt>
<totfact> 0.15709600E+06</totfact>
</mgrwt>
</event>
<event>
 4    1  0.3704929E-001  0.2546548E+02  0.7818608E-02  0.1654405E+00
         -2   -1    0    0    0  501 -0.00000000000E+00  0.00000000000E+00  0.25330355117E+02  0.25330355250E+02  0.26000000000E-02 0. -1.
          2   -1    0    0  501    0  0.00000000000E+00 -0.00000000000E+00 -0.64003314736E+01  0.64003320017E+01  0.26000000000E-02 0.  1.
        -13    1    1    2    0    0  0.58520771135E+01  0.11253162282E+02  0.10847506731E+02  0.16690118114E+02  0.10570000000E+00 0. -1.
         13    1    1    2    0    0 -0.58520771135E+01 -0.11253162282E+02  0.80825169118E+01  0.15040569138E+02  0.10570000000E+00 0.  1.
<mgrwt>
<rscale>  0 0.25465481E+02</rscale>
<asrwt>0</asrwt>
<pdfrwt beam="2">  1        2 0.98466644E-03 0.25465481E+02</pdfrwt>
<pdfrwt beam="1">  1       -2 0.38969777E-02 0.25465481E+02</pdfrwt>
<totfact> 0.21481154E+06</totfact>
</mgrwt>
</event>
<event>
 4    1  0.3704929E-001  0.3051777E+02  0.7818608E-02  0.1592435E+00
          2   -1    0    0  501    0  0.00000000000E+00  0.00000000000E+00  0.28209757039E+01  0.28209769021E+01  0.26000000000E-02 0.  1.
         -2   -1    0    0    0  501 -0.00000000000E+00 -0.00000000000E+00 -0.82536518599E+02  0.82536518640E+02  0.26000000000E-02 0. -1.
        -13    1    1    2    0    0 -0.12898667472E+02 -0.78050661679E+01 -0.46433768953E+02  0.48820085540E+02  0.10570000000E+00 0. -1.
         13    1    1    2    0    0  0.12898667472E+02  0.78050661679E+01 -0.33281773941E+02  0.36537410001E+02  0.10570000000E+00 0.  1.
<mgrwt>
<rscale>  0 0.30517770E+02</rscale>
<asrwt>0</asrwt>
<pdfrwt beam="1">  1        2 0.43399642E-03 0.30517770E+02</pdfrwt>
<pdfrwt beam="2">  1       -2 0.12697924E-01 0.30517770E+02</pdfrwt>
<totfact> 0.11971912E+06</totfact>
</mgrwt>
</event>
<event>
 4    1  0.3704929E-001  0.2694047E+02  0.7818608E-02  0.1634599E+00
          2   -1    0    0  501    0  0.00000000000E+00  0.00000000000E+00  0.10435233374E+03  0.10435233377E+03  0.26000000000E-02 0. -1.
         -2   -1    0    0    0  501 -0.00000000000E+00 -0.00000000000E+00 -0.17387935697E+01  0.17387955135E+01  0.26000000000E-02 0.  1.
        -13    1    1    2    0    0  0.72690000919E+01  0.10633364719E+02  0.66825267866E+02  0.68055377491E+02  0.10570000000E+00 0. -1.
         13    1    1    2    0    0 -0.72690000919E+01 -0.10633364719E+02  0.35788272304E+02  0.38035751794E+02  0.10570000000E+00 0.  1.
<mgrwt>
<rscale>  0 0.26940473E+02</rscale>
<asrwt>0</asrwt>
<pdfrwt beam="1">  1        2 0.16054208E-01 0.26940473E+02</pdfrwt>
<pdfrwt beam="2">  1       -2 0.26750681E-03 0.26940473E+02</pdfrwt>
<totfact> 0.27149446E+06</totfact>
</mgrwt>
</event>
<event>
 4    1  0.3704929E-001  0.2098893E+02  0.7818608E-02  0.1726348E+00
         -2   -1    0    0    0  501 -0.00000000000E+00  0.00000000000E+00  0.21692104677E+02  0.21692104832E+02  0.26000000000E-02 0. -1.
          2   -1    0    0  501    0  0.00000000000E+00 -0.00000000000E+00 -0.50771391667E+01  0.50771398324E+01  0.26000000000E-02 0.  1.
        -13    1    1    2    0    0  0.33327783629E+01 -0.99493186766E+01  0.81005731786E+01  0.13256199005E+02  0.10570000000E+00 0.  1.
         13    1    1    2    0    0 -0.33327783629E+01  0.99493186766E+01  0.85143923313E+01  0.13513045660E+02  0.10570000000E+00 0. -1.
<mgrwt>
<rscale>  0 0.20988935E+02</rscale>
<asrwt>0</asrwt>
<pdfrwt beam="2">  1        2 0.78109840E-03 0.20988935E+02</pdfrwt>
<pdfrwt beam="1">  1       -2 0.33372469E-02 0.20988935E+02</pdfrwt>
<totfact> 0.33460097E+06</totfact>
</mgrwt>
</event>
<event>
 4    1  0.3704929E-001  0.2336939E+02  0.7818608E-02  0.1685591E+00
          2   -1    0    0  501    0  0.00000000000E+00  0.00000000000E+00  0.20406915332E+01  0.20406931895E+01  0.26000000000E-02 0. -1.
         -2   -1    0    0    0  501 -0.00000000000E+00 -0.00000000000E+00 -0.66904779616E+02  0.66904779666E+02  0.26000000000E-02 0.  1.
        -13    1    1    2    0    0 -0.64638400133E+01  0.94910265331E+01 -0.38800814891E+02  0.40464493337E+02  0.10570000000E+00 0. -1.
         13    1    1    2    0    0  0.64638400133E+01 -0.94910265331E+01 -0.26063273192E+02  0.28480979519E+02  0.10570000000E+00 0.  1.
<mgrwt>
<rscale>  0 0.23369388E+02</rscale>
<asrwt>0</asrwt>
<pdfrwt beam="1">  1        2 0.31395273E-03 0.23369388E+02</pdfrwt>
<pdfrwt beam="2">  1       -2 0.10293041E-01 0.23369388E+02</pdfrwt>
<totfact> 0.22920796E+06</totfact>
</mgrwt>
</event>
<event>
 4    1  0.3704929E-001  0.3205723E+02  0.7818608E-02  0.1576402E+00
          2   -1    0    0  501    0  0.00000000000E+00  0.00000000000E+00  0.28909504618E+01  0.28909516309E+01  0.26000000000E-02 0. -1.
         -2   -1    0    0    0  501 -0.00000000000E+00 -0.00000000000E+00 -0.88869209051E+02  0.88869209089E+02  0.26000000000E-02 0.  1.
        -13    1    1    2    0    0  0.74145012117E+01 -0.13015457021E+02 -0.59314369725E+02  0.61176650595E+02  0.10570000000E+00 0.  1.
         13    1    1    2    0    0 -0.74145012117E+01  0.13015457021E+02 -0.26663888865E+02  0.30583510125E+02  0.10570000000E+00 0. -1.
<mgrwt>
<rscale>  0 0.32057232E+02</rscale>
<asrwt>0</asrwt>
<pdfrwt beam="1">  1        2 0.44476177E-03 0.32057232E+02</pdfrwt>
<pdfrwt beam="2">  1       -2 0.13672184E-01 0.32057232E+02</pdfrwt>
<totfact> 0.10505737E+06</totfact>
</mgrwt>
</event>
<event>
 4    1  0.3704929E-001  0.2785220E+02  0.7818608E-02  0.1623120E+00
         -2   -1    0    0    0  501 -0.00000000000E+00  0.00000000000E+00  0.26384120897E+02  0.26384121025E+02  0.26000000000E-02 0.  1.
          2   -1    0    0  501    0  0.00000000000E+00 -0.00000000000E+00 -0.73504889234E+01  0.73504893832E+01  0.26000000000E-02 0. -1.
        -13    1    1    2    0    0  0.88418268498E+01 -0.65378345671E+01 -0.83196331850E+00  0.11028350662E+02  0.10570000000E+00 0. -1.
         13    1    1    2    0    0 -0.88418268498E+01  0.65378345671E+01  0.19865595292E+02  0.22706259746E+02  0.10570000000E+00 0.  1.
<mgrwt>
<rscale>  0 0.27852195E+02</rscale>
<asrwt>0</asrwt>
<pdfrwt beam="2">  1        2 0.11308445E-02 0.27852195E+02</pdfrwt>
<pdfrwt beam="1">  1       -2 0.40590957E-02 0.27852195E+02</pdfrwt>
<totfact> 0.17476437E+06</totfact>
</mgrwt>
</event>
<event>
 4    1  0.3704929E-001  0.2477710E+02  0.7818608E-02  0.1664224E+00
          2   -1    0    0  501    0  0.00000000000E+00  0.00000000000E+00  0.18115072777E+02  0.18115072964E+02  0.26000000000E-02 0.  1.
         -2   -1    0    0    0  501 -0.00000000000E+00 -0.00000000000E+00 -0.84722890737E+01  0.84722894727E+01  0.26000000000E-02 0. -1.
        -13    1    1    2    0    0  0.11035838914E+02 -0.48541305861E-01  0.10860440740E+02  0.15483941435E+02  0.10570000000E+00 0.  1.
         13    1    1    2    0    0 -0.11035838914E+02  0.48541305861E-01 -0.12176570365E+01  0.11103421002E+02  0.10570000000E+00 0. -1.
<mgrwt>
<rscale>  0 0.24777098E+02</rscale>
<asrwt>0</asrwt>
<pdfrwt beam="1">  1        2 0.27869343E-02 0.24777098E+02</pdfrwt>
<pdfrwt beam="2">  1       -2 0.13034291E-02 0.24777098E+02</pdfrwt>
<totfact> 0.25222942E+06</totfact>
</mgrwt>
</event>
<event>
 4    1  0.3704929E-001  0.4304411E+02  0.7818608E-02  0.1486935E+00
         -2   -1    0    0    0  501 -0.00000000000E+00  0.00000000000E+00  0.47213347123E+02  0.47213347195E+02  0.26000000000E-02 0. -1.
          2   -1    0    0  501    0  0.00000000000E+00 -0.00000000000E+00 -0.98107605594E+01  0.98107609040E+01  0.26000000000E-02 0.  1.
        -13    1    1    2    0    0  0.19404778855E+02  0.37441680659E+01  0.74115726876E+01  0.21107032456E+02  0.10570000000E+00 0.  1.
         13    1    1    2    0    0 -0.19404778855E+02 -0.37441680659E+01  0.29991013876E+02  0.35917075643E+02  0.10570000000E+00 0. -1.
<mgrwt>
<rscale>  0 0.43044110E+02</rscale>
<asrwt>0</asrwt>
<pdfrwt beam="2">  1        2 0.15093478E-02 0.43044110E+02</pdfrwt>
<pdfrwt beam="1">  1       -2 0.72635919E-02 0.43044110E+02</pdfrwt>
<totfact> 0.58880586E+05</totfact>
</mgrwt>
</event>
<event>
 4    1  0.3704929E-001  0.2690325E+02  0.7818608E-02  0.1635079E+00
         -2   -1    0    0    0  501 -0.00000000000E+00  0.00000000000E+00  0.75444134775E+02  0.75444134819E+02  0.26000000000E-02 0. -1.
          2   -1    0    0  501    0  0.00000000000E+00 -0.00000000000E+00 -0.23984123351E+01  0.23984137444E+01  0.26000000000E-02 0.  1.
        -13    1    1    2    0    0  0.12933433065E+02 -0.23577860047E+01  0.44758803815E+02  0.46649700290E+02  0.10570000000E+00 0. -1.
         13    1    1    2    0    0 -0.12933433065E+02  0.23577860047E+01  0.28286918624E+02  0.31192848274E+02  0.10570000000E+00 0.  1.
<mgrwt>
<rscale>  0 0.26903249E+02</rscale>
<asrwt>0</asrwt>
<pdfrwt beam="2">  1        2 0.36898662E-03 0.26903249E+02</pdfrwt>
<pdfrwt beam="1">  1       -2 0.11606790E-01 0.26903249E+02</pdfrwt>
<totfact> 0.16298067E+06</totfact>
</mgrwt>
</event>
<event>
 4    1  0.3704929E-001  0.2399973E+02  0.7818608E-02  0.1675799E+00
         -2   -1    0    0    0  501 -0.00000000000E+00  0.00000000000E+00  0.23105974495E+01  0.23105989124E+01  0.26000000000E-02 0.  1.
          2   -1    0    0  501    0  0.00000000000E+00 -0.00000000000E+00 -0.62320106202E+02  0.62320106256E+02  0.26000000000E-02 0. -1.
        -13    1    1    2    0    0 -0.99807084491E+01 -0.22593939687E+01 -0.13129832793E+02  0.16647014265E+02  0.10570000000E+00 0.  1.
         13    1    1    2    0    0  0.99807084491E+01  0.22593939687E+01 -0.46879675959E+02  0.47983690904E+02  0.10570000000E+00 0. -1.
<mgrwt>
<rscale>  0 0.23999727E+02</rscale>
<asrwt>0</asrwt>
<pdfrwt beam="2">  1        2 0.95877075E-02 0.23999727E+02</pdfrwt>
<pdfrwt beam="1">  1       -2 0.35547670E-03 0.23999727E+02</pdfrwt>
<totfact> 0.31811031E+06</totfact>
</mgrwt>
</event>
<event>
 4    1  0.3704929E-001  0.3048989E+02  0.7818608E-02  0.1592736E+00
         -2   -1    0    0    0  501 -0.00000000000E+00  0.00000000000E+00  0.40850101560E+01  0.40850109834E+01  0.26000000000E-02 0.  1.
          2   -1    0    0  501    0  0.00000000000E+00 -0.00000000000E+00 -0.56892955790E+02  0.56892955850E+02  0.26000000000E-02 0. -1.
        -13    1    1    2    0    0 -0.11198425195E+02 -0.80095226729E+01 -0.13313910577E+02  0.19152769190E+02  0.10570000000E+00 0.  1.
         13    1    1    2    0    0  0.11198425195E+02  0.80095226729E+01 -0.39494035058E+02  0.41825197644E+02  0.10570000000E+00 0. -1.
<mgrwt>
<rscale>  0 0.30489889E+02</rscale>
<asrwt>0</asrwt>
<pdfrwt beam="2">  1        2 0.87527619E-02 0.30489889E+02</pdfrwt>
<pdfrwt beam="1">  1       -2 0.62846321E-03 0.30489889E+02</pdfrwt>
<totfact> 0.17882551E+06</totfact>
</mgrwt>
</event>
<event>
 4    1  0.3704929E-001  0.2671353E+02  0.7818608E-02  0.1637543E+00
          2   -1    0    0  501    0  0.00000000000E+00  0.00000000000E+00  0.94026406083E+02  0.94026406119E+02  0.26000000000E-02 0.  1.
         -2   -1    0    0    0  501 -0.00000000000E+00 -0.00000000000E+00 -0.18973716681E+01  0.18973734495E+01  0.26000000000E-02 0. -1.
        -13    1    1    2    0    0 -0.84219093753E+01 -0.88755356013E+01  0.26831510181E+02  0.29489740603E+02  0.10570000000E+00 0.  1.
         13    1    1    2    0    0  0.84219093753E+01  0.88755356013E+01  0.65297524234E+02  0.66434038965E+02  0.10570000000E+00 0. -1.
<mgrwt>
<rscale>  0 0.26713527E+02</rscale>
<asrwt>0</asrwt>
<pdfrwt beam="1">  1        2 0.14465598E-01 0.26713527E+02</pdfrwt>
<pdfrwt beam="2">  1       -2 0.29190353E-03 0.26713527E+02</pdfrwt>
<totfact> 0.27016024E+06</totfact>
</mgrwt>
</event>
<event>
 4    1  0.3704929E-001  0.2072479E+02  0.7818608E-02  0.1731287E+00
         -2   -1    0    0    0  501 -0.00000000000E+00  0.00000000000E+00  0.14246741946E+01  0.14246765671E+01  0.26000000000E-02 0. -1.
          2   -1    0    0  501    0  0.00000000000E+00 -0.00000000000E+00 -0.75370994895E+02  0.75370994940E+02  0.26000000000E-02 0.  1.
        -13    1    1    2    0    0  0.77327383178E-01 -0.10286389749E+02 -0.32356522185E+02  0.33952488775E+02  0.10570000000E+00 0. -1.
         13    1    1    2    0    0 -0.77327383178E-01  0.10286389749E+02 -0.41589798515E+02  0.42843182732E+02  0.10570000000E+00 0.  1.
<mgrwt>
<rscale>  0 0.20724788E+02</rscale>
<asrwt>0</asrwt>
<pdfrwt beam="2">  1        2 0.11595535E-01 0.20724788E+02</pdfrwt>
<pdfrwt beam="1">  1       -2 0.21918089E-03 0.20724788E+02</pdfrwt>
<totfact> 0.45930130E+06</totfact>
</mgrwt>
</event>
<event>
 4    1  0.3704929E-001  0.3592113E+02  0.7818608E-02  0.1540570E+00
          2   -1    0    0  501    0  0.00000000000E+00  0.00000000000E+00  0.10981599164E+03  0.10981599167E+03  0.26000000000E-02 0.  1.
         -2   -1    0    0    0  501 -0.00000000000E+00 -0.00000000000E+00 -0.29374765207E+01  0.29374776714E+01  0.26000000000E-02 0. -1.
        -13    1    1    2    0    0 -0.12047973501E+02  0.12241745058E+02  0.69916870531E+02  0.71995791161E+02  0.10570000000E+00 0. -1.
         13    1    1    2    0    0  0.12047973501E+02 -0.12241745058E+02  0.36961644586E+02  0.40757678179E+02  0.10570000000E+00 0.  1.
<mgrwt>
<rscale>  0 0.35921134E+02</rscale>
<asrwt>0</asrwt>
<pdfrwt beam="1">  1        2 0.16894767E-01 0.35921134E+02</pdfrwt>
<pdfrwt beam="2">  1       -2 0.45191959E-03 0.35921134E+02</pdfrwt>
<totfact> 0.13908724E+06</totfact>
</mgrwt>
</event>
<event>
 4    1  0.3704929E-001  0.2480936E+02  0.7818608E-02  0.1663755E+00
          2   -1    0    0  501    0  0.00000000000E+00  0.00000000000E+00  0.15063658151E+01  0.15063680589E+01  0.26000000000E-02 0. -1.
         -2   -1    0    0    0  501 -0.00000000000E+00 -0.00000000000E+00 -0.10215049156E+03  0.10215049160E+03  0.26000000000E-02 0.  1.
        -13    1    1    2    0    0  0.11810356256E+02  0.27304868080E+01 -0.61316894506E+02  0.62503702270E+02  0.10570000000E+00 0.  1.
         13    1    1    2    0    0 -0.11810356256E+02 -0.27304868080E+01 -0.39327231241E+02  0.41153157384E+02  0.10570000000E+00 0. -1.
<mgrwt>
<rscale>  0 0.24809363E+02</rscale>
<asrwt>0</asrwt>
<pdfrwt beam="1">  1        2 0.23174884E-03 0.24809363E+02</pdfrwt>
<pdfrwt beam="2">  1       -2 0.15715455E-01 0.24809363E+02</pdfrwt>
<totfact> 0.18329699E+06</totfact>
</mgrwt>
</event>
<event>
 4    1  0.3704929E-001  0.3704290E+02  0.7818608E-02  0.1531173E+00
         -2   -1    0    0    0  501 -0.00000000000E+00  0.00000000000E+00  0.42360256537E+01  0.42360264517E+01  0.26000000000E-02 0. -1.
          2   -1    0    0  501    0  0.00000000000E+00 -0.00000000000E+00 -0.80982527756E+02  0.80982527798E+02  0.26000000000E-02 0.  1.
        -13    1    1    2    0    0 -0.13428533733E+02  0.25747188242E+00 -0.90343147204E+01  0.16187088217E+02  0.10570000000E+00 0. -1.
         13    1    1    2    0    0  0.13428533733E+02 -0.25747188242E+00 -0.67712187382E+02  0.69031466032E+02  0.10570000000E+00 0.  1.
<mgrwt>
<rscale>  0 0.37042900E+02</rscale>
<asrwt>0</asrwt>
<pdfrwt beam="2">  1        2 0.12458849E-01 0.37042900E+02</pdfrwt>
<pdfrwt beam="1">  1       -2 0.65169638E-03 0.37042900E+02</pdfrwt>
<totfact> 0.11996493E+06</totfact>
</mgrwt>
</event>
<event>
 4    1  0.3704929E-001  0.2147338E+02  0.7818608E-02  0.1717522E+00
          2   -1    0    0  501    0  0.00000000000E+00  0.00000000000E+00  0.41861120711E+02  0.41861120792E+02  0.26000000000E-02 0.  1.
         -2   -1    0    0    0  501 -0.00000000000E+00 -0.00000000000E+00 -0.27537835151E+01  0.27537847425E+01  0.26000000000E-02 0. -1.
        -13    1    1    2    0    0  0.70735128417E+01  0.78113500934E+01  0.23818516089E+02  0.26045818386E+02  0.10570000000E+00 0.  1.
         13    1    1    2    0    0 -0.70735128417E+01 -0.78113500934E+01  0.15288821107E+02  0.18569087148E+02  0.10570000000E+00 0. -1.
<mgrwt>
<rscale>  0 0.21473378E+02</rscale>
<asrwt>0</asrwt>
<pdfrwt beam="1">  1        2 0.64401723E-02 0.21473378E+02</pdfrwt>
<pdfrwt beam="2">  1       -2 0.42365912E-03 0.21473378E+02</pdfrwt>
<totfact> 0.38496511E+06</totfact>
</mgrwt>
</event>
<event>
 4    1  0.3704929E-001  0.2332632E+02  0.7818608E-02  0.1686275E+00
         -2   -1    0    0    0  501 -0.00000000000E+00  0.00000000000E+00  0.41480964401E+02  0.41480964482E+02  0.26000000000E-02 0.  1.
          2   -1    0    0  501    0  0.00000000000E+00 -0.00000000000E+00 -0.32793179870E+01  0.32793190177E+01  0.26000000000E-02 0. -1.
        -13    1    1    2    0    0 -0.11496776146E+02  0.10162632331E+01  0.15884505165E+02  0.19635104521E+02  0.10570000000E+00 0.  1.
         13    1    1    2    0    0  0.11496776146E+02 -0.10162632331E+01  0.22317141249E+02  0.25125178979E+02  0.10570000000E+00 0. -1.
<mgrwt>
<rscale>  0 0.23326320E+02</rscale>
<asrwt>0</asrwt>
<pdfrwt beam="2">  1        2 0.50451056E-03 0.23326320E+02</pdfrwt>
<pdfrwt beam="1">  1       -2 0.63816867E-02 0.23326320E+02</pdfrwt>
<totfact> 0.24740037E+06</totfact>
</mgrwt>
</event>
<event>
 4    1  0.3704929E-001  0.3607023E+02  0.7818608E-02  0.1539297E+00
          2   -1    0    0  501    0  0.00000000000E+00  0.00000000000E+00  0.18300734502E+02  0.18300734687E+02  0.26000000000E-02 0.  1.
         -2   -1    0    0    0  501 -0.00000000000E+00 -0.00000000000E+00 -0.17773345811E+02  0.17773346001E+02  0.26000000000E-02 0. -1.
        -13    1    1    2    0    0 -0.26652903884E+00  0.11865811280E+02 -0.13316623022E+02  0.17838501513E+02  0.10570000000E+00 0. -1.
         13    1    1    2    0    0  0.26652903884E+00 -0.11865811280E+02  0.13844011713E+02  0.18235579175E+02  0.10570000000E+00 0.  1.
<mgrwt>
<rscale>  0 0.36070225E+02</rscale>
<asrwt>0</asrwt>
<pdfrwt beam="1">  1        2 0.28154976E-02 0.36070225E+02</pdfrwt>
<pdfrwt beam="2">  1       -2 0.27343609E-02 0.36070225E+02</pdfrwt>
<totfact> 0.10133525E+06</totfact>
</mgrwt>
</event>
<event>
 4    1  0.3704929E-001  0.2879356E+02  0.7818608E-02  0.1611820E+00
         -2   -1    0    0    0  501 -0.00000000000E+00  0.00000000000E+00  0.30644147225E+01  0.30644158255E+01  0.26000000000E-02 0.  1.
          2   -1    0    0  501    0  0.00000000000E+00 -0.00000000000E+00 -0.67636788431E+02  0.67636788481E+02  0.26000000000E-02 0. -1.
        -13    1    1    2    0    0 -0.67925897751E+01  0.12692559015E+02 -0.31978438182E+02  0.35069531096E+02  0.10570000000E+00 0. -1.
         13    1    1    2    0    0  0.67925897751E+01 -0.12692559015E+02 -0.32593935527E+02  0.35631673211E+02  0.10570000000E+00 0.  1.
<mgrwt>
<rscale>  0 0.28793556E+02</rscale>
<asrwt>0</asrwt>
<pdfrwt beam="2">  1        2 0.10405659E-01 0.28793556E+02</pdfrwt>
<pdfrwt beam="1">  1       -2 0.47144856E-03 0.28793556E+02</pdfrwt>
<totfact> 0.21148723E+06</totfact>
</mgrwt>
</event>
<event>
 4    1  0.3704929E-001  0.2291564E+02  0.7818608E-02  0.1692881E+00
          2   -1    0    0  501    0  0.00000000000E+00  0.00000000000E+00  0.14762708760E+02  0.14762708989E+02  0.26000000000E-02 0. -1.
         -2   -1    0    0    0  501 -0.00000000000E+00 -0.00000000000E+00 -0.88927854691E+01  0.88927858492E+01  0.26000000000E-02 0.  1.
        -13    1    1    2    0    0  0.83577142538E+01 -0.67583922272E+01 -0.11609103572E+01  0.10811389291E+02  0.10570000000E+00 0.  1.
         13    1    1    2    0    0 -0.83577142538E+01  0.67583922272E+01  0.70308336485E+01  0.12844105548E+02  0.10570000000E+00 0. -1.
<mgrwt>
<rscale>  0 0.22915637E+02</rscale>
<asrwt>0</asrwt>
<pdfrwt beam="1">  1        2 0.22711860E-02 0.22915637E+02</pdfrwt>
<pdfrwt beam="2">  1       -2 0.13681209E-02 0.22915637E+02</pdfrwt>
<totfact> 0.29725752E+06</totfact>
</mgrwt>
</event>
<event>
 4    1  0.3704929E-001  0.2512838E+02  0.7818608E-02  0.1659165E+00
         -2   -1    0    0    0  501 -0.00000000000E+00  0.00000000000E+00  0.13387567542E+02  0.13387567794E+02  0.26000000000E-02 0. -1.
          2   -1    0    0  501    0  0.00000000000E+00 -0.00000000000E+00 -0.11791456373E+02  0.11791456660E+02  0.26000000000E-02 0.  1.
        -13    1    1    2    0    0 -0.10925576403E+02  0.52176028634E+01 -0.25637247854E+01  0.12376407259E+02  0.10570000000E+00 0.  1.
         13    1    1    2    0    0  0.10925576403E+02 -0.52176028634E+01  0.41598359540E+01  0.12802617195E+02  0.10570000000E+00 0. -1.
<mgrwt>
<rscale>  0 0.25128384E+02</rscale>
<asrwt>0</asrwt>
<pdfrwt beam="2">  1        2 0.18140703E-02 0.25128384E+02</pdfrwt>
<pdfrwt beam="1">  1       -2 0.20596258E-02 0.25128384E+02</pdfrwt>
<totfact> 0.23470441E+06</totfact>
</mgrwt>
</event>
<event>
 4    1  0.3704929E-001  0.4615898E+02  0.7818608E-02  0.1467233E+00
         -2   -1    0    0    0  501 -0.00000000000E+00  0.00000000000E+00  0.10093605526E+02  0.10093605861E+02  0.26000000000E-02 0. -1.
          2   -1    0    0  501    0  0.00000000000E+00 -0.00000000000E+00 -0.52772300445E+02  0.52772300509E+02  0.26000000000E-02 0.  1.
        -13    1    1    2    0    0  0.20965523055E+02  0.47697146389E+01 -0.32762494636E+02  0.39187951745E+02  0.10570000000E+00 0.  1.
         13    1    1    2    0    0 -0.20965523055E+02 -0.47697146389E+01 -0.99162002821E+01  0.23677954625E+02  0.10570000000E+00 0. -1.
<mgrwt>
<rscale>  0 0.46158977E+02</rscale>
<asrwt>0</asrwt>
<pdfrwt beam="2">  1        2 0.81188153E-02 0.46158977E+02</pdfrwt>
<pdfrwt beam="1">  1       -2 0.15528624E-02 0.46158977E+02</pdfrwt>
<totfact> 0.63571302E+05</totfact>
</mgrwt>
</event>
<event>
 4    1  0.3704929E-001  0.4493747E+02  0.7818608E-02  0.1474732E+00
          2   -1    0    0  501    0  0.00000000000E+00  0.00000000000E+00  0.28462313168E+02  0.28462313286E+02  0.26000000000E-02 0.  1.
         -2   -1    0    0    0  501 -0.00000000000E+00 -0.00000000000E+00 -0.17737280358E+02  0.17737280548E+02  0.26000000000E-02 0. -1.
        -13    1    1    2    0    0  0.18377439043E+02  0.40444926881E+01  0.17985166350E+02  0.26030089666E+02  0.10570000000E+00 0.  1.
         13    1    1    2    0    0 -0.18377439043E+02 -0.40444926881E+01 -0.72601335403E+01  0.20169504169E+02  0.10570000000E+00 0. -1.
<mgrwt>
<rscale>  0 0.44937469E+02</rscale>
<asrwt>0</asrwt>
<pdfrwt beam="1">  1        2 0.43788174E-02 0.44937469E+02</pdfrwt>
<pdfrwt beam="2">  1       -2 0.27288124E-02 0.44937469E+02</pdfrwt>
<totfact> 0.61431565E+05</totfact>
</mgrwt>
</event>
<event>
 4    1  0.3704929E-001  0.2317362E+02  0.7818608E-02  0.1688711E+00
         -2   -1    0    0    0  501 -0.00000000000E+00  0.00000000000E+00  0.20575721019E+01  0.20575737446E+01  0.26000000000E-02 0.  1.
          2   -1    0    0  501    0  0.00000000000E+00 -0.00000000000E+00 -0.65248778069E+02  0.65248778121E+02  0.26000000000E-02 0. -1.
        -13    1    1    2    0    0 -0.57360688520E+01 -0.95140887835E+01 -0.22040670612E+02  0.24682437173E+02  0.10570000000E+00 0.  1.
         13    1    1    2    0    0  0.57360688520E+01  0.95140887835E+01 -0.41150535355E+02  0.42623914693E+02  0.10570000000E+00 0. -1.
<mgrwt>
<rscale>  0 0.23173616E+02</rscale>
<asrwt>0</asrwt>
<pdfrwt beam="2">  1        2 0.10038272E-01 0.23173616E+02</pdfrwt>
<pdfrwt beam="1">  1       -2 0.31654974E-03 0.23173616E+02</pdfrwt>
<totfact> 0.34748265E+06</totfact>
</mgrwt>
</event>
<event>
 4    1  0.3704929E-001  0.2113782E+02  0.7818608E-02  0.1723604E+00
          2   -1    0    0  501    0  0.00000000000E+00  0.00000000000E+00  0.11265336514E+01  0.11265366517E+01  0.26000000000E-02 0.  1.
         -2   -1    0    0    0  501 -0.00000000000E+00 -0.00000000000E+00 -0.99155204560E+02  0.99155204594E+02  0.26000000000E-02 0. -1.
        -13    1    1    2    0    0  0.74320168828E+01 -0.74378942033E+01 -0.54065299222E+02  0.55078352350E+02  0.10570000000E+00 0.  1.
         13    1    1    2    0    0 -0.74320168828E+01  0.74378942033E+01 -0.43963371687E+02  0.45203388896E+02  0.10570000000E+00 0. -1.
<mgrwt>
<rscale>  0 0.21137817E+02</rscale>
<asrwt>0</asrwt>
<pdfrwt beam="1">  1        2 0.17331318E-03 0.21137817E+02</pdfrwt>
<pdfrwt beam="2">  1       -2 0.15254640E-01 0.21137817E+02</pdfrwt>
<totfact> 0.26389358E+06</totfact>
</mgrwt>
</event>
<event>
 4    1  0.3704929E-001  0.6406861E+02  0.7818608E-02  0.1381510E+00
         -2   -1    0    0    0  501 -0.00000000000E+00  0.00000000000E+00  0.99857604782E+02  0.99857604816E+02  0.26000000000E-02 0.  1.
          2   -1    0    0  501    0  0.00000000000E+00 -0.00000000000E+00 -0.10276600443E+02  0.10276600772E+02  0.26000000000E-02 0. -1.
        -13    1    1    2    0    0  0.62376332801E+01 -0.19383605963E+02  0.22802115502E+01  0.20490065551E+02  0.10570000000E+00 0. -1.
         13    1    1    2    0    0 -0.62376332801E+01  0.19383605963E+02  0.87300792788E+02  0.89644140037E+02  0.10570000000E+00 0.  1.
<mgrwt>
<rscale>  0 0.64068611E+02</rscale>
<asrwt>0</asrwt>
<pdfrwt beam="2">  1        2 0.15810155E-02 0.64068611E+02</pdfrwt>
<pdfrwt beam="1">  1       -2 0.15362708E-01 0.64068611E+02</pdfrwt>
<totfact> 0.19193154E+05</totfact>
</mgrwt>
</event>
<event>
 4    1  0.3704929E-001  0.3238642E+02  0.7818608E-02  0.1573115E+00
          2   -1    0    0  501    0  0.00000000000E+00  0.00000000000E+00  0.18497449811E+03  0.18497449813E+03  0.26000000000E-02 0.  1.
         -2   -1    0    0    0  501 -0.00000000000E+00 -0.00000000000E+00 -0.14175996750E+01  0.14176020593E+01  0.26000000000E-02 0. -1.
        -13    1    1    2    0    0 -0.86248354481E+01 -0.13704710937E+02  0.92032688246E+02  0.93446421904E+02  0.10570000000E+00 0.  1.
         13    1    1    2    0    0  0.86248354481E+01  0.13704710937E+02  0.91524210190E+02  0.92945678285E+02  0.10570000000E+00 0. -1.
<mgrwt>
<rscale>  0 0.32386418E+02</rscale>
<asrwt>0</asrwt>
<pdfrwt beam="1">  1        2 0.28457609E-01 0.32386418E+02</pdfrwt>
<pdfrwt beam="2">  1       -2 0.21809249E-03 0.32386418E+02</pdfrwt>
<totfact> 0.20674737E+06</totfact>
</mgrwt>
</event>
<event>
 4    1  0.3704929E-001  0.5776250E+02  0.7818608E-02  0.1407469E+00
          2   -1    0    0  501    0  0.00000000000E+00  0.00000000000E+00  0.77903096381E+01  0.77903100720E+01  0.26000000000E-02 0.  1.
         -2   -1    0    0    0  501 -0.00000000000E+00 -0.00000000000E+00 -0.10707232450E+03  0.10707232453E+03  0.26000000000E-02 0. -1.
        -13    1    1    2    0    0  0.17258468474E+02 -0.22927151755E+02 -0.56117154097E+02  0.63029002674E+02  0.10570000000E+00 0.  1.
         13    1    1    2    0    0 -0.17258468474E+02  0.22927151755E+02 -0.43164860764E+02  0.51833631929E+02  0.10570000000E+00 0. -1.
<mgrwt>
<rscale>  0 0.57762500E+02</rscale>
<asrwt>0</asrwt>
<pdfrwt beam="1">  1        2 0.11985093E-02 0.57762500E+02</pdfrwt>
<pdfrwt beam="2">  1       -2 0.16472664E-01 0.57762500E+02</pdfrwt>
<totfact> 0.24334053E+05</totfact>
</mgrwt>
</event>
<event>
 4    1  0.3704929E-001  0.2790595E+02  0.7818608E-02  0.1622460E+00
         -2   -1    0    0    0  501 -0.00000000000E+00  0.00000000000E+00  0.20382442801E+02  0.20382442967E+02  0.26000000000E-02 0. -1.
          2   -1    0    0  501    0  0.00000000000E+00 -0.00000000000E+00 -0.95516255845E+01  0.95516259384E+01  0.26000000000E-02 0.  1.
        -13    1    1    2    0    0 -0.11173108481E+02 -0.45430348982E+01 -0.21083927324E+01  0.12244754453E+02  0.10570000000E+00 0.  1.
         13    1    1    2    0    0  0.11173108481E+02  0.45430348982E+01  0.12939209949E+02  0.17689314452E+02  0.10570000000E+00 0. -1.
<mgrwt>
<rscale>  0 0.27905947E+02</rscale>
<asrwt>0</asrwt>
<pdfrwt beam="2">  1        2 0.14694809E-02 0.27905947E+02</pdfrwt>
<pdfrwt beam="1">  1       -2 0.31357604E-02 0.27905947E+02</pdfrwt>
<totfact> 0.17865293E+06</totfact>
</mgrwt>
</event>
<event>
 4    1  0.3704929E-001  0.2275806E+02  0.7818608E-02  0.1695462E+00
         -2   -1    0    0    0  501 -0.00000000000E+00  0.00000000000E+00  0.85817616994E+01  0.85817620932E+01  0.26000000000E-02 0. -1.
          2   -1    0    0  501    0  0.00000000000E+00 -0.00000000000E+00 -0.15088077027E+02  0.15088077251E+02  0.26000000000E-02 0.  1.
        -13    1    1    2    0    0  0.23813367926E+01 -0.10983942137E+02 -0.14062407379E+01  0.11327243058E+02  0.10570000000E+00 0. -1.
         13    1    1    2    0    0 -0.23813367926E+01  0.10983942137E+02 -0.51000745896E+01  0.12342596287E+02  0.10570000000E+00 0.  1.
<mgrwt>
<rscale>  0 0.22758057E+02</rscale>
<asrwt>0</asrwt>
<pdfrwt beam="2">  1        2 0.23212427E-02 0.22758057E+02</pdfrwt>
<pdfrwt beam="1">  1       -2 0.13202711E-02 0.22758057E+02</pdfrwt>
<totfact> 0.30262291E+06</totfact>
</mgrwt>
</event>
<event>
 4    1  0.3704929E-001  0.3335112E+02  0.7818608E-02  0.1563750E+00
          2   -1    0    0  501    0  0.00000000000E+00  0.00000000000E+00  0.94151132863E+01  0.94151136453E+01  0.26000000000E-02 0. -1.
         -2   -1    0    0    0  501 -0.00000000000E+00 -0.00000000000E+00 -0.29534878037E+02  0.29534878151E+02  0.26000000000E-02 0.  1.
        -13    1    1    2    0    0 -0.37620169465E+01  0.10318212972E+02  0.45942840582E+01  0.11905331114E+02  0.10570000000E+00 0. -1.
         13    1    1    2    0    0  0.37620169465E+01 -0.10318212972E+02 -0.24714048809E+02  0.27044660683E+02  0.10570000000E+00 0.  1.
<mgrwt>
<rscale>  0 0.33351116E+02</rscale>
<asrwt>0</asrwt>
<pdfrwt beam="1">  1        2 0.14484790E-02 0.33351116E+02</pdfrwt>
<pdfrwt beam="2">  1       -2 0.45438274E-02 0.33351116E+02</pdfrwt>
<totfact> 0.11425523E+06</totfact>
</mgrwt>
</event>
<event>
 4    1  0.3704929E-001  0.2350877E+02  0.7818608E-02  0.1683393E+00
          2   -1    0    0  501    0  0.00000000000E+00  0.00000000000E+00  0.20333239407E+01  0.20333256030E+01  0.26000000000E-02 0.  1.
         -2   -1    0    0    0  501 -0.00000000000E+00 -0.00000000000E+00 -0.67950536064E+02  0.67950536113E+02  0.26000000000E-02 0. -1.
        -13    1    1    2    0    0  0.11264904582E+02 -0.24801079899E+01 -0.26232248966E+02  0.28656431550E+02  0.10570000000E+00 0.  1.
         13    1    1    2    0    0 -0.11264904582E+02  0.24801079899E+01 -0.39684963157E+02  0.41327430166E+02  0.10570000000E+00 0. -1.
<mgrwt>
<rscale>  0 0.23508765E+02</rscale>
<asrwt>0</asrwt>
<pdfrwt beam="1">  1        2 0.31281925E-03 0.23508765E+02</pdfrwt>
<pdfrwt beam="2">  1       -2 0.10453927E-01 0.23508765E+02</pdfrwt>
<totfact> 0.22554706E+06</totfact>
</mgrwt>
</event>
<event>
 4    1  0.3704929E-001  0.2371714E+02  0.7818608E-02  0.1680142E+00
          2   -1    0    0  501    0  0.00000000000E+00  0.00000000000E+00  0.61127903962E+02  0.61127904017E+02  0.26000000000E-02 0. -1.
         -2   -1    0    0    0  501 -0.00000000000E+00 -0.00000000000E+00 -0.23005138716E+01  0.23005153408E+01  0.26000000000E-02 0.  1.
        -13    1    1    2    0    0 -0.28434890292E+01 -0.10386221382E+02  0.16134307728E+02  0.19398094825E+02  0.10570000000E+00 0.  1.
         13    1    1    2    0    0  0.28434890292E+01  0.10386221382E+02  0.42693082362E+02  0.44030324533E+02  0.10570000000E+00 0. -1.
<mgrwt>
<rscale>  0 0.23717136E+02</rscale>
<asrwt>0</asrwt>
<pdfrwt beam="1">  1        2 0.94042919E-02 0.23717136E+02</pdfrwt>
<pdfrwt beam="2">  1       -2 0.35392537E-03 0.23717136E+02</pdfrwt>
<totfact> 0.32573517E+06</totfact>
</mgrwt>
</event>
<event>
 4    1  0.3704929E-001  0.3115021E+02  0.7818608E-02  0.1585712E+00
          2   -1    0    0  501    0  0.00000000000E+00  0.00000000000E+00  0.43975478138E+01  0.43975485824E+01  0.26000000000E-02 0.  1.
         -2   -1    0    0    0  501 -0.00000000000E+00 -0.00000000000E+00 -0.55163446035E+02  0.55163446096E+02  0.26000000000E-02 0. -1.
        -13    1    1    2    0    0  0.48954951225E+01 -0.14697543063E+02 -0.22306318992E+02  0.27158178953E+02  0.10570000000E+00 0.  1.
         13    1    1    2    0    0 -0.48954951225E+01  0.14697543063E+02 -0.28459579229E+02  0.32402815726E+02  0.10570000000E+00 0. -1.
<mgrwt>
<rscale>  0 0.31150211E+02</rscale>
<asrwt>0</asrwt>
<pdfrwt beam="1">  1        2 0.67654592E-03 0.31150211E+02</pdfrwt>
<pdfrwt beam="2">  1       -2 0.84866836E-02 0.31150211E+02</pdfrwt>
<totfact> 0.12289373E+06</totfact>
</mgrwt>
</event>
<event>
 4    1  0.3704929E-001  0.8376213E+02  0.7818608E-02  0.1318702E+00
         -2   -1    0    0    0  501 -0.00000000000E+00  0.00000000000E+00  0.39965294058E+02  0.39965294143E+02  0.26000000000E-02 0.  1.
          2   -1    0    0  501    0  0.00000000000E+00 -0.00000000000E+00 -0.43888672885E+02  0.43888672962E+02  0.26000000000E-02 0. -1.
        -13    1    1    2    0    0 -0.29145778031E+02 -0.16203521411E+02 -0.27326833605E+02  0.43113773791E+02  0.10570000000E+00 0. -1.
         13    1    1    2    0    0  0.29145778031E+02  0.16203521411E+02  0.23403454779E+02  0.40740193313E+02  0.10570000000E+00 0.  1.
<mgrwt>
<rscale>  0 0.83762133E+02</rscale>
<asrwt>0</asrwt>
<pdfrwt beam="2">  1        2 0.67521036E-02 0.83762133E+02</pdfrwt>
<pdfrwt beam="1">  1       -2 0.61485068E-02 0.83762133E+02</pdfrwt>
<totfact> 0.12443161E+05</totfact>
</mgrwt>
</event>
<event>
 4    1  0.3704929E-001  0.2414141E+02  0.7818608E-02  0.1673649E+00
          2   -1    0    0  501    0  0.00000000000E+00  0.00000000000E+00  0.28893199300E+02  0.28893199417E+02  0.26000000000E-02 0. -1.
         -2   -1    0    0    0  501 -0.00000000000E+00 -0.00000000000E+00 -0.50427744534E+01  0.50427751236E+01  0.26000000000E-02 0.  1.
        -13    1    1    2    0    0 -0.11295353579E+01 -0.11985647653E+02  0.13149984676E+02  0.17828765219E+02  0.10570000000E+00 0. -1.
         13    1    1    2    0    0  0.11295353579E+01  0.11985647653E+02  0.10700440171E+02  0.16107209322E+02  0.10570000000E+00 0.  1.
<mgrwt>
<rscale>  0 0.24141408E+02</rscale>
<asrwt>0</asrwt>
<pdfrwt beam="1">  1        2 0.44451076E-02 0.24141408E+02</pdfrwt>
<pdfrwt beam="2">  1       -2 0.77581152E-03 0.24141408E+02</pdfrwt>
<totfact> 0.28114125E+06</totfact>
</mgrwt>
</event>
<event>
 4    1  0.3704929E-001  0.2466016E+02  0.7818608E-02  0.1665932E+00
          2   -1    0    0  501    0  0.00000000000E+00  0.00000000000E+00  0.14612407316E+02  0.14612407548E+02  0.26000000000E-02 0. -1.
         -2   -1    0    0    0  501 -0.00000000000E+00 -0.00000000000E+00 -0.10404232526E+02  0.10404232851E+02  0.26000000000E-02 0.  1.
        -13    1    1    2    0    0 -0.63832638849E+01  0.10292329738E+02  0.44486892545E+01  0.12902717459E+02  0.10570000000E+00 0. -1.
         13    1    1    2    0    0  0.63832638849E+01 -0.10292329738E+02 -0.24051446394E+00  0.12113922939E+02  0.10570000000E+00 0.  1.
<mgrwt>
<rscale>  0 0.24660161E+02</rscale>
<asrwt>0</asrwt>
<pdfrwt beam="1">  1        2 0.22480627E-02 0.24660161E+02</pdfrwt>
<pdfrwt beam="2">  1       -2 0.16006512E-02 0.24660161E+02</pdfrwt>
<totfact> 0.25010869E+06</totfact>
</mgrwt>
</event>
<event>
 4    1  0.3704929E-001  0.2316175E+02  0.7818608E-02  0.1688902E+00
          2   -1    0    0  501    0  0.00000000000E+00  0.00000000000E+00  0.43375398526E+01  0.43375406318E+01  0.26000000000E-02 0. -1.
         -2   -1    0    0    0  501 -0.00000000000E+00 -0.00000000000E+00 -0.30919973621E+02  0.30919973730E+02  0.26000000000E-02 0.  1.
        -13    1    1    2    0    0 -0.11031981169E+02 -0.35108449468E+01 -0.12874836820E+02  0.17314827068E+02  0.10570000000E+00 0.  1.
         13    1    1    2    0    0  0.11031981169E+02  0.35108449468E+01 -0.13707596948E+02  0.17942687294E+02  0.10570000000E+00 0. -1.
<mgrwt>
<rscale>  0 0.23161747E+02</rscale>
<asrwt>0</asrwt>
<pdfrwt beam="1">  1        2 0.66731391E-03 0.23161747E+02</pdfrwt>
<pdfrwt beam="2">  1       -2 0.47569190E-02 0.23161747E+02</pdfrwt>
<totfact> 0.26011532E+06</totfact>
</mgrwt>
</event>
<event>
 4    1  0.3704929E-001  0.2030376E+02  0.7818608E-02  0.1739354E+00
          2   -1    0    0  501    0  0.00000000000E+00  0.00000000000E+00  0.40276392621E+01  0.40276401013E+01  0.26000000000E-02 0. -1.
         -2   -1    0    0    0  501 -0.00000000000E+00 -0.00000000000E+00 -0.25588352792E+02  0.25588352924E+02  0.26000000000E-02 0.  1.
        -13    1    1    2    0    0 -0.56047282137E+01  0.83941034925E+01 -0.12361857339E+02  0.15959343381E+02  0.10570000000E+00 0.  1.
         13    1    1    2    0    0  0.56047282137E+01 -0.83941034925E+01 -0.91988561902E+01  0.13656649644E+02  0.10570000000E+00 0. -1.
<mgrwt>
<rscale>  0 0.20303760E+02</rscale>
<asrwt>0</asrwt>
<pdfrwt beam="1">  1        2 0.61963690E-03 0.20303760E+02</pdfrwt>
<pdfrwt beam="2">  1       -2 0.39366696E-02 0.20303760E+02</pdfrwt>
<totfact> 0.35445707E+06</totfact>
</mgrwt>
</event>
<event>
 4    1  0.3704929E-001  0.2626259E+02  0.7818608E-02  0.1643502E+00
          2   -1    0    0  501    0  0.00000000000E+00  0.00000000000E+00  0.29566579714E+01  0.29566591145E+01  0.26000000000E-02 0.  1.
         -2   -1    0    0    0  501 -0.00000000000E+00 -0.00000000000E+00 -0.58319518498E+02  0.58319518556E+02  0.26000000000E-02 0. -1.
        -13    1    1    2    0    0  0.65714898282E+01  0.94194180635E+01 -0.42531697322E+02  0.44055264893E+02  0.10570000000E+00 0. -1.
         13    1    1    2    0    0 -0.65714898282E+01 -0.94194180635E+01 -0.12831163205E+02  0.17220912778E+02  0.10570000000E+00 0.  1.
<mgrwt>
<rscale>  0 0.26262590E+02</rscale>
<asrwt>0</asrwt>
<pdfrwt beam="1">  1        2 0.45487059E-03 0.26262590E+02</pdfrwt>
<pdfrwt beam="2">  1       -2 0.89722329E-02 0.26262590E+02</pdfrwt>
<totfact> 0.18028272E+06</totfact>
</mgrwt>
</event>
<event>
 4    1  0.3704929E-001  0.2678942E+02  0.7818608E-02  0.1636555E+00
          2   -1    0    0  501    0  0.00000000000E+00  0.00000000000E+00  0.50142211061E+01  0.50142217802E+01  0.26000000000E-02 0. -1.
         -2   -1    0    0    0  501 -0.00000000000E+00 -0.00000000000E+00 -0.35781869834E+02  0.35781869929E+02  0.26000000000E-02 0.  1.
        -13    1    1    2    0    0  0.20443885199E+01  0.12957176504E+02 -0.11258322644E+02  0.17286669680E+02  0.10570000000E+00 0.  1.
         13    1    1    2    0    0 -0.20443885199E+01 -0.12957176504E+02 -0.19509326084E+02  0.23509422029E+02  0.10570000000E+00 0. -1.
<mgrwt>
<rscale>  0 0.26789418E+02</rscale>
<asrwt>0</asrwt>
<pdfrwt beam="1">  1        2 0.77141871E-03 0.26789418E+02</pdfrwt>
<pdfrwt beam="2">  1       -2 0.55049030E-02 0.26789418E+02</pdfrwt>
<totfact> 0.18445582E+06</totfact>
</mgrwt>
</event>
<event>
 4    1  0.3704929E-001  0.2561297E+02  0.7818608E-02  0.1652351E+00
         -2   -1    0    0    0  501 -0.00000000000E+00  0.00000000000E+00  0.20102449124E+01  0.20102465938E+01  0.26000000000E-02 0.  1.
          2   -1    0    0  501    0  0.00000000000E+00 -0.00000000000E+00 -0.81585055439E+02  0.81585055480E+02  0.26000000000E-02 0. -1.
        -13    1    1    2    0    0 -0.46698790195E+01 -0.11624743321E+02 -0.48454846622E+02  0.50048234345E+02  0.10570000000E+00 0. -1.
         13    1    1    2    0    0  0.46698790195E+01  0.11624743321E+02 -0.31119963904E+02  0.33547067729E+02  0.10570000000E+00 0.  1.
<mgrwt>
<rscale>  0 0.25612967E+02</rscale>
<asrwt>0</asrwt>
<pdfrwt beam="2">  1        2 0.12551545E-01 0.25612967E+02</pdfrwt>
<pdfrwt beam="1">  1       -2 0.30926864E-03 0.25612967E+02</pdfrwt>
<totfact> 0.28862443E+06</totfact>
</mgrwt>
</event>
<event>
 4    1  0.3704929E-001  0.5033194E+02  0.7818608E-02  0.1443559E+00
          2   -1    0    0  501    0  0.00000000000E+00  0.00000000000E+00  0.13012724018E+03  0.13012724020E+03  0.26000000000E-02 0.  1.
         -2   -1    0    0    0  501 -0.00000000000E+00 -0.00000000000E+00 -0.48669752762E+01  0.48669759707E+01  0.26000000000E-02 0. -1.
        -13    1    1    2    0    0 -0.91198666212E+01  0.21256588483E+02  0.89222018858E+02  0.92171548445E+02  0.10570000000E+00 0.  1.
         13    1    1    2    0    0  0.91198666212E+01 -0.21256588483E+02  0.36038246044E+02  0.42822667730E+02  0.10570000000E+00 0. -1.
<mgrwt>
<rscale>  0 0.50331943E+02</rscale>
<asrwt>0</asrwt>
<pdfrwt beam="1">  1        2 0.20019575E-01 0.50331943E+02</pdfrwt>
<pdfrwt beam="2">  1       -2 0.74876549E-03 0.50331943E+02</pdfrwt>
<totfact> 0.63308466E+05</totfact>
</mgrwt>
</event>
<event>
 4    1  0.3704929E-001  0.3096758E+02  0.7818608E-02  0.1587633E+00
          2   -1    0    0  501    0  0.00000000000E+00  0.00000000000E+00  0.76333780964E+02  0.76333781009E+02  0.26000000000E-02 0.  1.
         -2   -1    0    0    0  501 -0.00000000000E+00 -0.00000000000E+00 -0.31407814883E+01  0.31407825644E+01  0.26000000000E-02 0. -1.
        -13    1    1    2    0    0 -0.12914205236E+02 -0.35961380704E+01  0.56480176348E+02  0.58049378969E+02  0.10570000000E+00 0.  1.
         13    1    1    2    0    0  0.12914205236E+02  0.35961380704E+01  0.16712823128E+02  0.21425184604E+02  0.10570000000E+00 0. -1.
<mgrwt>
<rscale>  0 0.30967581E+02</rscale>
<asrwt>0</asrwt>
<pdfrwt beam="1">  1        2 0.11743659E-01 0.30967581E+02</pdfrwt>
<pdfrwt beam="2">  1       -2 0.48319722E-03 0.30967581E+02</pdfrwt>
<totfact> 0.18238095E+06</totfact>
</mgrwt>
</event>
<event>
 4    1  0.3704929E-001  0.7769367E+02  0.7818608E-02  0.1335727E+00
         -2   -1    0    0    0  501 -0.00000000000E+00  0.00000000000E+00  0.23088074599E+02  0.23088074745E+02  0.26000000000E-02 0. -1.
          2   -1    0    0  501    0  0.00000000000E+00 -0.00000000000E+00 -0.65361728664E+02  0.65361728716E+02  0.26000000000E-02 0.  1.
        -13    1    1    2    0    0 -0.89221747368E+01  0.34259139016E+02 -0.39343782221E+02  0.52926724630E+02  0.10570000000E+00 0.  1.
         13    1    1    2    0    0  0.89221747368E+01 -0.34259139016E+02 -0.29298718450E+01  0.35523078831E+02  0.10570000000E+00 0. -1.
<mgrwt>
<rscale>  0 0.77693667E+02</rscale>
<asrwt>0</asrwt>
<pdfrwt beam="2">  1        2 0.10055650E-01 0.77693667E+02</pdfrwt>
<pdfrwt beam="1">  1       -2 0.35520115E-02 0.77693667E+02</pdfrwt>
<totfact> 0.16906556E+05</totfact>
</mgrwt>
</event>
<event>
 4    1  0.3704929E-001  0.3472210E+02  0.7818608E-02  0.1551082E+00
          2   -1    0    0  501    0  0.00000000000E+00  0.00000000000E+00  0.50100780684E+02  0.50100780752E+02  0.26000000000E-02 0.  1.
         -2   -1    0    0    0  501 -0.00000000000E+00 -0.00000000000E+00 -0.60159954782E+01  0.60159960400E+01  0.26000000000E-02 0. -1.
        -13    1    1    2    0    0  0.13946560977E+01  0.10312667986E+02  0.44500668866E+02  0.45701388257E+02  0.10570000000E+00 0.  1.
         13    1    1    2    0    0 -0.13946560977E+01 -0.10312667986E+02 -0.41588366008E+00  0.10415388535E+02  0.10570000000E+00 0. -1.
<mgrwt>
<rscale>  0 0.34722102E+02</rscale>
<asrwt>0</asrwt>
<pdfrwt beam="1">  1        2 0.77078127E-02 0.34722102E+02</pdfrwt>
<pdfrwt beam="2">  1       -2 0.92553779E-03 0.34722102E+02</pdfrwt>
<totfact> 0.12788956E+06</totfact>
</mgrwt>
</event>
<event>
 4    1  0.3704929E-001  0.6790003E+02  0.7818608E-02  0.1367383E+00
          2   -1    0    0  501    0  0.00000000000E+00  0.00000000000E+00  0.62748631918E+02  0.62748631972E+02  0.26000000000E-02 0.  1.
         -2   -1    0    0    0  501 -0.00000000000E+00 -0.00000000000E+00 -0.18368585804E+02  0.18368585988E+02  0.26000000000E-02 0. -1.
        -13    1    1    2    0    0  0.12852302798E+02 -0.24638112185E+02 -0.11095835683E+01  0.27811159764E+02  0.10570000000E+00 0. -1.
         13    1    1    2    0    0 -0.12852302798E+02  0.24638112185E+02  0.45489629683E+02  0.53306058196E+02  0.10570000000E+00 0.  1.
<mgrwt>
<rscale>  0 0.67900034E+02</rscale>
<asrwt>0</asrwt>
<pdfrwt beam="1">  1        2 0.96536358E-02 0.67900034E+02</pdfrwt>
<pdfrwt beam="2">  1       -2 0.28259363E-02 0.67900034E+02</pdfrwt>
<totfact> 0.24098738E+05</totfact>
</mgrwt>
</event>
<event>
 4    1  0.3704929E-001  0.4046655E+02  0.7818608E-02  0.1504806E+00
         -2   -1    0    0    0  501 -0.00000000000E+00  0.00000000000E+00  0.27387183490E+01  0.27387195831E+01  0.26000000000E-02 0. -1.
          2   -1    0    0  501    0  0.00000000000E+00 -0.00000000000E+00 -0.14948059825E+03  0.14948059827E+03  0.26000000000E-02 0.  1.
        -13    1    1    2    0    0  0.10016116311E+02  0.15583873064E+02 -0.10397538871E+03  0.10561284162E+03  0.10570000000E+00 0.  1.
         13    1    1    2    0    0 -0.10016116311E+02 -0.15583873064E+02 -0.42766491191E+02  0.46606476233E+02  0.10570000000E+00 0. -1.
<mgrwt>
<rscale>  0 0.40466547E+02</rscale>
<asrwt>0</asrwt>
<pdfrwt beam="2">  1        2 0.22997009E-01 0.40466547E+02</pdfrwt>
<pdfrwt beam="1">  1       -2 0.42134150E-03 0.40466547E+02</pdfrwt>
<totfact> 0.11338953E+06</totfact>
</mgrwt>
</event>
<event>
 4    1  0.3704929E-001  0.2997794E+02  0.7818608E-02  0.1598333E+00
         -2   -1    0    0    0  501 -0.00000000000E+00  0.00000000000E+00  0.78676443368E+02  0.78676443411E+02  0.26000000000E-02 0.  1.
          2   -1    0    0  501    0  0.00000000000E+00 -0.00000000000E+00 -0.28556089420E+01  0.28556101256E+01  0.26000000000E-02 0. -1.
        -13    1    1    2    0    0  0.12593842532E+02 -0.61025475461E+01  0.52509107334E+02  0.54342096773E+02  0.10570000000E+00 0.  1.
         13    1    1    2    0    0 -0.12593842532E+02  0.61025475461E+01  0.23311727093E+02  0.27189956763E+02  0.10570000000E+00 0. -1.
<mgrwt>
<rscale>  0 0.29977939E+02</rscale>
<asrwt>0</asrwt>
<pdfrwt beam="2">  1        2 0.43932449E-03 0.29977939E+02</pdfrwt>
<pdfrwt beam="1">  1       -2 0.12104070E-01 0.29977939E+02</pdfrwt>
<totfact> 0.12601996E+06</totfact>
</mgrwt>
</event>
<event>
 4    1  0.3704929E-001  0.4643725E+02  0.7818608E-02  0.1465564E+00
          2   -1    0    0  501    0  0.00000000000E+00  0.00000000000E+00  0.45646453127E+01  0.45646460532E+01  0.26000000000E-02 0. -1.
         -2   -1    0    0    0  501 -0.00000000000E+00 -0.00000000000E+00 -0.11810437576E+03  0.11810437579E+03  0.26000000000E-02 0.  1.
        -13    1    1    2    0    0 -0.23031289011E+02  0.25411812210E+01 -0.52855661340E+02  0.57711610475E+02  0.10570000000E+00 0. -1.
         13    1    1    2    0    0  0.23031289011E+02 -0.25411812210E+01 -0.60684069110E+02  0.64957411369E+02  0.10570000000E+00 0.  1.
<mgrwt>
<rscale>  0 0.46437254E+02</rscale>
<asrwt>0</asrwt>
<pdfrwt beam="1">  1        2 0.70225327E-03 0.46437254E+02</pdfrwt>
<pdfrwt beam="2">  1       -2 0.18169902E-01 0.46437254E+02</pdfrwt>
<totfact> 0.40431739E+05</totfact>
</mgrwt>
</event>
<event>
 4    1  0.3704929E-001  0.2214587E+02  0.7818608E-02  0.1705741E+00
         -2   -1    0    0    0  501 -0.00000000000E+00  0.00000000000E+00  0.11659402140E+01  0.11659431129E+01  0.26000000000E-02 0. -1.
          2   -1    0    0  501    0  0.00000000000E+00 -0.00000000000E+00 -0.10515956625E+03  0.10515956628E+03  0.26000000000E-02 0.  1.
        -13    1    1    2    0    0 -0.94836180084E+01  0.52030683747E+01 -0.63346028712E+02  0.64263064486E+02  0.10570000000E+00 0.  1.
         13    1    1    2    0    0  0.94836180084E+01 -0.52030683747E+01 -0.40647597326E+02  0.42062444911E+02  0.10570000000E+00 0. -1.
<mgrwt>
<rscale>  0 0.22145873E+02</rscale>
<asrwt>0</asrwt>
<pdfrwt beam="2">  1        2 0.16178388E-01 0.22145873E+02</pdfrwt>
<pdfrwt beam="1">  1       -2 0.17937573E-03 0.22145873E+02</pdfrwt>
<totfact> 0.42542349E+06</totfact>
</mgrwt>
</event>
<event>
 4    1  0.3704929E-001  0.2718551E+02  0.7818608E-02  0.1631460E+00
          2   -1    0    0  501    0  0.00000000000E+00  0.00000000000E+00  0.36695957726E+02  0.36695957818E+02  0.26000000000E-02 0.  1.
         -2   -1    0    0    0  501 -0.00000000000E+00 -0.00000000000E+00 -0.50349668836E+01  0.50349675549E+01  0.26000000000E-02 0. -1.
        -13    1    1    2    0    0  0.11018981489E+02 -0.21410954387E+01  0.40646595416E+01  0.11938796941E+02  0.10570000000E+00 0. -1.
         13    1    1    2    0    0 -0.11018981489E+02  0.21410954387E+01  0.27596331301E+02  0.29792128432E+02  0.10570000000E+00 0.  1.
<mgrwt>
<rscale>  0 0.27185507E+02</rscale>
<asrwt>0</asrwt>
<pdfrwt beam="1">  1        2 0.56455323E-02 0.27185507E+02</pdfrwt>
<pdfrwt beam="2">  1       -2 0.77461031E-03 0.27185507E+02</pdfrwt>
<totfact> 0.21932488E+06</totfact>
</mgrwt>
</event>
<event>
 4    1  0.3704929E-001  0.2806287E+02  0.7818608E-02  0.1620544E+00
          2   -1    0    0  501    0  0.00000000000E+00  0.00000000000E+00  0.77013709494E+01  0.77013713882E+01  0.26000000000E-02 0.  1.
         -2   -1    0    0    0  501 -0.00000000000E+00 -0.00000000000E+00 -0.25564437781E+02  0.25564437914E+02  0.26000000000E-02 0. -1.
        -13    1    1    2    0    0  0.73619024043E+00 -0.13206166117E+02 -0.14482112292E+02  0.19613453253E+02  0.10570000000E+00 0. -1.
         13    1    1    2    0    0 -0.73619024043E+00  0.13206166117E+02 -0.33809545403E+01  0.13652356049E+02  0.10570000000E+00 0.  1.
<mgrwt>
<rscale>  0 0.28062874E+02</rscale>
<asrwt>0</asrwt>
<pdfrwt beam="1">  1        2 0.11848264E-02 0.28062874E+02</pdfrwt>
<pdfrwt beam="2">  1       -2 0.39329904E-02 0.28062874E+02</pdfrwt>
<totfact> 0.17238048E+06</totfact>
</mgrwt>
</event>
<event>
 4    1  0.3704929E-001  0.5653771E+02  0.7818608E-02  0.1412964E+00
          2   -1    0    0  501    0  0.00000000000E+00  0.00000000000E+00  0.29587896722E+02  0.29587896836E+02  0.26000000000E-02 0.  1.
         -2   -1    0    0    0  501 -0.00000000000E+00 -0.00000000000E+00 -0.27008615344E+02  0.27008615469E+02  0.26000000000E-02 0. -1.
        -13    1    1    2    0    0 -0.27138419561E+02 -0.79130001975E+01  0.12025601200E+01  0.28294287617E+02  0.10570000000E+00 0.  1.
         13    1    1    2    0    0  0.27138419561E+02  0.79130001975E+01  0.13767212585E+01  0.28302224689E+02  0.10570000000E+00 0. -1.
<mgrwt>
<rscale>  0 0.56537709E+02</rscale>
<asrwt>0</asrwt>
<pdfrwt beam="1">  1        2 0.45519841E-02 0.56537709E+02</pdfrwt>
<pdfrwt beam="2">  1       -2 0.41551716E-02 0.56537709E+02</pdfrwt>
<totfact> 0.33825340E+05</totfact>
</mgrwt>
</event>
<event>
 4    1  0.3704929E-001  0.2349184E+02  0.7818608E-02  0.1683659E+00
          2   -1    0    0  501    0  0.00000000000E+00  0.00000000000E+00  0.36930819194E+01  0.36930828346E+01  0.26000000000E-02 0.  1.
         -2   -1    0    0    0  501 -0.00000000000E+00 -0.00000000000E+00 -0.37358109934E+02  0.37358110024E+02  0.26000000000E-02 0. -1.
        -13    1    1    2    0    0  0.19751955684E+00 -0.11344852645E+02 -0.11529100878E+02  0.16176403650E+02  0.10570000000E+00 0.  1.
         13    1    1    2    0    0 -0.19751955684E+00  0.11344852645E+02 -0.22135927136E+02  0.24874789209E+02  0.10570000000E+00 0. -1.
<mgrwt>
<rscale>  0 0.23491835E+02</rscale>
<asrwt>0</asrwt>
<pdfrwt beam="1">  1        2 0.56816655E-03 0.23491835E+02</pdfrwt>
<pdfrwt beam="2">  1       -2 0.57474013E-02 0.23491835E+02</pdfrwt>
<totfact> 0.24669777E+06</totfact>
</mgrwt>
</event>
<event>
 4    1  0.3704929E-001  0.2231285E+02  0.7818608E-02  0.1702897E+00
          2   -1    0    0  501    0  0.00000000000E+00  0.00000000000E+00  0.19824121670E+01  0.19824138719E+01  0.26000000000E-02 0. -1.
         -2   -1    0    0    0  501 -0.00000000000E+00 -0.00000000000E+00 -0.62785026096E+02  0.62785026150E+02  0.26000000000E-02 0.  1.
        -13    1    1    2    0    0 -0.90358337405E+01  0.58099846949E+01 -0.21667870193E+02  0.24184912337E+02  0.10570000000E+00 0. -1.
         13    1    1    2    0    0  0.90358337405E+01 -0.58099846949E+01 -0.39134743736E+02  0.40582527685E+02  0.10570000000E+00 0.  1.
<mgrwt>
<rscale>  0 0.22312853E+02</rscale>
<asrwt>0</asrwt>
<pdfrwt beam="1">  1        2 0.30498667E-03 0.22312853E+02</pdfrwt>
<pdfrwt beam="2">  1       -2 0.96592334E-02 0.22312853E+02</pdfrwt>
<totfact> 0.25696255E+06</totfact>
</mgrwt>
</event>
<event>
 4    1  0.3704929E-001  0.2650477E+02  0.7818608E-02  0.1640284E+00
         -2   -1    0    0    0  501 -0.00000000000E+00  0.00000000000E+00  0.34907661096E+01  0.34907670779E+01  0.26000000000E-02 0.  1.
          2   -1    0    0  501    0  0.00000000000E+00 -0.00000000000E+00 -0.50311501805E+02  0.50311501872E+02  0.26000000000E-02 0. -1.
        -13    1    1    2    0    0  0.49855548754E+01 -0.11554499169E+02 -0.31841782583E+02  0.34238465196E+02  0.10570000000E+00 0.  1.
         13    1    1    2    0    0 -0.49855548754E+01  0.11554499169E+02 -0.14978953113E+02  0.19563803754E+02  0.10570000000E+00 0. -1.
<mgrwt>
<rscale>  0 0.26504770E+02</rscale>
<asrwt>0</asrwt>
<pdfrwt beam="2">  1        2 0.77402306E-02 0.26504770E+02</pdfrwt>
<pdfrwt beam="1">  1       -2 0.53704106E-03 0.26504770E+02</pdfrwt>
<totfact> 0.24378762E+06</totfact>
</mgrwt>
</event>
<event>
 4    1  0.3704929E-001  0.2436576E+02  0.7818608E-02  0.1670282E+00
          2   -1    0    0  501    0  0.00000000000E+00  0.00000000000E+00  0.11146541702E+02  0.11146542005E+02  0.26000000000E-02 0. -1.
         -2   -1    0    0    0  501 -0.00000000000E+00 -0.00000000000E+00 -0.13315570116E+02  0.13315570370E+02  0.26000000000E-02 0.  1.
        -13    1    1    2    0    0  0.80983297107E+01 -0.73619872705E+01 -0.64563356618E+01  0.12707369647E+02  0.10570000000E+00 0.  1.
         13    1    1    2    0    0 -0.80983297107E+01  0.73619872705E+01  0.42873072474E+01  0.11754742728E+02  0.10570000000E+00 0. -1.
<mgrwt>
<rscale>  0 0.24365760E+02</rscale>
<asrwt>0</asrwt>
<pdfrwt beam="1">  1        2 0.17148526E-02 0.24365760E+02</pdfrwt>
<pdfrwt beam="2">  1       -2 0.20485493E-02 0.24365760E+02</pdfrwt>
<totfact> 0.25132535E+06</totfact>
</mgrwt>
</event>
<event>
 4    1  0.3704929E-001  0.2140611E+02  0.7818608E-02  0.1718730E+00
          2   -1    0    0  501    0  0.00000000000E+00  0.00000000000E+00  0.29047974927E+02  0.29047975043E+02  0.26000000000E-02 0. -1.
         -2   -1    0    0    0  501 -0.00000000000E+00 -0.00000000000E+00 -0.39436614713E+01  0.39436623283E+01  0.26000000000E-02 0.  1.
        -13    1    1    2    0    0  0.93576306698E+01 -0.49481785891E+01  0.14986365674E+02  0.18348080328E+02  0.10570000000E+00 0. -1.
         13    1    1    2    0    0 -0.93576306698E+01  0.49481785891E+01  0.10117947782E+02  0.14643557044E+02  0.10570000000E+00 0.  1.
<mgrwt>
<rscale>  0 0.21406111E+02</rscale>
<asrwt>0</asrwt>
<pdfrwt beam="1">  1        2 0.44689195E-02 0.21406111E+02</pdfrwt>
<pdfrwt beam="2">  1       -2 0.60671720E-03 0.21406111E+02</pdfrwt>
<totfact> 0.37071670E+06</totfact>
</mgrwt>
</event>
<event>
 4    1  0.3704929E-001  0.3244968E+02  0.7818608E-02  0.1572489E+00
          2   -1    0    0  501    0  0.00000000000E+00  0.00000000000E+00  0.19583218481E+02  0.19583218653E+02  0.26000000000E-02 0.  1.
         -2   -1    0    0    0  501 -0.00000000000E+00 -0.00000000000E+00 -0.13442399412E+02  0.13442399664E+02  0.26000000000E-02 0. -1.
        -13    1    1    2    0    0 -0.98490575354E+01 -0.89142584847E+01 -0.64097613097E+01  0.14750055973E+02  0.10570000000E+00 0. -1.
         13    1    1    2    0    0  0.98490575354E+01  0.89142584847E+01  0.12550580378E+02  0.18275562344E+02  0.10570000000E+00 0.  1.
<mgrwt>
<rscale>  0 0.32449681E+02</rscale>
<asrwt>0</asrwt>
<pdfrwt beam="1">  1        2 0.30128029E-02 0.32449681E+02</pdfrwt>
<pdfrwt beam="2">  1       -2 0.20680615E-02 0.32449681E+02</pdfrwt>
<totfact> 0.13286044E+06</totfact>
</mgrwt>
</event>
<event>
 4    1  0.3704929E-001  0.4011787E+02  0.7818608E-02  0.1507346E+00
          2   -1    0    0  501    0  0.00000000000E+00  0.00000000000E+00  0.66667834025E+02  0.66667834075E+02  0.26000000000E-02 0. -1.
         -2   -1    0    0    0  501 -0.00000000000E+00 -0.00000000000E+00 -0.60353078194E+01  0.60353083795E+01  0.26000000000E-02 0.  1.
        -13    1    1    2    0    0 -0.24347368016E+01  0.14747826962E+02  0.54557170277E+02  0.56567856106E+02  0.10570000000E+00 0. -1.
         13    1    1    2    0    0  0.24347368016E+01 -0.14747826962E+02  0.60753559287E+01  0.16135286348E+02  0.10570000000E+00 0.  1.
<mgrwt>
<rscale>  0 0.40117872E+02</rscale>
<asrwt>0</asrwt>
<pdfrwt beam="1">  1        2 0.10256589E-01 0.40117872E+02</pdfrwt>
<pdfrwt beam="2">  1       -2 0.92850899E-03 0.40117872E+02</pdfrwt>
<totfact> 0.94601861E+05</totfact>
</mgrwt>
</event>
<event>
 4    1  0.3704929E-001  0.3458261E+02  0.7818608E-02  0.1552339E+00
         -2   -1    0    0    0  501 -0.00000000000E+00  0.00000000000E+00  0.48699089315E+01  0.48699096255E+01  0.26000000000E-02 0. -1.
          2   -1    0    0  501    0  0.00000000000E+00 -0.00000000000E+00 -0.61395243955E+02  0.61395244010E+02  0.26000000000E-02 0.  1.
        -13    1    1    2    0    0 -0.14378164242E+02  0.19946728026E+01 -0.46264988239E+02  0.48488871257E+02  0.10570000000E+00 0.  1.
         13    1    1    2    0    0  0.14378164242E+02 -0.19946728026E+01 -0.10260346785E+02  0.17776282379E+02  0.10570000000E+00 0. -1.
<mgrwt>
<rscale>  0 0.34582612E+02</rscale>
<asrwt>0</asrwt>
<pdfrwt beam="2">  1        2 0.94454216E-02 0.34582612E+02</pdfrwt>
<pdfrwt beam="1">  1       -2 0.74921686E-03 0.34582612E+02</pdfrwt>
<totfact> 0.13394379E+06</totfact>
</mgrwt>
</event>
<event>
 4    1  0.3704929E-001  0.2175021E+02  0.7818608E-02  0.1712608E+00
          2   -1    0    0  501    0  0.00000000000E+00  0.00000000000E+00  0.99603557276E+02  0.99603557310E+02  0.26000000000E-02 0. -1.
         -2   -1    0    0    0  501 -0.00000000000E+00 -0.00000000000E+00 -0.11873851545E+01  0.11873880011E+01  0.26000000000E-02 0.  1.
        -13    1    1    2    0    0  0.40899845673E+00 -0.10553259696E+02  0.37196949642E+02  0.38667335117E+02  0.10570000000E+00 0. -1.
         13    1    1    2    0    0 -0.40899845673E+00  0.10553259696E+02  0.61219222480E+02  0.62123610194E+02  0.10570000000E+00 0.  1.
<mgrwt>
<rscale>  0 0.21750212E+02</rscale>
<asrwt>0</asrwt>
<pdfrwt beam="1">  1        2 0.15323624E-01 0.21750212E+02</pdfrwt>
<pdfrwt beam="2">  1       -2 0.18267487E-03 0.21750212E+02</pdfrwt>
<totfact> 0.43741431E+06</totfact>
</mgrwt>
</event>
<event>
 4    1  0.3704929E-001  0.1566883E+03  0.7818608E-02  0.1192487E+00
         -2   -1    0    0    0  501 -0.00000000000E+00  0.00000000000E+00  0.20476988385E+02  0.20476988550E+02  0.26000000000E-02 0.  1.
          2   -1    0    0  501    0  0.00000000000E+00 -0.00000000000E+00 -0.29974168620E+03  0.29974168621E+03  0.26000000000E-02 0. -1.
        -13    1    1    2    0    0 -0.50933960839E+01  0.63204571243E+02 -0.45600689258E+02  0.78103742183E+02  0.10570000000E+00 0.  1.
         13    1    1    2    0    0  0.50933960839E+01 -0.63204571243E+02 -0.23366400856E+03  0.24211493258E+03  0.10570000000E+00 0. -1.
<mgrwt>
<rscale>  0 0.15668832E+03</rscale>
<asrwt>0</asrwt>
<pdfrwt beam="2">  1        2 0.46114102E-01 0.15668832E+03</pdfrwt>
<pdfrwt beam="1">  1       -2 0.31503061E-02 0.15668832E+03</pdfrwt>
<totfact> 0.40400599E+04</totfact>
</mgrwt>
</event>
<event>
 4    1  0.3704929E-001  0.2283363E+02  0.7818608E-02  0.1694221E+00
         -2   -1    0    0    0  501 -0.00000000000E+00  0.00000000000E+00  0.96838143137E+02  0.96838143172E+02  0.26000000000E-02 0. -1.
          2   -1    0    0  501    0  0.00000000000E+00 -0.00000000000E+00 -0.13459934701E+01  0.13459959813E+01  0.26000000000E-02 0.  1.
        -13    1    1    2    0    0 -0.19445497171E+01 -0.10971473161E+02  0.37058255283E+02  0.38697286132E+02  0.10570000000E+00 0.  1.
         13    1    1    2    0    0  0.19445497171E+01  0.10971473161E+02  0.58433894384E+02  0.59486853020E+02  0.10570000000E+00 0. -1.
<mgrwt>
<rscale>  0 0.22833627E+02</rscale>
<asrwt>0</asrwt>
<pdfrwt beam="2">  1        2 0.20707607E-03 0.22833627E+02</pdfrwt>
<pdfrwt beam="1">  1       -2 0.14898179E-01 0.22833627E+02</pdfrwt>
<totfact> 0.22367717E+06</totfact>
</mgrwt>
</event>
<event>
 4    1  0.3704929E-001  0.2783625E+02  0.7818608E-02  0.1623316E+00
          2   -1    0    0  501    0  0.00000000000E+00  0.00000000000E+00  0.29373982446E+01  0.29373993952E+01  0.26000000000E-02 0.  1.
         -2   -1    0    0    0  501 -0.00000000000E+00 -0.00000000000E+00 -0.65947550658E+02  0.65947550709E+02  0.26000000000E-02 0. -1.
        -13    1    1    2    0    0  0.13490012678E+02 -0.34238148078E+01 -0.31475948994E+02  0.34415831930E+02  0.10570000000E+00 0. -1.
         13    1    1    2    0    0 -0.13490012678E+02  0.34238148078E+01 -0.31534203420E+02  0.34469118174E+02  0.10570000000E+00 0.  1.
<mgrwt>
<rscale>  0 0.27836254E+02</rscale>
<asrwt>0</asrwt>
<pdfrwt beam="1">  1        2 0.45190757E-03 0.27836254E+02</pdfrwt>
<pdfrwt beam="2">  1       -2 0.10145776E-01 0.27836254E+02</pdfrwt>
<totfact> 0.15458186E+06</totfact>
</mgrwt>
</event>
<event>
 4    1  0.3704929E-001  0.2443235E+02  0.7818608E-02  0.1669292E+00
         -2   -1    0    0    0  501 -0.00000000000E+00  0.00000000000E+00  0.28572543727E+02  0.28572543845E+02  0.26000000000E-02 0.  1.
          2   -1    0    0  501    0  0.00000000000E+00 -0.00000000000E+00 -0.52230164924E+01  0.52230171395E+01  0.26000000000E-02 0. -1.
        -13    1    1    2    0    0  0.12185986341E+02  0.84537171760E+00  0.11818454010E+02  0.16997056925E+02  0.10570000000E+00 0.  1.
         13    1    1    2    0    0 -0.12185986341E+02 -0.84537171760E+00  0.11531073224E+02  0.16798504060E+02  0.10570000000E+00 0. -1.
<mgrwt>
<rscale>  0 0.24432346E+02</rscale>
<asrwt>0</asrwt>
<pdfrwt beam="2">  1        2 0.80354105E-03 0.24432346E+02</pdfrwt>
<pdfrwt beam="1">  1       -2 0.43957761E-02 0.24432346E+02</pdfrwt>
<totfact> 0.23284154E+06</totfact>
</mgrwt>
</event>
<event>
 4    1  0.3704929E-001  0.2317301E+02  0.7818608E-02  0.1688721E+00
         -2   -1    0    0    0  501 -0.00000000000E+00  0.00000000000E+00  0.58421351761E+02  0.58421351818E+02  0.26000000000E-02 0. -1.
          2   -1    0    0  501    0  0.00000000000E+00 -0.00000000000E+00 -0.22979116541E+01  0.22979131250E+01  0.26000000000E-02 0.  1.
        -13    1    1    2    0    0  0.77895348019E+01  0.85607253601E+01  0.26692380757E+02  0.29093938099E+02  0.10570000000E+00 0.  1.
         13    1    1    2    0    0 -0.77895348019E+01 -0.85607253601E+01  0.29431059349E+02  0.31625326844E+02  0.10570000000E+00 0. -1.
<mgrwt>
<rscale>  0 0.23173015E+02</rscale>
<asrwt>0</asrwt>
<pdfrwt beam="2">  1        2 0.35352496E-03 0.23173015E+02</pdfrwt>
<pdfrwt beam="1">  1       -2 0.89879012E-02 0.23173015E+02</pdfrwt>
<totfact> 0.23902227E+06</totfact>
</mgrwt>
</event>
<event>
 4    1  0.3704929E-001  0.8407652E+02  0.7818608E-02  0.1317865E+00
         -2   -1    0    0    0  501 -0.00000000000E+00  0.00000000000E+00  0.30882829673E+02  0.30882829782E+02  0.26000000000E-02 0.  1.
          2   -1    0    0  501    0  0.00000000000E+00 -0.00000000000E+00 -0.57223231473E+02  0.57223231532E+02  0.26000000000E-02 0. -1.
        -13    1    1    2    0    0 -0.35024338448E+02 -0.98631151511E+00 -0.37511159077E+02  0.51330062555E+02  0.10570000000E+00 0. -1.
         13    1    1    2    0    0  0.35024338448E+02  0.98631151511E+00  0.11170757276E+02  0.36775998759E+02  0.10570000000E+00 0.  1.
<mgrwt>
<rscale>  0 0.84076520E+02</rscale>
<asrwt>0</asrwt>
<pdfrwt beam="2">  1        2 0.88035740E-02 0.84076520E+02</pdfrwt>
<pdfrwt beam="1">  1       -2 0.47512046E-02 0.84076520E+02</pdfrwt>
<totfact> 0.13148542E+05</totfact>
</mgrwt>
</event>
<event>
 4    1  0.3704929E-001  0.5000906E+02  0.7818608E-02  0.1445293E+00
          2   -1    0    0  501    0  0.00000000000E+00  0.00000000000E+00  0.11321567294E+02  0.11321567593E+02  0.26000000000E-02 0.  1.
         -2   -1    0    0    0  501 -0.00000000000E+00 -0.00000000000E+00 -0.55224383350E+02  0.55224383412E+02  0.26000000000E-02 0. -1.
        -13    1    1    2    0    0 -0.23701463212E+02  0.76140818827E+01 -0.25066959518E+02  0.35328419627E+02  0.10570000000E+00 0. -1.
         13    1    1    2    0    0  0.23701463212E+02 -0.76140818827E+01 -0.18835856538E+02  0.31217531378E+02  0.10570000000E+00 0.  1.
<mgrwt>
<rscale>  0 0.50009063E+02</rscale>
<asrwt>0</asrwt>
<pdfrwt beam="1">  1        2 0.17417796E-02 0.50009063E+02</pdfrwt>
<pdfrwt beam="2">  1       -2 0.84960589E-02 0.50009063E+02</pdfrwt>
<totfact> 0.40037077E+05</totfact>
</mgrwt>
</event>
<event>
 4    1  0.3704929E-001  0.2888163E+02  0.7818608E-02  0.1610790E+00
         -2   -1    0    0    0  501 -0.00000000000E+00  0.00000000000E+00  0.14239845004E+01  0.14239868740E+01  0.26000000000E-02 0. -1.
          2   -1    0    0  501    0  0.00000000000E+00 -0.00000000000E+00 -0.14644608416E+03  0.14644608418E+03  0.26000000000E-02 0.  1.
        -13    1    1    2    0    0  0.12799713313E+02 -0.66027922736E+01 -0.67150005009E+02  0.68677244208E+02  0.10570000000E+00 0. -1.
         13    1    1    2    0    0 -0.12799713313E+02  0.66027922736E+01 -0.77872094650E+02  0.79192826849E+02  0.10570000000E+00 0.  1.
<mgrwt>
<rscale>  0 0.28881630E+02</rscale>
<asrwt>0</asrwt>
<pdfrwt beam="2">  1        2 0.22530155E-01 0.28881630E+02</pdfrwt>
<pdfrwt beam="1">  1       -2 0.21907484E-03 0.28881630E+02</pdfrwt>
<totfact> 0.25245130E+06</totfact>
</mgrwt>
</event>
<event>
 4    1  0.3704929E-001  0.7718696E+02  0.7818608E-02  0.1337229E+00
          2   -1    0    0  501    0  0.00000000000E+00  0.00000000000E+00  0.11873066029E+02  0.11873066313E+02  0.26000000000E-02 0.  1.
         -2   -1    0    0    0  501 -0.00000000000E+00 -0.00000000000E+00 -0.12544834842E+03  0.12544834845E+03  0.26000000000E-02 0. -1.
        -13    1    1    2    0    0 -0.17489515572E+02 -0.21495257203E+02 -0.89998036340E+01  0.29136521328E+02  0.10570000000E+00 0.  1.
         13    1    1    2    0    0  0.17489515572E+02  0.21495257203E+02 -0.10457547876E+03  0.10818489343E+03  0.10570000000E+00 0. -1.
<mgrwt>
<rscale>  0 0.77186956E+02</rscale>
<asrwt>0</asrwt>
<pdfrwt beam="1">  1        2 0.18266257E-02 0.77186956E+02</pdfrwt>
<pdfrwt beam="2">  1       -2 0.19299745E-01 0.77186956E+02</pdfrwt>
<totfact> 0.11294255E+05</totfact>
</mgrwt>
</event>
<event>
 4    1  0.3704929E-001  0.2320019E+02  0.7818608E-02  0.1688286E+00
          2   -1    0    0  501    0  0.00000000000E+00  0.00000000000E+00  0.53544216780E+02  0.53544216844E+02  0.26000000000E-02 0. -1.
         -2   -1    0    0    0  501 -0.00000000000E+00 -0.00000000000E+00 -0.25131027826E+01  0.25131041275E+01  0.26000000000E-02 0.  1.
        -13    1    1    2    0    0 -0.10589378983E+02  0.27287374140E+01  0.16166835257E+02  0.19518163075E+02  0.10570000000E+00 0.  1.
         13    1    1    2    0    0  0.10589378983E+02 -0.27287374140E+01  0.34864278741E+02  0.36539157896E+02  0.10570000000E+00 0. -1.
<mgrwt>
<rscale>  0 0.23200186E+02</rscale>
<asrwt>0</asrwt>
<pdfrwt beam="1">  1        2 0.82375715E-02 0.23200186E+02</pdfrwt>
<pdfrwt beam="2">  1       -2 0.38663133E-03 0.23200186E+02</pdfrwt>
<totfact> 0.33497372E+06</totfact>
</mgrwt>
</event>
<event>
 4    1  0.3704929E-001  0.4036468E+02  0.7818608E-02  0.1505545E+00
         -2   -1    0    0    0  501 -0.00000000000E+00  0.00000000000E+00  0.36431842634E+01  0.36431851912E+01  0.26000000000E-02 0. -1.
          2   -1    0    0  501    0  0.00000000000E+00 -0.00000000000E+00 -0.11180517130E+03  0.11180517133E+03  0.26000000000E-02 0.  1.
        -13    1    1    2    0    0 -0.13191974741E+02 -0.10845750784E+02 -0.23321967311E+02  0.28906467086E+02  0.10570000000E+00 0. -1.
         13    1    1    2    0    0  0.13191974741E+02  0.10845750784E+02 -0.84840019728E+02  0.86541889438E+02  0.10570000000E+00 0.  1.
<mgrwt>
<rscale>  0 0.40364682E+02</rscale>
<asrwt>0</asrwt>
<pdfrwt beam="2">  1        2 0.17200793E-01 0.40364682E+02</pdfrwt>
<pdfrwt beam="1">  1       -2 0.56049005E-03 0.40364682E+02</pdfrwt>
<totfact> 0.10515393E+06</totfact>
</mgrwt>
</event>
<event>
 4    1  0.3704929E-001  0.3585698E+02  0.7818608E-02  0.1541119E+00
          2   -1    0    0  501    0  0.00000000000E+00  0.00000000000E+00  0.80924481925E+01  0.80924486101E+01  0.26000000000E-02 0.  1.
         -2   -1    0    0    0  501 -0.00000000000E+00 -0.00000000000E+00 -0.39719830771E+02  0.39719830856E+02  0.26000000000E-02 0. -1.
        -13    1    1    2    0    0  0.17913729978E+02 -0.38181472069E+00 -0.15000407811E+02  0.23368160201E+02  0.10570000000E+00 0.  1.
         13    1    1    2    0    0 -0.17913729978E+02  0.38181472069E+00 -0.16626974768E+02  0.24444119265E+02  0.10570000000E+00 0. -1.
<mgrwt>
<rscale>  0 0.35856976E+02</rscale>
<asrwt>0</asrwt>
<pdfrwt beam="1">  1        2 0.12449921E-02 0.35856976E+02</pdfrwt>
<pdfrwt beam="2">  1       -2 0.61107431E-02 0.35856976E+02</pdfrwt>
<totfact> 0.92951130E+05</totfact>
</mgrwt>
</event>
<event>
 4    1  0.3704929E-001  0.8196306E+02  0.7818608E-02  0.1323571E+00
         -2   -1    0    0    0  501 -0.00000000000E+00  0.00000000000E+00  0.31320965205E+02  0.31320965312E+02  0.26000000000E-02 0.  1.
          2   -1    0    0  501    0  0.00000000000E+00 -0.00000000000E+00 -0.53621778715E+02  0.53621778778E+02  0.26000000000E-02 0. -1.
        -13    1    1    2    0    0 -0.16921391827E+02 -0.41677096871E+01  0.27289404920E+02  0.32379408562E+02  0.10570000000E+00 0.  1.
         13    1    1    2    0    0  0.16921391827E+02  0.41677096871E+01 -0.49590218431E+02  0.52563335529E+02  0.10570000000E+00 0. -1.
<mgrwt>
<rscale>  0 0.81963062E+02</rscale>
<asrwt>0</asrwt>
<pdfrwt beam="2">  1        2 0.82495044E-02 0.81963062E+02</pdfrwt>
<pdfrwt beam="1">  1       -2 0.48186101E-02 0.81963062E+02</pdfrwt>
<totfact> 0.13887115E+05</totfact>
</mgrwt>
</event>
<event>
 4    1  0.3704929E-001  0.2123254E+02  0.7818608E-02  0.1721873E+00
          2   -1    0    0  501    0  0.00000000000E+00  0.00000000000E+00  0.26976618895E+02  0.26976619021E+02  0.26000000000E-02 0.  1.
         -2   -1    0    0    0  501 -0.00000000000E+00 -0.00000000000E+00 -0.41778852984E+01  0.41778861074E+01  0.26000000000E-02 0. -1.
        -13    1    1    2    0    0  0.25141637403E+01  0.10304558820E+02  0.12037447756E+02  0.16044197479E+02  0.10570000000E+00 0. -1.
         13    1    1    2    0    0 -0.25141637403E+01 -0.10304558820E+02  0.10761285841E+02  0.15110307649E+02  0.10570000000E+00 0.  1.
<mgrwt>
<rscale>  0 0.21232544E+02</rscale>
<asrwt>0</asrwt>
<pdfrwt beam="1">  1        2 0.41502491E-02 0.21232544E+02</pdfrwt>
<pdfrwt beam="2">  1       -2 0.64275167E-03 0.21232544E+02</pdfrwt>
<totfact> 0.37464822E+06</totfact>
</mgrwt>
</event>
<event>
 4    1  0.3704929E-001  0.4007771E+02  0.7818608E-02  0.1507640E+00
         -2   -1    0    0    0  501 -0.00000000000E+00  0.00000000000E+00  0.47793045686E+02  0.47793045756E+02  0.26000000000E-02 0.  1.
          2   -1    0    0  501    0  0.00000000000E+00 -0.00000000000E+00 -0.84019672146E+01  0.84019676169E+01  0.26000000000E-02 0. -1.
        -13    1    1    2    0    0  0.14169197542E+02 -0.75162342165E+01  0.28531080187E+01  0.16291449710E+02  0.10570000000E+00 0. -1.
         13    1    1    2    0    0 -0.14169197542E+02  0.75162342165E+01  0.36537970452E+02  0.39903563664E+02  0.10570000000E+00 0.  1.
<mgrwt>
<rscale>  0 0.40077705E+02</rscale>
<asrwt>0</asrwt>
<pdfrwt beam="2">  1        2 0.12926104E-02 0.40077705E+02</pdfrwt>
<pdfrwt beam="1">  1       -2 0.73527761E-02 0.40077705E+02</pdfrwt>
<totfact> 0.69605587E+05</totfact>
</mgrwt>
</event>
<event>
 4    1  0.3704929E-001  0.2773365E+02  0.7818608E-02  0.1624582E+00
          2   -1    0    0  501    0  0.00000000000E+00  0.00000000000E+00  0.13813349489E+03  0.13813349492E+03  0.26000000000E-02 0. -1.
         -2   -1    0    0    0  501 -0.00000000000E+00 -0.00000000000E+00 -0.13920492265E+01  0.13920516546E+01  0.26000000000E-02 0.  1.
        -13    1    1    2    0    0  0.77023182555E+01  0.11512101766E+02  0.71644411935E+02  0.72971139004E+02  0.10570000000E+00 0. -1.
         13    1    1    2    0    0 -0.77023182555E+01 -0.11512101766E+02  0.65097033733E+02  0.66554407570E+02  0.10570000000E+00 0.  1.
<mgrwt>
<rscale>  0 0.27733647E+02</rscale>
<asrwt>0</asrwt>
<pdfrwt beam="1">  1        2 0.21251312E-01 0.27733647E+02</pdfrwt>
<pdfrwt beam="2">  1       -2 0.21416156E-03 0.27733647E+02</pdfrwt>
<totfact> 0.27293481E+06</totfact>
</mgrwt>
</event>
<event>
 4    1  0.3704929E-001  0.7219044E+02  0.7818608E-02  0.1352799E+00
         -2   -1    0    0    0  501 -0.00000000000E+00  0.00000000000E+00  0.32462770513E+02  0.32462770617E+02  0.26000000000E-02 0.  1.
          2   -1    0    0  501    0  0.00000000000E+00 -0.00000000000E+00 -0.40134125368E+02  0.40134125453E+02  0.26000000000E-02 0. -1.
        -13    1    1    2    0    0  0.59577598454E+01  0.32773099091E+02 -0.17816572564E+02  0.37775817090E+02  0.10570000000E+00 0. -1.
         13    1    1    2    0    0 -0.59577598454E+01 -0.32773099091E+02  0.10145217709E+02  0.34821078979E+02  0.10570000000E+00 0.  1.
<mgrwt>
<rscale>  0 0.72190440E+02</rscale>
<asrwt>0</asrwt>
<pdfrwt beam="2">  1        2 0.61744809E-02 0.72190440E+02</pdfrwt>
<pdfrwt beam="1">  1       -2 0.49942724E-02 0.72190440E+02</pdfrwt>
<totfact> 0.18467775E+05</totfact>
</mgrwt>
</event>
<event>
 4    1  0.3704929E-001  0.2677151E+02  0.7818608E-02  0.1636788E+00
         -2   -1    0    0    0  501 -0.00000000000E+00  0.00000000000E+00  0.52892672612E+02  0.52892672676E+02  0.26000000000E-02 0.  1.
          2   -1    0    0  501    0  0.00000000000E+00 -0.00000000000E+00 -0.33875839738E+01  0.33875849716E+01  0.26000000000E-02 0. -1.
        -13    1    1    2    0    0  0.10244273744E+02  0.58492349439E+01  0.11455363622E+02  0.16443698555E+02  0.10570000000E+00 0. -1.
         13    1    1    2    0    0 -0.10244273744E+02 -0.58492349439E+01  0.38049725017E+02  0.39836559092E+02  0.10570000000E+00 0.  1.
<mgrwt>
<rscale>  0 0.26771507E+02</rscale>
<asrwt>0</asrwt>
<pdfrwt beam="2">  1        2 0.52116688E-03 0.26771507E+02</pdfrwt>
<pdfrwt beam="1">  1       -2 0.81373339E-02 0.26771507E+02</pdfrwt>
<totfact> 0.17524360E+06</totfact>
</mgrwt>
</event>
<event>
 4    1  0.3704929E-001  0.2154706E+02  0.7818608E-02  0.1716205E+00
         -2   -1    0    0    0  501 -0.00000000000E+00  0.00000000000E+00  0.43219158566E+01  0.43219166386E+01  0.26000000000E-02 0.  1.
          2   -1    0    0  501    0  0.00000000000E+00 -0.00000000000E+00 -0.26855888987E+02  0.26855889112E+02  0.26000000000E-02 0. -1.
        -13    1    1    2    0    0  0.10560284843E+02  0.54459475685E-01 -0.14348425346E+02  0.17816033907E+02  0.10570000000E+00 0. -1.
         13    1    1    2    0    0 -0.10560284843E+02 -0.54459475685E-01 -0.81855477844E+01  0.13361771844E+02  0.10570000000E+00 0.  1.
<mgrwt>
<rscale>  0 0.21547056E+02</rscale>
<asrwt>0</asrwt>
<pdfrwt beam="2">  1        2 0.41316752E-02 0.21547056E+02</pdfrwt>
<pdfrwt beam="1">  1       -2 0.66491022E-03 0.21547056E+02</pdfrwt>
<totfact> 0.36215279E+06</totfact>
</mgrwt>
</event>
<event>
 4    1  0.3704929E-001  0.2428364E+02  0.7818608E-02  0.1671510E+00
          2   -1    0    0  501    0  0.00000000000E+00  0.00000000000E+00  0.30213989177E+01  0.30214000364E+01  0.26000000000E-02 0.  1.
         -2   -1    0    0    0  501 -0.00000000000E+00 -0.00000000000E+00 -0.48793198090E+02  0.48793198159E+02  0.26000000000E-02 0. -1.
        -13    1    1    2    0    0 -0.82114025695E+01 -0.80431323500E+01 -0.31230227255E+02  0.33278482193E+02  0.10570000000E+00 0.  1.
         13    1    1    2    0    0  0.82114025695E+01  0.80431323500E+01 -0.14541571917E+02  0.18536116003E+02  0.10570000000E+00 0. -1.
<mgrwt>
<rscale>  0 0.24283636E+02</rscale>
<asrwt>0</asrwt>
<pdfrwt beam="1">  1        2 0.46483073E-03 0.24283636E+02</pdfrwt>
<pdfrwt beam="2">  1       -2 0.75066454E-02 0.24283636E+02</pdfrwt>
<totfact> 0.22117952E+06</totfact>
</mgrwt>
</event>
<event>
 4    1  0.3704929E-001  0.2492221E+02  0.7818608E-02  0.1662122E+00
          2   -1    0    0  501    0  0.00000000000E+00  0.00000000000E+00  0.29922032032E+02  0.29922032145E+02  0.26000000000E-02 0. -1.
         -2   -1    0    0    0  501 -0.00000000000E+00 -0.00000000000E+00 -0.51894598235E+01  0.51894604748E+01  0.26000000000E-02 0.  1.
        -13    1    1    2    0    0  0.86391297854E+01 -0.86175933513E+01  0.88103744246E+01  0.15050958395E+02  0.10570000000E+00 0.  1.
         13    1    1    2    0    0 -0.86391297854E+01  0.86175933513E+01  0.15922197784E+02  0.20060534224E+02  0.10570000000E+00 0. -1.
<mgrwt>
<rscale>  0 0.24922215E+02</rscale>
<asrwt>0</asrwt>
<pdfrwt beam="1">  1        2 0.46033896E-02 0.24922215E+02</pdfrwt>
<pdfrwt beam="2">  1       -2 0.79837850E-03 0.24922215E+02</pdfrwt>
<totfact> 0.26213206E+06</totfact>
</mgrwt>
</event>
<event>
 4    1  0.3704929E-001  0.3421664E+02  0.7818608E-02  0.1555669E+00
         -2   -1    0    0    0  501 -0.00000000000E+00  0.00000000000E+00  0.36838425900E+01  0.36838435075E+01  0.26000000000E-02 0. -1.
          2   -1    0    0  501    0  0.00000000000E+00 -0.00000000000E+00 -0.79453620066E+02  0.79453620108E+02  0.26000000000E-02 0.  1.
        -13    1    1    2    0    0  0.15057680328E+02  0.34443765832E+01 -0.20015819936E+02  0.25283229365E+02  0.10570000000E+00 0. -1.
         13    1    1    2    0    0 -0.15057680328E+02 -0.34443765832E+01 -0.55753957540E+02  0.57854234251E+02  0.10570000000E+00 0.  1.
<mgrwt>
<rscale>  0 0.34216643E+02</rscale>
<asrwt>0</asrwt>
<pdfrwt beam="2">  1        2 0.12223633E-01 0.34216643E+02</pdfrwt>
<pdfrwt beam="1">  1       -2 0.56674515E-03 0.34216643E+02</pdfrwt>
<totfact> 0.14483316E+06</totfact>
</mgrwt>
</event>
<event>
 4    1  0.3704929E-001  0.3225228E+02  0.7818608E-02  0.1574449E+00
          2   -1    0    0  501    0  0.00000000000E+00  0.00000000000E+00  0.23677406032E+01  0.23677420307E+01  0.26000000000E-02 0. -1.
         -2   -1    0    0    0  501 -0.00000000000E+00 -0.00000000000E+00 -0.10983142752E+03  0.10983142755E+03  0.26000000000E-02 0.  1.
        -13    1    1    2    0    0  0.13763647349E+02 -0.55851904102E+01 -0.31893164841E+02  0.35182630322E+02  0.10570000000E+00 0.  1.
         13    1    1    2    0    0 -0.13763647349E+02  0.55851904102E+01 -0.75570522074E+02  0.77016539258E+02  0.10570000000E+00 0. -1.
<mgrwt>
<rscale>  0 0.32252281E+02</rscale>
<asrwt>0</asrwt>
<pdfrwt beam="1">  1        2 0.36426798E-03 0.32252281E+02</pdfrwt>
<pdfrwt beam="2">  1       -2 0.16897139E-01 0.32252281E+02</pdfrwt>
<totfact> 0.98428967E+05</totfact>
</mgrwt>
</event>
<event>
 4    1  0.3704929E-001  0.2378010E+02  0.7818608E-02  0.1679168E+00
         -2   -1    0    0    0  501 -0.00000000000E+00  0.00000000000E+00  0.16353349425E+02  0.16353349632E+02  0.26000000000E-02 0. -1.
          2   -1    0    0  501    0  0.00000000000E+00 -0.00000000000E+00 -0.86449094383E+01  0.86449098293E+01  0.26000000000E-02 0.  1.
        -13    1    1    2    0    0  0.68575703507E+01 -0.96875852492E+01  0.45874310243E+01  0.12725222001E+02  0.10570000000E+00 0.  1.
         13    1    1    2    0    0 -0.68575703507E+01  0.96875852492E+01  0.31210089629E+01  0.12273037461E+02  0.10570000000E+00 0. -1.
<mgrwt>
<rscale>  0 0.23780095E+02</rscale>
<asrwt>0</asrwt>
<pdfrwt beam="2">  1        2 0.13299861E-02 0.23780095E+02</pdfrwt>
<pdfrwt beam="1">  1       -2 0.25159000E-02 0.23780095E+02</pdfrwt>
<totfact> 0.26052364E+06</totfact>
</mgrwt>
</event>
<event>
 4    1  0.3704929E-001  0.5579616E+02  0.7818608E-02  0.1416371E+00
         -2   -1    0    0    0  501 -0.00000000000E+00  0.00000000000E+00  0.54383208284E+01  0.54383214499E+01  0.26000000000E-02 0.  1.
          2   -1    0    0  501    0  0.00000000000E+00 -0.00000000000E+00 -0.14311453100E+03  0.14311453102E+03  0.26000000000E-02 0. -1.
        -13    1    1    2    0    0 -0.13463367865E+02 -0.23602943833E+02 -0.85662072594E+02  0.89868587868E+02  0.10570000000E+00 0. -1.
         13    1    1    2    0    0  0.13463367865E+02  0.23602943833E+02 -0.52014137578E+02  0.58684264606E+02  0.10570000000E+00 0.  1.
<mgrwt>
<rscale>  0 0.55796157E+02</rscale>
<asrwt>0</asrwt>
<pdfrwt beam="2">  1        2 0.22017617E-01 0.55796157E+02</pdfrwt>
<pdfrwt beam="1">  1       -2 0.83666490E-03 0.55796157E+02</pdfrwt>
<totfact> 0.50139081E+05</totfact>
</mgrwt>
</event>
<event>
 4    1  0.3704929E-001  0.4130653E+02  0.7818608E-02  0.1498811E+00
         -2   -1    0    0    0  501 -0.00000000000E+00  0.00000000000E+00  0.26198410668E+02  0.26198410797E+02  0.26000000000E-02 0.  1.
          2   -1    0    0  501    0  0.00000000000E+00 -0.00000000000E+00 -0.16281804581E+02  0.16281804788E+02  0.26000000000E-02 0. -1.
        -13    1    1    2    0    0 -0.87197010840E+01 -0.11323188550E+02 -0.10375016622E+02  0.17660688784E+02  0.10570000000E+00 0. -1.
         13    1    1    2    0    0  0.87197010840E+01  0.11323188550E+02  0.20291622710E+02  0.24819526801E+02  0.10570000000E+00 0.  1.
<mgrwt>
<rscale>  0 0.41306533E+02</rscale>
<asrwt>0</asrwt>
<pdfrwt beam="2">  1        2 0.25048931E-02 0.41306533E+02</pdfrwt>
<pdfrwt beam="1">  1       -2 0.40305247E-02 0.41306533E+02</pdfrwt>
<totfact> 0.70633524E+05</totfact>
</mgrwt>
</event>
<event>
 4    1  0.3704929E-001  0.2896728E+02  0.7818608E-02  0.1609793E+00
         -2   -1    0    0    0  501 -0.00000000000E+00  0.00000000000E+00  0.21157878659E+02  0.21157878818E+02  0.26000000000E-02 0.  1.
          2   -1    0    0  501    0  0.00000000000E+00 -0.00000000000E+00 -0.99147816809E+01  0.99147820218E+01  0.26000000000E-02 0. -1.
        -13    1    1    2    0    0 -0.11883850741E+02  0.33508176928E+01  0.13742158256E+02  0.18474630542E+02  0.10570000000E+00 0.  1.
         13    1    1    2    0    0  0.11883850741E+02 -0.33508176928E+01 -0.24990612781E+01  0.12598030298E+02  0.10570000000E+00 0. -1.
<mgrwt>
<rscale>  0 0.28967275E+02</rscale>
<asrwt>0</asrwt>
<pdfrwt beam="2">  1        2 0.15253511E-02 0.28967275E+02</pdfrwt>
<pdfrwt beam="1">  1       -2 0.32550583E-02 0.28967275E+02</pdfrwt>
<totfact> 0.16361133E+06</totfact>
</mgrwt>
</event>
<event>
 4    1  0.3704929E-001  0.4220194E+02  0.7818608E-02  0.1492606E+00
         -2   -1    0    0    0  501 -0.00000000000E+00  0.00000000000E+00  0.57284538580E+02  0.57284538639E+02  0.26000000000E-02 0.  1.
          2   -1    0    0  501    0  0.00000000000E+00 -0.00000000000E+00 -0.77726203768E+01  0.77726208116E+01  0.26000000000E-02 0. -1.
        -13    1    1    2    0    0 -0.12437470413E+02 -0.81555755510E+01  0.16820434163E+01  0.14968116962E+02  0.10570000000E+00 0. -1.
         13    1    1    2    0    0  0.12437470413E+02  0.81555755510E+01  0.47829874787E+02  0.50089042489E+02  0.10570000000E+00 0.  1.
<mgrwt>
<rscale>  0 0.42201943E+02</rscale>
<asrwt>0</asrwt>
<pdfrwt beam="2">  1        2 0.11957878E-02 0.42201943E+02</pdfrwt>
<pdfrwt beam="1">  1       -2 0.88130057E-02 0.42201943E+02</pdfrwt>
<totfact> 0.59754086E+05</totfact>
</mgrwt>
</event>
<event>
 4    1  0.3704929E-001  0.3646986E+02  0.7818608E-02  0.1535922E+00
         -2   -1    0    0    0  501 -0.00000000000E+00  0.00000000000E+00  0.18952949023E+01  0.18952966857E+01  0.26000000000E-02 0. -1.
          2   -1    0    0  501    0  0.00000000000E+00 -0.00000000000E+00 -0.17544102992E+03  0.17544102994E+03  0.26000000000E-02 0.  1.
        -13    1    1    2    0    0 -0.57145522665E+01  0.16893216591E+02 -0.68279462542E+02  0.70570057757E+02  0.10570000000E+00 0. -1.
         13    1    1    2    0    0  0.57145522665E+01 -0.16893216591E+02 -0.10526627247E+03  0.10676626886E+03  0.10570000000E+00 0.  1.
<mgrwt>
<rscale>  0 0.36469859E+02</rscale>
<asrwt>0</asrwt>
<pdfrwt beam="2">  1        2 0.26990915E-01 0.36469859E+02</pdfrwt>
<pdfrwt beam="1">  1       -2 0.29158411E-03 0.36469859E+02</pdfrwt>
<totfact> 0.15320294E+06</totfact>
</mgrwt>
</event>
<event>
 4    1  0.3704929E-001  0.2399393E+02  0.7818608E-02  0.1675888E+00
          2   -1    0    0  501    0  0.00000000000E+00  0.00000000000E+00  0.65047550457E+02  0.65047550509E+02  0.26000000000E-02 0. -1.
         -2   -1    0    0    0  501 -0.00000000000E+00 -0.00000000000E+00 -0.22126437946E+01  0.22126453222E+01  0.26000000000E-02 0.  1.
        -13    1    1    2    0    0  0.10390362542E+02 -0.12319308866E+00  0.48223001585E+02  0.49329948962E+02  0.10570000000E+00 0. -1.
         13    1    1    2    0    0 -0.10390362542E+02  0.12319308866E+00  0.14611905078E+02  0.17930246869E+02  0.10570000000E+00 0.  1.
<mgrwt>
<rscale>  0 0.23993925E+02</rscale>
<asrwt>0</asrwt>
<pdfrwt beam="1">  1        2 0.10007317E-01 0.23993925E+02</pdfrwt>
<pdfrwt beam="2">  1       -2 0.34040682E-03 0.23993925E+02</pdfrwt>
<totfact> 0.32076559E+06</totfact>
</mgrwt>
</event>
<event>
 4    1  0.3704929E-001  0.3521306E+02  0.7818608E-02  0.1546717E+00
          2   -1    0    0  501    0  0.00000000000E+00  0.00000000000E+00  0.29645149632E+02  0.29645149746E+02  0.26000000000E-02 0. -1.
         -2   -1    0    0    0  501 -0.00000000000E+00 -0.00000000000E+00 -0.10456682515E+02  0.10456682838E+02  0.26000000000E-02 0.  1.
        -13    1    1    2    0    0  0.13160612271E+02 -0.11108792938E+02  0.13758655162E+02  0.22043565053E+02  0.10570000000E+00 0. -1.
         13    1    1    2    0    0 -0.13160612271E+02  0.11108792938E+02  0.54298119546E+01  0.18058267531E+02  0.10570000000E+00 0.  1.
<mgrwt>
<rscale>  0 0.35213062E+02</rscale>
<asrwt>0</asrwt>
<pdfrwt beam="1">  1        2 0.45607923E-02 0.35213062E+02</pdfrwt>
<pdfrwt beam="2">  1       -2 0.16087204E-02 0.35213062E+02</pdfrwt>
<totfact> 0.11425011E+06</totfact>
</mgrwt>
</event>
<event>
 4    1  0.3704929E-001  0.3356947E+02  0.7818608E-02  0.1561684E+00
         -2   -1    0    0    0  501 -0.00000000000E+00  0.00000000000E+00  0.68238427424E+01  0.68238432377E+01  0.26000000000E-02 0.  1.
          2   -1    0    0  501    0  0.00000000000E+00 -0.00000000000E+00 -0.41285738007E+02  0.41285738089E+02  0.26000000000E-02 0. -1.
        -13    1    1    2    0    0  0.10039494506E+02 -0.13444578670E+02 -0.16643398216E+02  0.23633916778E+02  0.10570000000E+00 0. -1.
         13    1    1    2    0    0 -0.10039494506E+02  0.13444578670E+02 -0.17818497048E+02  0.24475664549E+02  0.10570000000E+00 0.  1.
<mgrwt>
<rscale>  0 0.33569474E+02</rscale>
<asrwt>0</asrwt>
<pdfrwt beam="2">  1        2 0.63516519E-02 0.33569474E+02</pdfrwt>
<pdfrwt beam="1">  1       -2 0.10498220E-02 0.33569474E+02</pdfrwt>
<totfact> 0.13458828E+06</totfact>
</mgrwt>
</event>
<event>
 4    1  0.3704929E-001  0.4540202E+02  0.7818608E-02  0.1471847E+00
         -2   -1    0    0    0  501 -0.00000000000E+00  0.00000000000E+00  0.40450429650E+01  0.40450438006E+01  0.26000000000E-02 0. -1.
          2   -1    0    0  501    0  0.00000000000E+00 -0.00000000000E+00 -0.12739935841E+03  0.12739935844E+03  0.26000000000E-02 0.  1.
        -13    1    1    2    0    0  0.14890154292E+02  0.90579823829E+01 -0.19567208721E+02  0.26204018190E+02  0.10570000000E+00 0. -1.
         13    1    1    2    0    0 -0.14890154292E+02 -0.90579823829E+01 -0.10378710672E+03  0.10524038405E+03  0.10570000000E+00 0.  1.
<mgrwt>
<rscale>  0 0.45402024E+02</rscale>
<asrwt>0</asrwt>
<pdfrwt beam="2">  1        2 0.19599898E-01 0.45402024E+02</pdfrwt>
<pdfrwt beam="1">  1       -2 0.62231447E-03 0.45402024E+02</pdfrwt>
<totfact> 0.81474468E+05</totfact>
</mgrwt>
</event>
<event>
 4    1  0.3704929E-001  0.5971962E+02  0.7818608E-02  0.1399012E+00
         -2   -1    0    0    0  501 -0.00000000000E+00  0.00000000000E+00  0.91816236104E+01  0.91816239786E+01  0.26000000000E-02 0.  1.
          2   -1    0    0  501    0  0.00000000000E+00 -0.00000000000E+00 -0.97107891951E+02  0.97107891986E+02  0.26000000000E-02 0. -1.
        -13    1    1    2    0    0 -0.14486114662E+02 -0.22527974329E+02 -0.67456601932E+02  0.72579345975E+02  0.10570000000E+00 0. -1.
         13    1    1    2    0    0  0.14486114662E+02  0.22527974329E+02 -0.20469666409E+02  0.33710169990E+02  0.10570000000E+00 0.  1.
<mgrwt>
<rscale>  0 0.59719616E+02</rscale>
<asrwt>0</asrwt>
<pdfrwt beam="2">  1        2 0.14939675E-01 0.59719616E+02</pdfrwt>
<pdfrwt beam="1">  1       -2 0.14125576E-02 0.59719616E+02</pdfrwt>
<totfact> 0.37678399E+05</totfact>
</mgrwt>
</event>
<event>
 4    1  0.3704929E-001  0.3071366E+02  0.7818608E-02  0.1590331E+00
          2   -1    0    0  501    0  0.00000000000E+00  0.00000000000E+00  0.63384327188E+02  0.63384327241E+02  0.26000000000E-02 0. -1.
         -2   -1    0    0    0  501 -0.00000000000E+00 -0.00000000000E+00 -0.37206706015E+01  0.37206715099E+01  0.26000000000E-02 0.  1.
        -13    1    1    2    0    0  0.10161659643E+02 -0.64376666607E+01  0.50687578706E+02  0.52095534226E+02  0.10570000000E+00 0. -1.
         13    1    1    2    0    0 -0.10161659643E+02  0.64376666607E+01  0.89760778804E+01  0.15009464525E+02  0.10570000000E+00 0.  1.
<mgrwt>
<rscale>  0 0.30713660E+02</rscale>
<asrwt>0</asrwt>
<pdfrwt beam="1">  1        2 0.97514342E-02 0.30713660E+02</pdfrwt>
<pdfrwt beam="2">  1       -2 0.57241098E-03 0.30713660E+02</pdfrwt>
<totfact> 0.17923969E+06</totfact>
</mgrwt>
</event>
<event>
 4    1  0.3704929E-001  0.3327886E+02  0.7818608E-02  0.1564438E+00
          2   -1    0    0  501    0  0.00000000000E+00  0.00000000000E+00  0.11350921613E+02  0.11350921911E+02  0.26000000000E-02 0. -1.
         -2   -1    0    0    0  501 -0.00000000000E+00 -0.00000000000E+00 -0.24391905201E+02  0.24391905339E+02  0.26000000000E-02 0.  1.
        -13    1    1    2    0    0 -0.12787571982E+02  0.10409348336E+02 -0.41229733040E+01  0.16996664712E+02  0.10570000000E+00 0. -1.
         13    1    1    2    0    0  0.12787571982E+02 -0.10409348336E+02 -0.89180102838E+01  0.18746162538E+02  0.10570000000E+00 0.  1.
<mgrwt>
<rscale>  0 0.33278859E+02</rscale>
<asrwt>0</asrwt>
<pdfrwt beam="1">  1        2 0.17462957E-02 0.33278859E+02</pdfrwt>
<pdfrwt beam="2">  1       -2 0.37526008E-02 0.33278859E+02</pdfrwt>
<totfact> 0.11742562E+06</totfact>
</mgrwt>
</event>
<event>
 4    1  0.3704929E-001  0.3693626E+02  0.7818608E-02  0.1532049E+00
          2   -1    0    0  501    0  0.00000000000E+00  0.00000000000E+00  0.10847731704E+03  0.10847731708E+03  0.26000000000E-02 0.  1.
         -2   -1    0    0    0  501 -0.00000000000E+00 -0.00000000000E+00 -0.31441763413E+01  0.31441774163E+01  0.26000000000E-02 0. -1.
        -13    1    1    2    0    0  0.16090504834E+01  0.18269989852E+02  0.46129585817E+02  0.49642032923E+02  0.10570000000E+00 0. -1.
         13    1    1    2    0    0 -0.16090504834E+01 -0.18269989852E+02  0.59203554887E+02  0.61979461569E+02  0.10570000000E+00 0.  1.
<mgrwt>
<rscale>  0 0.36936263E+02</rscale>
<asrwt>0</asrwt>
<pdfrwt beam="1">  1        2 0.16688818E-01 0.36936263E+02</pdfrwt>
<pdfrwt beam="2">  1       -2 0.48371951E-03 0.36936263E+02</pdfrwt>
<totfact> 0.12958980E+06</totfact>
</mgrwt>
</event>
<event>
 4    1  0.3704929E-001  0.4050201E+02  0.7818608E-02  0.1504549E+00
          2   -1    0    0  501    0  0.00000000000E+00  0.00000000000E+00  0.75788957301E+02  0.75788957345E+02  0.26000000000E-02 0. -1.
         -2   -1    0    0    0  501 -0.00000000000E+00 -0.00000000000E+00 -0.54111207122E+01  0.54111213368E+01  0.26000000000E-02 0.  1.
        -13    1    1    2    0    0  0.17240247676E+02  0.44292229945E+00  0.13908336754E+02  0.22155706350E+02  0.10570000000E+00 0.  1.
         13    1    1    2    0    0 -0.17240247676E+02 -0.44292229945E+00  0.56469499834E+02  0.59044372332E+02  0.10570000000E+00 0. -1.
<mgrwt>
<rscale>  0 0.40502011E+02</rscale>
<asrwt>0</asrwt>
<pdfrwt beam="1">  1        2 0.11659839E-01 0.40502011E+02</pdfrwt>
<pdfrwt beam="2">  1       -2 0.83248022E-03 0.40502011E+02</pdfrwt>
<totfact> 0.94939391E+05</totfact>
</mgrwt>
</event>
<event>
 4    1  0.3704929E-001  0.5146722E+02  0.7818608E-02  0.1437585E+00
         -2   -1    0    0    0  501 -0.00000000000E+00  0.00000000000E+00  0.27167776907E+02  0.27167777031E+02  0.26000000000E-02 0.  1.
          2   -1    0    0  501    0  0.00000000000E+00 -0.00000000000E+00 -0.24375155881E+02  0.24375156019E+02  0.26000000000E-02 0. -1.
        -13    1    1    2    0    0  0.12482829476E+02 -0.99199851606E+01 -0.18831928582E+02  0.24675490754E+02  0.10570000000E+00 0. -1.
         13    1    1    2    0    0 -0.12482829476E+02  0.99199851606E+01  0.21624549608E+02  0.26867442297E+02  0.10570000000E+00 0.  1.
<mgrwt>
<rscale>  0 0.51467225E+02</rscale>
<asrwt>0</asrwt>
<pdfrwt beam="2">  1        2 0.37500240E-02 0.51467225E+02</pdfrwt>
<pdfrwt beam="1">  1       -2 0.41796580E-02 0.51467225E+02</pdfrwt>
<totfact> 0.42074997E+05</totfact>
</mgrwt>
</event>
<event>
 4    1  0.3704929E-001  0.4422348E+02  0.7818608E-02  0.1479248E+00
          2   -1    0    0  501    0  0.00000000000E+00  0.00000000000E+00  0.89692645885E+02  0.89692645923E+02  0.26000000000E-02 0. -1.
         -2   -1    0    0    0  501 -0.00000000000E+00 -0.00000000000E+00 -0.54511611964E+01  0.54511618165E+01  0.26000000000E-02 0.  1.
        -13    1    1    2    0    0  0.10515271873E+02 -0.19443146472E+02  0.40920863590E+02  0.46509516625E+02  0.10570000000E+00 0.  1.
         13    1    1    2    0    0 -0.10515271873E+02  0.19443146472E+02  0.43320621099E+02  0.48634291114E+02  0.10570000000E+00 0. -1.
<mgrwt>
<rscale>  0 0.44223483E+02</rscale>
<asrwt>0</asrwt>
<pdfrwt beam="1">  1        2 0.13798868E-01 0.44223483E+02</pdfrwt>
<pdfrwt beam="2">  1       -2 0.83864027E-03 0.44223483E+02</pdfrwt>
<totfact> 0.79332424E+05</totfact>
</mgrwt>
</event>
<event>
 4    1  0.3704929E-001  0.6113806E+02  0.7818608E-02  0.1393117E+00
          2   -1    0    0  501    0  0.00000000000E+00  0.00000000000E+00  0.34566811446E+02  0.34566811544E+02  0.26000000000E-02 0. -1.
         -2   -1    0    0    0  501 -0.00000000000E+00 -0.00000000000E+00 -0.27033606761E+02  0.27033606886E+02  0.26000000000E-02 0.  1.
        -13    1    1    2    0    0  0.14140251022E+02 -0.11016838195E+01  0.31050793208E+02  0.34136832564E+02  0.10570000000E+00 0. -1.
         13    1    1    2    0    0 -0.14140251022E+02  0.11016838195E+01 -0.23517588522E+02  0.27463585866E+02  0.10570000000E+00 0.  1.
<mgrwt>
<rscale>  0 0.61138060E+02</rscale>
<asrwt>0</asrwt>
<pdfrwt beam="1">  1        2 0.53179710E-02 0.61138060E+02</pdfrwt>
<pdfrwt beam="2">  1       -2 0.41590165E-02 0.61138060E+02</pdfrwt>
<totfact> 0.28200358E+05</totfact>
</mgrwt>
</event>
<event>
 4    1  0.3704929E-001  0.5470200E+02  0.7818608E-02  0.1421513E+00
          2   -1    0    0  501    0  0.00000000000E+00  0.00000000000E+00  0.83594465106E+02  0.83594465147E+02  0.26000000000E-02 0. -1.
         -2   -1    0    0    0  501 -0.00000000000E+00 -0.00000000000E+00 -0.89488847055E+01  0.89488850832E+01  0.26000000000E-02 0.  1.
        -13    1    1    2    0    0  0.10068051359E+02 -0.11026352128E+02 -0.14450198445E+01  0.15001511732E+02  0.10570000000E+00 0.  1.
         13    1    1    2    0    0 -0.10068051359E+02  0.11026352128E+02  0.76090600245E+02  0.77541838498E+02  0.10570000000E+00 0. -1.
<mgrwt>
<rscale>  0 0.54702002E+02</rscale>
<asrwt>0</asrwt>
<pdfrwt beam="1">  1        2 0.12860687E-01 0.54702002E+02</pdfrwt>
<pdfrwt beam="2">  1       -2 0.13767515E-02 0.54702002E+02</pdfrwt>
<totfact> 0.45492354E+05</totfact>
</mgrwt>
</event>
<event>
 4    1  0.3704929E-001  0.3776013E+02  0.7818608E-02  0.1525373E+00
         -2   -1    0    0    0  501 -0.00000000000E+00  0.00000000000E+00  0.60314293516E+01  0.60314299120E+01  0.26000000000E-02 0.  1.
          2   -1    0    0  501    0  0.00000000000E+00 -0.00000000000E+00 -0.59099894762E+02  0.59099894819E+02  0.26000000000E-02 0. -1.
        -13    1    1    2    0    0 -0.13875707495E+02 -0.73865081155E+01 -0.44571289630E+02  0.47262107363E+02  0.10570000000E+00 0. -1.
         13    1    1    2    0    0  0.13875707495E+02  0.73865081155E+01 -0.84971757803E+01  0.17869217368E+02  0.10570000000E+00 0.  1.
<mgrwt>
<rscale>  0 0.37760130E+02</rscale>
<asrwt>0</asrwt>
<pdfrwt beam="2">  1        2 0.90922912E-02 0.37760130E+02</pdfrwt>
<pdfrwt beam="1">  1       -2 0.92791230E-03 0.37760130E+02</pdfrwt>
<totfact> 0.10727691E+06</totfact>
</mgrwt>
</event>
<event>
 4    1  0.3704929E-001  0.2860340E+02  0.7818608E-02  0.1614060E+00
          2   -1    0    0  501    0  0.00000000000E+00  0.00000000000E+00  0.34448461709E+02  0.34448461807E+02  0.26000000000E-02 0. -1.
         -2   -1    0    0    0  501 -0.00000000000E+00 -0.00000000000E+00 -0.59375246972E+01  0.59375252664E+01  0.26000000000E-02 0.  1.
        -13    1    1    2    0    0 -0.12573483914E+02  0.67760200535E+01  0.13236834253E+02  0.19473877350E+02  0.10570000000E+00 0.  1.
         13    1    1    2    0    0  0.12573483914E+02 -0.67760200535E+01  0.15274102759E+02  0.20912109724E+02  0.10570000000E+00 0. -1.
<mgrwt>
<rscale>  0 0.28603399E+02</rscale>
<asrwt>0</asrwt>
<pdfrwt beam="1">  1        2 0.52997634E-02 0.28603399E+02</pdfrwt>
<pdfrwt beam="2">  1       -2 0.91346539E-03 0.28603399E+02</pdfrwt>
<totfact> 0.19283502E+06</totfact>
</mgrwt>
</event>
<event>
 4    1  0.3704929E-001  0.5150456E+02  0.7818608E-02  0.1437391E+00
          2   -1    0    0  501    0  0.00000000000E+00  0.00000000000E+00  0.17335018390E+02  0.17335018585E+02  0.26000000000E-02 0.  1.
         -2   -1    0    0    0  501 -0.00000000000E+00 -0.00000000000E+00 -0.38256660157E+02  0.38256660245E+02  0.26000000000E-02 0. -1.
        -13    1    1    2    0    0  0.20803446850E+02 -0.17552870093E+01  0.58121911747E+01  0.21671575210E+02  0.10570000000E+00 0.  1.
         13    1    1    2    0    0 -0.20803446850E+02  0.17552870093E+01 -0.26733832942E+02  0.33920103620E+02  0.10570000000E+00 0. -1.
<mgrwt>
<rscale>  0 0.51504560E+02</rscale>
<asrwt>0</asrwt>
<pdfrwt beam="1">  1        2 0.26669259E-02 0.51504560E+02</pdfrwt>
<pdfrwt beam="2">  1       -2 0.58856400E-02 0.51504560E+02</pdfrwt>
<totfact> 0.39742570E+05</totfact>
</mgrwt>
</event>
<event>
 4    1  0.3704929E-001  0.8338314E+02  0.7818608E-02  0.1319716E+00
         -2   -1    0    0    0  501 -0.00000000000E+00  0.00000000000E+00  0.88847791200E+02  0.88847791238E+02  0.26000000000E-02 0.  1.
          2   -1    0    0  501    0  0.00000000000E+00 -0.00000000000E+00 -0.19563651088E+02  0.19563651261E+02  0.26000000000E-02 0. -1.
        -13    1    1    2    0    0 -0.17655878901E+02  0.13760377861E+00 -0.14462468475E+02  0.22823741180E+02  0.10570000000E+00 0. -1.
         13    1    1    2    0    0  0.17655878901E+02 -0.13760377861E+00  0.83746608588E+02  0.85587701319E+02  0.10570000000E+00 0.  1.
<mgrwt>
<rscale>  0 0.83383145E+02</rscale>
<asrwt>0</asrwt>
<pdfrwt beam="2">  1        2 0.30097924E-02 0.83383145E+02</pdfrwt>
<pdfrwt beam="1">  1       -2 0.13668891E-01 0.83383145E+02</pdfrwt>
<totfact> 0.10304108E+05</totfact>
</mgrwt>
</event>
<event>
 4    1  0.3704929E-001  0.2729215E+02  0.7818608E-02  0.1630106E+00
         -2   -1    0    0    0  501 -0.00000000000E+00  0.00000000000E+00  0.26132180277E+01  0.26132193212E+01  0.26000000000E-02 0.  1.
          2   -1    0    0  501    0  0.00000000000E+00 -0.00000000000E+00 -0.71259015992E+02  0.71259016039E+02  0.26000000000E-02 0. -1.
        -13    1    1    2    0    0  0.17529413950E+01  0.12868411528E+02 -0.45657372070E+02  0.47468680365E+02  0.10570000000E+00 0. -1.
         13    1    1    2    0    0 -0.17529413950E+01 -0.12868411528E+02 -0.22988425894E+02  0.26403554995E+02  0.10570000000E+00 0.  1.
<mgrwt>
<rscale>  0 0.27292152E+02</rscale>
<asrwt>0</asrwt>
<pdfrwt beam="2">  1        2 0.10962924E-01 0.27292152E+02</pdfrwt>
<pdfrwt beam="1">  1       -2 0.40203370E-03 0.27292152E+02</pdfrwt>
<totfact> 0.24225577E+06</totfact>
</mgrwt>
</event>
<event>
 4    1  0.3704929E-001  0.4422312E+02  0.7818608E-02  0.1479251E+00
         -2   -1    0    0    0  501 -0.00000000000E+00  0.00000000000E+00  0.25648541551E+02  0.25648541683E+02  0.26000000000E-02 0.  1.
          2   -1    0    0  501    0  0.00000000000E+00 -0.00000000000E+00 -0.19062335392E+02  0.19062335569E+02  0.26000000000E-02 0. -1.
        -13    1    1    2    0    0  0.13127969612E+02  0.31574082460E+01  0.20996142609E+02  0.24963212733E+02  0.10570000000E+00 0.  1.
         13    1    1    2    0    0 -0.13127969612E+02 -0.31574082460E+01 -0.14409936450E+02  0.19747664519E+02  0.10570000000E+00 0. -1.
<mgrwt>
<rscale>  0 0.44223121E+02</rscale>
<asrwt>0</asrwt>
<pdfrwt beam="2">  1        2 0.29326670E-02 0.44223121E+02</pdfrwt>
<pdfrwt beam="1">  1       -2 0.39459295E-02 0.44223121E+02</pdfrwt>
<totfact> 0.60444833E+05</totfact>
</mgrwt>
</event>
<event>
 4    1  0.3704929E-001  0.2563847E+02  0.7818608E-02  0.1651997E+00
          2   -1    0    0  501    0  0.00000000000E+00  0.00000000000E+00  0.56068983967E+02  0.56068984027E+02  0.26000000000E-02 0. -1.
         -2   -1    0    0    0  501 -0.00000000000E+00 -0.00000000000E+00 -0.29309023488E+01  0.29309035020E+01  0.26000000000E-02 0.  1.
        -13    1    1    2    0    0  0.82247887170E+01  0.57244288256E+01  0.81728580250E+01  0.12931473837E+02  0.10570000000E+00 0.  1.
         13    1    1    2    0    0 -0.82247887170E+01 -0.57244288256E+01  0.44965223593E+02  0.46068413692E+02  0.10570000000E+00 0. -1.
<mgrwt>
<rscale>  0 0.25638467E+02</rscale>
<asrwt>0</asrwt>
<pdfrwt beam="1">  1        2 0.86259979E-02 0.25638467E+02</pdfrwt>
<pdfrwt beam="2">  1       -2 0.45090813E-03 0.25638467E+02</pdfrwt>
<totfact> 0.26815553E+06</totfact>
</mgrwt>
</event>
<event>
 4    1  0.3704929E-001  0.5691899E+02  0.7818608E-02  0.1411236E+00
          2   -1    0    0  501    0  0.00000000000E+00  0.00000000000E+00  0.15664755685E+02  0.15664755901E+02  0.26000000000E-02 0.  1.
         -2   -1    0    0    0  501 -0.00000000000E+00 -0.00000000000E+00 -0.51704781633E+02  0.51704781698E+02  0.26000000000E-02 0. -1.
        -13    1    1    2    0    0 -0.10315837217E+02  0.21955275068E+02 -0.40533746441E+00  0.24261617253E+02  0.10570000000E+00 0.  1.
         13    1    1    2    0    0  0.10315837217E+02 -0.21955275068E+02 -0.35634688483E+02  0.43107920346E+02  0.10570000000E+00 0. -1.
<mgrwt>
<rscale>  0 0.56918987E+02</rscale>
<asrwt>0</asrwt>
<pdfrwt beam="1">  1        2 0.24099625E-02 0.56918987E+02</pdfrwt>
<pdfrwt beam="2">  1       -2 0.79545817E-02 0.56918987E+02</pdfrwt>
<totfact> 0.29663091E+05</totfact>
</mgrwt>
</event>
<event>
 4    1  0.3704929E-001  0.5917032E+02  0.7818608E-02  0.1401347E+00
         -2   -1    0    0    0  501 -0.00000000000E+00  0.00000000000E+00  0.14804552604E+02  0.14804552832E+02  0.26000000000E-02 0. -1.
          2   -1    0    0  501    0  0.00000000000E+00 -0.00000000000E+00 -0.59122476612E+02  0.59122476669E+02  0.26000000000E-02 0.  1.
        -13    1    1    2    0    0  0.23543627348E+02 -0.13440239666E+02 -0.36959306232E+02  0.45836054811E+02  0.10570000000E+00 0.  1.
         13    1    1    2    0    0 -0.23543627348E+02  0.13440239666E+02 -0.73586177762E+01  0.28090974690E+02  0.10570000000E+00 0. -1.
<mgrwt>
<rscale>  0 0.59170325E+02</rscale>
<asrwt>0</asrwt>
<pdfrwt beam="2">  1        2 0.90957656E-02 0.59170325E+02</pdfrwt>
<pdfrwt beam="1">  1       -2 0.22776235E-02 0.59170325E+02</pdfrwt>
<totfact> 0.34253223E+05</totfact>
</mgrwt>
</event>
<event>
 4    1  0.3704929E-001  0.4463834E+02  0.7818608E-02  0.1476612E+00
          2   -1    0    0  501    0  0.00000000000E+00  0.00000000000E+00  0.12010541993E+02  0.12010542274E+02  0.26000000000E-02 0.  1.
         -2   -1    0    0    0  501 -0.00000000000E+00 -0.00000000000E+00 -0.41475684195E+02  0.41475684276E+02  0.26000000000E-02 0. -1.
        -13    1    1    2    0    0  0.15374244751E+02 -0.91309581818E+01  0.12711934986E+01  0.17926765028E+02  0.10570000000E+00 0.  1.
         13    1    1    2    0    0 -0.15374244751E+02  0.91309581818E+01 -0.30736335701E+02  0.35559461522E+02  0.10570000000E+00 0. -1.
<mgrwt>
<rscale>  0 0.44638345E+02</rscale>
<asrwt>0</asrwt>
<pdfrwt beam="1">  1        2 0.18477757E-02 0.44638345E+02</pdfrwt>
<pdfrwt beam="2">  1       -2 0.63808745E-02 0.44638345E+02</pdfrwt>
<totfact> 0.55115540E+05</totfact>
</mgrwt>
</event>
<event>
 4    1  0.3704929E-001  0.2127316E+02  0.7818608E-02  0.1721134E+00
          2   -1    0    0  501    0  0.00000000000E+00  0.00000000000E+00  0.26069554495E+01  0.26069567460E+01  0.26000000000E-02 0.  1.
         -2   -1    0    0    0  501 -0.00000000000E+00 -0.00000000000E+00 -0.43398055629E+02  0.43398055707E+02  0.26000000000E-02 0. -1.
        -13    1    1    2    0    0  0.87302186016E+01  0.59897216548E+01 -0.22592649459E+02  0.24950600482E+02  0.10570000000E+00 0.  1.
         13    1    1    2    0    0 -0.87302186016E+01 -0.59897216548E+01 -0.18198450720E+02  0.21054411971E+02  0.10570000000E+00 0. -1.
<mgrwt>
<rscale>  0 0.21273160E+02</rscale>
<asrwt>0</asrwt>
<pdfrwt beam="1">  1        2 0.40107021E-03 0.21273160E+02</pdfrwt>
<pdfrwt beam="2">  1       -2 0.66766235E-02 0.21273160E+02</pdfrwt>
<totfact> 0.30179978E+06</totfact>
</mgrwt>
</event>
<event>
 4    1  0.3704929E-001  0.3296356E+02  0.7818608E-02  0.1567466E+00
          2   -1    0    0  501    0  0.00000000000E+00  0.00000000000E+00  0.13516223053E+03  0.13516223056E+03  0.26000000000E-02 0. -1.
         -2   -1    0    0    0  501 -0.00000000000E+00 -0.00000000000E+00 -0.20097990354E+01  0.20098007171E+01  0.26000000000E-02 0.  1.
        -13    1    1    2    0    0  0.22822743311E+01 -0.16040259601E+02  0.53996099597E+02  0.56374539008E+02  0.10570000000E+00 0.  1.
         13    1    1    2    0    0 -0.22822743311E+01  0.16040259601E+02  0.79156331901E+02  0.80797492268E+02  0.10570000000E+00 0. -1.
<mgrwt>
<rscale>  0 0.32963558E+02</rscale>
<asrwt>0</asrwt>
<pdfrwt beam="1">  1        2 0.20794196E-01 0.32963558E+02</pdfrwt>
<pdfrwt beam="2">  1       -2 0.30919989E-03 0.32963558E+02</pdfrwt>
<totfact> 0.18072972E+06</totfact>
</mgrwt>
</event>
<event>
 4    1  0.3704929E-001  0.5884570E+02  0.7818608E-02  0.1402741E+00
          2   -1    0    0  501    0  0.00000000000E+00  0.00000000000E+00  0.66330257768E+01  0.66330262864E+01  0.26000000000E-02 0. -1.
         -2   -1    0    0    0  501 -0.00000000000E+00 -0.00000000000E+00 -0.13051418616E+03  0.13051418619E+03  0.26000000000E-02 0.  1.
        -13    1    1    2    0    0  0.14226905912E+02 -0.25341656728E+02 -0.51237859981E+02  0.58906144718E+02  0.10570000000E+00 0. -1.
         13    1    1    2    0    0 -0.14226905912E+02  0.25341656728E+02 -0.72643300401E+02  0.78241067754E+02  0.10570000000E+00 0.  1.
<mgrwt>
<rscale>  0 0.58845696E+02</rscale>
<asrwt>0</asrwt>
<pdfrwt beam="1">  1        2 0.10204656E-02 0.58845696E+02</pdfrwt>
<pdfrwt beam="2">  1       -2 0.20079104E-01 0.58845696E+02</pdfrwt>
<totfact> 0.21951540E+05</totfact>
</mgrwt>
</event>
<event>
 4    1  0.3704929E-001  0.5346564E+02  0.7818608E-02  0.1427498E+00
         -2   -1    0    0    0  501 -0.00000000000E+00  0.00000000000E+00  0.87166533500E+02  0.87166533539E+02  0.26000000000E-02 0.  1.
          2   -1    0    0  501    0  0.00000000000E+00 -0.00000000000E+00 -0.81985998442E+01  0.81986002565E+01  0.26000000000E-02 0. -1.
        -13    1    1    2    0    0  0.17940135293E+02  0.11543453766E+02  0.68218943220E+02  0.71476815582E+02  0.10570000000E+00 0.  1.
         13    1    1    2    0    0 -0.17940135293E+02 -0.11543453766E+02  0.10748990436E+02  0.23888318213E+02  0.10570000000E+00 0. -1.
<mgrwt>
<rscale>  0 0.53465636E+02</rscale>
<asrwt>0</asrwt>
<pdfrwt beam="2">  1        2 0.12613230E-02 0.53465636E+02</pdfrwt>
<pdfrwt beam="1">  1       -2 0.13410237E-01 0.53465636E+02</pdfrwt>
<totfact> 0.30987511E+05</totfact>
</mgrwt>
</event>
<event>
 4    1  0.3704929E-001  0.3208042E+02  0.7818608E-02  0.1576169E+00
          2   -1    0    0  501    0  0.00000000000E+00  0.00000000000E+00  0.99604884551E+01  0.99604887945E+01  0.26000000000E-02 0. -1.
         -2   -1    0    0    0  501 -0.00000000000E+00 -0.00000000000E+00 -0.25830894906E+02  0.25830895037E+02  0.26000000000E-02 0.  1.
        -13    1    1    2    0    0  0.13539905437E+01 -0.14906377321E+02 -0.15024970329E+01  0.15043338893E+02  0.10570000000E+00 0. -1.
         13    1    1    2    0    0 -0.13539905437E+01  0.14906377321E+02 -0.14367909418E+02  0.20748044938E+02  0.10570000000E+00 0.  1.
<mgrwt>
<rscale>  0 0.32080420E+02</rscale>
<asrwt>0</asrwt>
<pdfrwt beam="1">  1        2 0.15323829E-02 0.32080420E+02</pdfrwt>
<pdfrwt beam="2">  1       -2 0.39739838E-02 0.32080420E+02</pdfrwt>
<totfact> 0.12690229E+06</totfact>
</mgrwt>
</event>
<event>
 4    1  0.3704929E-001  0.3107505E+02  0.7818608E-02  0.1586501E+00
         -2   -1    0    0    0  501 -0.00000000000E+00  0.00000000000E+00  0.41650426532E+02  0.41650426613E+02  0.26000000000E-02 0. -1.
          2   -1    0    0  501    0  0.00000000000E+00 -0.00000000000E+00 -0.57962130104E+01  0.57962135935E+01  0.26000000000E-02 0.  1.
        -13    1    1    2    0    0 -0.47567571867E+00 -0.14188804549E+02  0.27566190625E+02  0.31007329456E+02  0.10570000000E+00 0. -1.
         13    1    1    2    0    0  0.47567571867E+00  0.14188804549E+02  0.82880228964E+01  0.16439310750E+02  0.10570000000E+00 0.  1.
<mgrwt>
<rscale>  0 0.31075055E+02</rscale>
<asrwt>0</asrwt>
<pdfrwt beam="2">  1        2 0.89172518E-03 0.31075055E+02</pdfrwt>
<pdfrwt beam="1">  1       -2 0.64077576E-02 0.31075055E+02</pdfrwt>
<totfact> 0.12879259E+06</totfact>
</mgrwt>
</event>
<event>
 4    1  0.3704929E-001  0.9662028E+02  0.7818608E-02  0.1287568E+00
         -2   -1    0    0    0  501 -0.00000000000E+00  0.00000000000E+00  0.19352854015E+02  0.19352854190E+02  0.26000000000E-02 0.  1.
          2   -1    0    0  501    0  0.00000000000E+00 -0.00000000000E+00 -0.12059562986E+03  0.12059562988E+03  0.26000000000E-02 0. -1.
        -13    1    1    2    0    0 -0.19931066172E+02 -0.33179519975E+02 -0.87484882509E+01  0.39682176903E+02  0.10570000000E+00 0.  1.
         13    1    1    2    0    0  0.19931066172E+02  0.33179519975E+02 -0.92494287589E+02  0.10026630717E+03  0.10570000000E+00 0. -1.
<mgrwt>
<rscale>  0 0.96620280E+02</rscale>
<asrwt>0</asrwt>
<pdfrwt beam="2">  1        2 0.18553173E-01 0.96620280E+02</pdfrwt>
<pdfrwt beam="1">  1       -2 0.29773622E-02 0.96620280E+02</pdfrwt>
<totfact> 0.11091930E+05</totfact>
</mgrwt>
</event>
<event>
 4    1  0.3704929E-001  0.4334915E+02  0.7818608E-02  0.1484919E+00
          2   -1    0    0  501    0  0.00000000000E+00  0.00000000000E+00  0.11620426579E+02  0.11620426870E+02  0.26000000000E-02 0.  1.
         -2   -1    0    0    0  501 -0.00000000000E+00 -0.00000000000E+00 -0.40427711218E+02  0.40427711301E+02  0.26000000000E-02 0. -1.
        -13    1    1    2    0    0  0.40617058299E+01  0.13578720230E+02  0.52850810048E+01  0.15126875125E+02  0.10570000000E+00 0.  1.
         13    1    1    2    0    0 -0.40617058299E+01 -0.13578720230E+02 -0.34092365643E+02  0.36921263047E+02  0.10570000000E+00 0. -1.
<mgrwt>
<rscale>  0 0.43349153E+02</rscale>
<asrwt>0</asrwt>
<pdfrwt beam="1">  1        2 0.17877580E-02 0.43349153E+02</pdfrwt>
<pdfrwt beam="2">  1       -2 0.62196478E-02 0.43349153E+02</pdfrwt>
<totfact> 0.59317280E+05</totfact>
</mgrwt>
</event>
<event>
 4    1  0.3704929E-001  0.2907896E+02  0.7818608E-02  0.1608499E+00
          2   -1    0    0  501    0  0.00000000000E+00  0.00000000000E+00  0.56017287973E+02  0.56017288033E+02  0.26000000000E-02 0.  1.
         -2   -1    0    0    0  501 -0.00000000000E+00 -0.00000000000E+00 -0.37737703781E+01  0.37737712738E+01  0.26000000000E-02 0. -1.
        -13    1    1    2    0    0  0.13901709098E+02 -0.28598043480E+01  0.32607392705E+02  0.35562469378E+02  0.10570000000E+00 0.  1.
         13    1    1    2    0    0 -0.13901709098E+02  0.28598043480E+01  0.19636124889E+02  0.24228589928E+02  0.10570000000E+00 0. -1.
<mgrwt>
<rscale>  0 0.29078955E+02</rscale>
<asrwt>0</asrwt>
<pdfrwt beam="1">  1        2 0.86180441E-02 0.29078955E+02</pdfrwt>
<pdfrwt beam="2">  1       -2 0.58058015E-03 0.29078955E+02</pdfrwt>
<totfact> 0.19959496E+06</totfact>
</mgrwt>
</event>
<event>
 4    1  0.3704929E-001  0.3819551E+02  0.7818608E-02  0.1521927E+00
          2   -1    0    0  501    0  0.00000000000E+00  0.00000000000E+00  0.17606940087E+02  0.17606940279E+02  0.26000000000E-02 0. -1.
         -2   -1    0    0    0  501 -0.00000000000E+00 -0.00000000000E+00 -0.20714795077E+02  0.20714795240E+02  0.26000000000E-02 0.  1.
        -13    1    1    2    0    0  0.32536629071E+01  0.94740989954E+01  0.14759208012E+02  0.17837888544E+02  0.10570000000E+00 0. -1.
         13    1    1    2    0    0 -0.32536629071E+01 -0.94740989954E+01 -0.17867063002E+02  0.20483846975E+02  0.10570000000E+00 0.  1.
<mgrwt>
<rscale>  0 0.38195506E+02</rscale>
<asrwt>0</asrwt>
<pdfrwt beam="1">  1        2 0.27087601E-02 0.38195506E+02</pdfrwt>
<pdfrwt beam="2">  1       -2 0.31868916E-02 0.38195506E+02</pdfrwt>
<totfact> 0.87247680E+05</totfact>
</mgrwt>
</event>
<event>
 4    1  0.3704929E-001  0.2157368E+02  0.7818608E-02  0.1715731E+00
         -2   -1    0    0    0  501 -0.00000000000E+00  0.00000000000E+00  0.22732969000E+01  0.22732983868E+01  0.26000000000E-02 0.  1.
          2   -1    0    0  501    0  0.00000000000E+00 -0.00000000000E+00 -0.51183735571E+02  0.51183735637E+02  0.26000000000E-02 0. -1.
        -13    1    1    2    0    0 -0.74619649585E+01 -0.75280389984E+01 -0.29406276826E+02  0.31258480152E+02  0.10570000000E+00 0. -1.
         13    1    1    2    0    0  0.74619649585E+01  0.75280389984E+01 -0.19504161845E+02  0.22198553871E+02  0.10570000000E+00 0.  1.
<mgrwt>
<rscale>  0 0.21573676E+02</rscale>
<asrwt>0</asrwt>
<pdfrwt beam="2">  1        2 0.78744201E-02 0.21573676E+02</pdfrwt>
<pdfrwt beam="1">  1       -2 0.34973814E-03 0.21573676E+02</pdfrwt>
<totfact> 0.39227862E+06</totfact>
</mgrwt>
</event>
<event>
 4    1  0.3704929E-001  0.3070090E+02  0.7818608E-02  0.1590468E+00
         -2   -1    0    0    0  501 -0.00000000000E+00  0.00000000000E+00  0.37166348152E+02  0.37166348243E+02  0.26000000000E-02 0. -1.
          2   -1    0    0  501    0  0.00000000000E+00 -0.00000000000E+00 -0.63400431430E+01  0.63400436761E+01  0.26000000000E-02 0.  1.
        -13    1    1    2    0    0 -0.70632091002E+01  0.13626308847E+02  0.15066392271E+02  0.21507500183E+02  0.10570000000E+00 0.  1.
         13    1    1    2    0    0  0.70632091002E+01 -0.13626308847E+02  0.15759912738E+02  0.21998891735E+02  0.10570000000E+00 0. -1.
<mgrwt>
<rscale>  0 0.30700897E+02</rscale>
<asrwt>0</asrwt>
<pdfrwt beam="2">  1        2 0.97539130E-03 0.30700897E+02</pdfrwt>
<pdfrwt beam="1">  1       -2 0.57178998E-02 0.30700897E+02</pdfrwt>
<totfact> 0.13444135E+06</totfact>
</mgrwt>
</event>
<event>
 4    1  0.3704929E-001  0.3413254E+02  0.7818608E-02  0.1556442E+00
          2   -1    0    0  501    0  0.00000000000E+00  0.00000000000E+00  0.33060043209E+02  0.33060043311E+02  0.26000000000E-02 0. -1.
         -2   -1    0    0    0  501 -0.00000000000E+00 -0.00000000000E+00 -0.88099565642E+01  0.88099569479E+01  0.26000000000E-02 0.  1.
        -13    1    1    2    0    0 -0.55821427427E+01 -0.15974662879E+02  0.94107022675E+01  0.19362919753E+02  0.10570000000E+00 0. -1.
         13    1    1    2    0    0  0.55821427427E+01  0.15974662879E+02  0.14839384377E+02  0.22507080506E+02  0.10570000000E+00 0.  1.
<mgrwt>
<rscale>  0 0.34132539E+02</rscale>
<asrwt>0</asrwt>
<pdfrwt beam="1">  1        2 0.50861605E-02 0.34132539E+02</pdfrwt>
<pdfrwt beam="2">  1       -2 0.13553780E-02 0.34132539E+02</pdfrwt>
<totfact> 0.12516614E+06</totfact>
</mgrwt>
</event>
<event>
 4    1  0.3704929E-001  0.4793776E+02  0.7818608E-02  0.1456793E+00
          2   -1    0    0  501    0  0.00000000000E+00  0.00000000000E+00  0.25069732608E+02  0.25069732743E+02  0.26000000000E-02 0. -1.
         -2   -1    0    0    0  501 -0.00000000000E+00 -0.00000000000E+00 -0.22916367052E+02  0.22916367200E+02  0.26000000000E-02 0.  1.
        -13    1    1    2    0    0  0.97727482060E+01 -0.94095977897E+01  0.20856388081E+02  0.24880659845E+02  0.10570000000E+00 0. -1.
         13    1    1    2    0    0 -0.97727482060E+01  0.94095977897E+01 -0.18703022525E+02  0.23105440098E+02  0.10570000000E+00 0.  1.
<mgrwt>
<rscale>  0 0.47937760E+02</rscale>
<asrwt>0</asrwt>
<pdfrwt beam="1">  1        2 0.38568820E-02 0.47937760E+02</pdfrwt>
<pdfrwt beam="2">  1       -2 0.35255949E-02 0.47937760E+02</pdfrwt>
<totfact> 0.50958179E+05</totfact>
</mgrwt>
</event>
<event>
 4    1  0.3704929E-001  0.7533328E+02  0.7818608E-02  0.1342842E+00
         -2   -1    0    0    0  501 -0.00000000000E+00  0.00000000000E+00  0.53259715297E+02  0.53259715361E+02  0.26000000000E-02 0.  1.
          2   -1    0    0  501    0  0.00000000000E+00 -0.00000000000E+00 -0.26638818409E+02  0.26638818536E+02  0.26000000000E-02 0. -1.
        -13    1    1    2    0    0  0.26692141068E+00  0.12800321724E+02 -0.24260053528E+02  0.27431384451E+02  0.10570000000E+00 0. -1.
         13    1    1    2    0    0 -0.26692141068E+00 -0.12800321724E+02  0.50880950415E+02  0.52467149446E+02  0.10570000000E+00 0.  1.
<mgrwt>
<rscale>  0 0.75333283E+02</rscale>
<asrwt>0</asrwt>
<pdfrwt beam="2">  1        2 0.40982798E-02 0.75333283E+02</pdfrwt>
<pdfrwt beam="1">  1       -2 0.81938024E-02 0.75333283E+02</pdfrwt>
<totfact> 0.14984866E+05</totfact>
</mgrwt>
</event>
<event>
 4    1  0.3704929E-001  0.2850620E+02  0.7818608E-02  0.1615213E+00
          2   -1    0    0  501    0  0.00000000000E+00  0.00000000000E+00  0.76775752136E+02  0.76775752180E+02  0.26000000000E-02 0. -1.
         -2   -1    0    0    0  501 -0.00000000000E+00 -0.00000000000E+00 -0.26460276941E+01  0.26460289715E+01  0.26000000000E-02 0.  1.
        -13    1    1    2    0    0  0.10035088923E+02  0.80229607539E+01  0.19874517927E+02  0.23665978625E+02  0.10570000000E+00 0.  1.
         13    1    1    2    0    0 -0.10035088923E+02 -0.80229607539E+01  0.54255206514E+02  0.55755802526E+02  0.10570000000E+00 0. -1.
<mgrwt>
<rscale>  0 0.28506197E+02</rscale>
<asrwt>0</asrwt>
<pdfrwt beam="1">  1        2 0.11811654E-01 0.28506197E+02</pdfrwt>
<pdfrwt beam="2">  1       -2 0.40708128E-03 0.28506197E+02</pdfrwt>
<totfact> 0.22210617E+06</totfact>
</mgrwt>
</event>
<event>
 4    1  0.3704929E-001  0.4564321E+02  0.7818608E-02  0.1470366E+00
          2   -1    0    0  501    0  0.00000000000E+00  0.00000000000E+00  0.98361585436E+01  0.98361588872E+01  0.26000000000E-02 0. -1.
         -2   -1    0    0    0  501 -0.00000000000E+00 -0.00000000000E+00 -0.52950106455E+02  0.52950106519E+02  0.26000000000E-02 0.  1.
        -13    1    1    2    0    0  0.68268407570E+01 -0.21676123615E+02 -0.24427439005E+02  0.33364217936E+02  0.10570000000E+00 0.  1.
         13    1    1    2    0    0 -0.68268407570E+01  0.21676123615E+02 -0.18686508907E+02  0.29422047470E+02  0.10570000000E+00 0. -1.
<mgrwt>
<rscale>  0 0.45643210E+02</rscale>
<asrwt>0</asrwt>
<pdfrwt beam="1">  1        2 0.15132552E-02 0.45643210E+02</pdfrwt>
<pdfrwt beam="2">  1       -2 0.81461701E-02 0.45643210E+02</pdfrwt>
<totfact> 0.50223130E+05</totfact>
</mgrwt>
</event>
<event>
 4    1  0.3704929E-001  0.2866866E+02  0.7818608E-02  0.1613289E+00
         -2   -1    0    0    0  501 -0.00000000000E+00  0.00000000000E+00  0.46803656364E+01  0.46803663585E+01  0.26000000000E-02 0.  1.
          2   -1    0    0  501    0  0.00000000000E+00 -0.00000000000E+00 -0.43901050265E+02  0.43901050342E+02  0.26000000000E-02 0. -1.
        -13    1    1    2    0    0  0.29485174203E+01 -0.11334157869E+02 -0.33615526365E+02  0.35597354885E+02  0.10570000000E+00 0. -1.
         13    1    1    2    0    0 -0.29485174203E+01  0.11334157869E+02 -0.56051582640E+01  0.12984061815E+02  0.10570000000E+00 0.  1.
<mgrwt>
<rscale>  0 0.28668658E+02</rscale>
<asrwt>0</asrwt>
<pdfrwt beam="2">  1        2 0.67540075E-02 0.28668658E+02</pdfrwt>
<pdfrwt beam="1">  1       -2 0.72005634E-03 0.28668658E+02</pdfrwt>
<totfact> 0.19844370E+06</totfact>
</mgrwt>
</event>
<event>
 4    1  0.3704929E-001  0.2164505E+02  0.7818608E-02  0.1714464E+00
          2   -1    0    0  501    0  0.00000000000E+00  0.00000000000E+00  0.15166079128E+02  0.15166079351E+02  0.26000000000E-02 0. -1.
         -2   -1    0    0    0  501 -0.00000000000E+00 -0.00000000000E+00 -0.77229620294E+01  0.77229624670E+01  0.26000000000E-02 0.  1.
        -13    1    1    2    0    0  0.31830330656E+01  0.10322563136E+02  0.30290319693E+01  0.11219323346E+02  0.10570000000E+00 0. -1.
         13    1    1    2    0    0 -0.31830330656E+01 -0.10322563136E+02  0.44140851295E+01  0.11669718472E+02  0.10570000000E+00 0.  1.
<mgrwt>
<rscale>  0 0.21645051E+02</rscale>
<asrwt>0</asrwt>
<pdfrwt beam="1">  1        2 0.23332430E-02 0.21645051E+02</pdfrwt>
<pdfrwt beam="2">  1       -2 0.11881481E-02 0.21645051E+02</pdfrwt>
<totfact> 0.33996175E+06</totfact>
</mgrwt>
</event>
<event>
 4    1  0.3704929E-001  0.2179757E+02  0.7818608E-02  0.1711777E+00
          2   -1    0    0  501    0  0.00000000000E+00  0.00000000000E+00  0.14471601761E+01  0.14471625117E+01  0.26000000000E-02 0. -1.
         -2   -1    0    0    0  501 -0.00000000000E+00 -0.00000000000E+00 -0.82080351508E+02  0.82080351550E+02  0.26000000000E-02 0.  1.
        -13    1    1    2    0    0  0.85904187061E+01  0.59578315484E+01 -0.52115868521E+02  0.53154171750E+02  0.10570000000E+00 0.  1.
         13    1    1    2    0    0 -0.85904187061E+01 -0.59578315484E+01 -0.28517322812E+02  0.30373342311E+02  0.10570000000E+00 0. -1.
<mgrwt>
<rscale>  0 0.21797570E+02</rscale>
<asrwt>0</asrwt>
<pdfrwt beam="1">  1        2 0.22264027E-03 0.21797570E+02</pdfrwt>
<pdfrwt beam="2">  1       -2 0.12627743E-01 0.21797570E+02</pdfrwt>
<totfact> 0.25729639E+06</totfact>
</mgrwt>
</event>
<event>
 4    1  0.3704929E-001  0.2017149E+02  0.7818608E-02  0.1741939E+00
          2   -1    0    0  501    0  0.00000000000E+00  0.00000000000E+00  0.15735087943E+01  0.15735109424E+01  0.26000000000E-02 0. -1.
         -2   -1    0    0    0  501 -0.00000000000E+00 -0.00000000000E+00 -0.64646737866E+02  0.64646737919E+02  0.26000000000E-02 0.  1.
        -13    1    1    2    0    0 -0.98928229262E+01  0.19134442952E+01 -0.32936733098E+02  0.34443704420E+02  0.10570000000E+00 0.  1.
         13    1    1    2    0    0  0.98928229262E+01 -0.19134442952E+01 -0.30136495974E+02  0.31776544441E+02  0.10570000000E+00 0. -1.
<mgrwt>
<rscale>  0 0.20171493E+02</rscale>
<asrwt>0</asrwt>
<pdfrwt beam="1">  1        2 0.24207850E-03 0.20171493E+02</pdfrwt>
<pdfrwt beam="2">  1       -2 0.99456501E-02 0.20171493E+02</pdfrwt>
<totfact> 0.31943699E+06</totfact>
</mgrwt>
</event>
<event>
 4    1  0.3704929E-001  0.2305396E+02  0.7818608E-02  0.1690637E+00
          2   -1    0    0  501    0  0.00000000000E+00  0.00000000000E+00  0.72773337047E+02  0.72773337094E+02  0.26000000000E-02 0. -1.
         -2   -1    0    0    0  501 -0.00000000000E+00 -0.00000000000E+00 -0.18258224986E+01  0.18258243498E+01  0.26000000000E-02 0.  1.
        -13    1    1    2    0    0  0.73232680802E+01  0.88496719212E+01  0.32381621934E+02  0.34358806150E+02  0.10570000000E+00 0.  1.
         13    1    1    2    0    0 -0.73232680802E+01 -0.88496719212E+01  0.38565892615E+02  0.40240355293E+02  0.10570000000E+00 0. -1.
<mgrwt>
<rscale>  0 0.23053960E+02</rscale>
<asrwt>0</asrwt>
<pdfrwt beam="1">  1        2 0.11195899E-01 0.23053960E+02</pdfrwt>
<pdfrwt beam="2">  1       -2 0.28089590E-03 0.23053960E+02</pdfrwt>
<totfact> 0.35891096E+06</totfact>
</mgrwt>
</event>
<event>
 4    1  0.3704929E-001  0.2277684E+02  0.7818608E-02  0.1695153E+00
         -2   -1    0    0    0  501 -0.00000000000E+00  0.00000000000E+00  0.21328416365E+01  0.21328432212E+01  0.26000000000E-02 0.  1.
          2   -1    0    0  501    0  0.00000000000E+00 -0.00000000000E+00 -0.60809048267E+02  0.60809048323E+02  0.26000000000E-02 0. -1.
        -13    1    1    2    0    0 -0.35811029750E+01  0.98224900531E+01 -0.41813126321E+02  0.43100514087E+02  0.10570000000E+00 0. -1.
         13    1    1    2    0    0  0.35811029750E+01 -0.98224900531E+01 -0.16863080310E+02  0.19841377457E+02  0.10570000000E+00 0.  1.
<mgrwt>
<rscale>  0 0.22776841E+02</rscale>
<asrwt>0</asrwt>
<pdfrwt beam="2">  1        2 0.93552370E-02 0.22776841E+02</pdfrwt>
<pdfrwt beam="1">  1       -2 0.32812966E-03 0.22776841E+02</pdfrwt>
<totfact> 0.35688629E+06</totfact>
</mgrwt>
</event>
<event>
 4    1  0.3704929E-001  0.2095002E+02  0.7818608E-02  0.1727070E+00
         -2   -1    0    0    0  501 -0.00000000000E+00  0.00000000000E+00  0.96714399010E+02  0.96714399044E+02  0.26000000000E-02 0. -1.
          2   -1    0    0  501    0  0.00000000000E+00 -0.00000000000E+00 -0.11345334486E+01  0.11345364278E+01  0.26000000000E-02 0.  1.
        -13    1    1    2    0    0 -0.10141387294E+02 -0.20311550628E+01  0.40056802902E+02  0.41370665433E+02  0.10570000000E+00 0.  1.
         13    1    1    2    0    0  0.10141387294E+02  0.20311550628E+01  0.55523062659E+02  0.56478270039E+02  0.10570000000E+00 0. -1.
<mgrwt>
<rscale>  0 0.20950023E+02</rscale>
<asrwt>0</asrwt>
<pdfrwt beam="2">  1        2 0.17454372E-03 0.20950023E+02</pdfrwt>
<pdfrwt beam="1">  1       -2 0.14879149E-01 0.20950023E+02</pdfrwt>
<totfact> 0.27074195E+06</totfact>
</mgrwt>
</event>
<event>
 4    1  0.3704929E-001  0.3644741E+02  0.7818608E-02  0.1536110E+00
         -2   -1    0    0    0  501 -0.00000000000E+00  0.00000000000E+00  0.57373374731E+01  0.57373380622E+01  0.26000000000E-02 0. -1.
          2   -1    0    0  501    0  0.00000000000E+00 -0.00000000000E+00 -0.57884587788E+02  0.57884587846E+02  0.26000000000E-02 0.  1.
        -13    1    1    2    0    0  0.55638183812E+01  0.17312899904E+02 -0.28138792424E+02  0.33503662332E+02  0.10570000000E+00 0. -1.
         13    1    1    2    0    0 -0.55638183812E+01 -0.17312899904E+02 -0.24008457890E+02  0.30118263576E+02  0.10570000000E+00 0.  1.
<mgrwt>
<rscale>  0 0.36447411E+02</rscale>
<asrwt>0</asrwt>
<pdfrwt beam="2">  1        2 0.89053208E-02 0.36447411E+02</pdfrwt>
<pdfrwt beam="1">  1       -2 0.88266739E-03 0.36447411E+02</pdfrwt>
<totfact> 0.11655766E+06</totfact>
</mgrwt>
</event>
<event>
 4    1  0.3704929E-001  0.2882836E+02  0.7818608E-02  0.1611413E+00
         -2   -1    0    0    0  501 -0.00000000000E+00  0.00000000000E+00  0.17248942565E+02  0.17248942761E+02  0.26000000000E-02 0.  1.
          2   -1    0    0  501    0  0.00000000000E+00 -0.00000000000E+00 -0.12045295475E+02  0.12045295756E+02  0.26000000000E-02 0. -1.
        -13    1    1    2    0    0  0.13275549171E+02 -0.50608123468E+01  0.50712012608E+01  0.15085764221E+02  0.10570000000E+00 0.  1.
         13    1    1    2    0    0 -0.13275549171E+02  0.50608123468E+01  0.13244582858E+00  0.14208474295E+02  0.10570000000E+00 0. -1.
<mgrwt>
<rscale>  0 0.28828362E+02</rscale>
<asrwt>0</asrwt>
<pdfrwt beam="2">  1        2 0.18531224E-02 0.28828362E+02</pdfrwt>
<pdfrwt beam="1">  1       -2 0.26536835E-02 0.28828362E+02</pdfrwt>
<totfact> 0.16881555E+06</totfact>
</mgrwt>
</event>
<event>
 4    1  0.3704929E-001  0.2911473E+02  0.7818608E-02  0.1608085E+00
          2   -1    0    0  501    0  0.00000000000E+00  0.00000000000E+00  0.89229162146E+01  0.89229165934E+01  0.26000000000E-02 0. -1.
         -2   -1    0    0    0  501 -0.00000000000E+00 -0.00000000000E+00 -0.23749724751E+02  0.23749724893E+02  0.26000000000E-02 0.  1.
        -13    1    1    2    0    0  0.13978346206E+02  0.29680284490E+01 -0.10527853995E+02  0.17749654581E+02  0.10570000000E+00 0.  1.
         13    1    1    2    0    0 -0.13978346206E+02 -0.29680284490E+01 -0.42989545412E+01  0.14922986905E+02  0.10570000000E+00 0. -1.
<mgrwt>
<rscale>  0 0.29114726E+02</rscale>
<asrwt>0</asrwt>
<pdfrwt beam="1">  1        2 0.13727564E-02 0.29114726E+02</pdfrwt>
<pdfrwt beam="2">  1       -2 0.36538038E-02 0.29114726E+02</pdfrwt>
<totfact> 0.15982036E+06</totfact>
</mgrwt>
</event>
<event>
 4    1  0.3704929E-001  0.4904224E+02  0.7818608E-02  0.1450577E+00
         -2   -1    0    0    0  501 -0.00000000000E+00  0.00000000000E+00  0.90598897012E+01  0.90598900743E+01  0.26000000000E-02 0. -1.
          2   -1    0    0  501    0  0.00000000000E+00 -0.00000000000E+00 -0.66367847683E+02  0.66367847734E+02  0.26000000000E-02 0.  1.
        -13    1    1    2    0    0 -0.11399910875E+02  0.20228307152E+02 -0.40777196146E+02  0.46924761867E+02  0.10570000000E+00 0.  1.
         13    1    1    2    0    0  0.11399910875E+02 -0.20228307152E+02 -0.16530761836E+02  0.28502975942E+02  0.10570000000E+00 0. -1.
<mgrwt>
<rscale>  0 0.49042243E+02</rscale>
<asrwt>0</asrwt>
<pdfrwt beam="2">  1        2 0.10210438E-01 0.49042243E+02</pdfrwt>
<pdfrwt beam="1">  1       -2 0.13938293E-02 0.49042243E+02</pdfrwt>
<totfact> 0.57069891E+05</totfact>
</mgrwt>
</event>
<event>
 4    1  0.3704929E-001  0.2888934E+02  0.7818608E-02  0.1610700E+00
          2   -1    0    0  501    0  0.00000000000E+00  0.00000000000E+00  0.11444052953E+02  0.11444053248E+02  0.26000000000E-02 0.  1.
         -2   -1    0    0    0  501 -0.00000000000E+00 -0.00000000000E+00 -0.18232048589E+02  0.18232048774E+02  0.26000000000E-02 0. -1.
        -13    1    1    2    0    0  0.68576640131E+01 -0.11318417049E+02 -0.93398295968E+01  0.16198077343E+02  0.10570000000E+00 0. -1.
         13    1    1    2    0    0 -0.68576640131E+01  0.11318417049E+02  0.25518339604E+01  0.13478024680E+02  0.10570000000E+00 0.  1.
<mgrwt>
<rscale>  0 0.28889343E+02</rscale>
<asrwt>0</asrwt>
<pdfrwt beam="1">  1        2 0.17606236E-02 0.28889343E+02</pdfrwt>
<pdfrwt beam="2">  1       -2 0.28049306E-02 0.28889343E+02</pdfrwt>
<totfact> 0.16709355E+06</totfact>
</mgrwt>
</event>
<event>
 4    1  0.3704929E-001  0.3971102E+02  0.7818608E-02  0.1510349E+00
         -2   -1    0    0    0  501 -0.00000000000E+00  0.00000000000E+00  0.45101772344E+02  0.45101772419E+02  0.26000000000E-02 0.  1.
          2   -1    0    0  501    0  0.00000000000E+00 -0.00000000000E+00 -0.87411467505E+01  0.87411471372E+01  0.26000000000E-02 0. -1.
        -13    1    1    2    0    0  0.81885982934E+01  0.18079480368E+02  0.18934373600E+02  0.27430684069E+02  0.10570000000E+00 0. -1.
         13    1    1    2    0    0 -0.81885982934E+01 -0.18079480368E+02  0.17426251994E+02  0.26412235487E+02  0.10570000000E+00 0.  1.
<mgrwt>
<rscale>  0 0.39711017E+02</rscale>
<asrwt>0</asrwt>
<pdfrwt beam="2">  1        2 0.13447918E-02 0.39711017E+02</pdfrwt>
<pdfrwt beam="1">  1       -2 0.69387343E-02 0.39711017E+02</pdfrwt>
<totfact> 0.71775184E+05</totfact>
</mgrwt>
</event>
<event>
 4    1  0.3704929E-001  0.3459329E+02  0.7818608E-02  0.1552242E+00
          2   -1    0    0  501    0  0.00000000000E+00  0.00000000000E+00  0.50019631977E+02  0.50019632045E+02  0.26000000000E-02 0. -1.
         -2   -1    0    0    0  501 -0.00000000000E+00 -0.00000000000E+00 -0.59811312081E+01  0.59811317732E+01  0.26000000000E-02 0.  1.
        -13    1    1    2    0    0  0.11504048823E+02  0.12909763123E+02  0.21376380385E+02  0.27494834680E+02  0.10570000000E+00 0. -1.
         13    1    1    2    0    0 -0.11504048823E+02 -0.12909763123E+02  0.22662120384E+02  0.28505929138E+02  0.10570000000E+00 0.  1.
<mgrwt>
<rscale>  0 0.34593294E+02</rscale>
<asrwt>0</asrwt>
<pdfrwt beam="1">  1        2 0.76953279E-02 0.34593294E+02</pdfrwt>
<pdfrwt beam="2">  1       -2 0.92017410E-03 0.34593294E+02</pdfrwt>
<totfact> 0.12901596E+06</totfact>
</mgrwt>
</event>
<event>
 4    1  0.3704929E-001  0.5752793E+02  0.7818608E-02  0.1408509E+00
          2   -1    0    0  501    0  0.00000000000E+00  0.00000000000E+00  0.53303354477E+02  0.53303354541E+02  0.26000000000E-02 0.  1.
         -2   -1    0    0    0  501 -0.00000000000E+00 -0.00000000000E+00 -0.15521833242E+02  0.15521833459E+02  0.26000000000E-02 0. -1.
        -13    1    1    2    0    0 -0.16103629277E+02 -0.69097448779E+01  0.46179816988E+02  0.49392895438E+02  0.10570000000E+00 0.  1.
         13    1    1    2    0    0  0.16103629277E+02  0.69097448779E+01 -0.83982957526E+01  0.19432292562E+02  0.10570000000E+00 0. -1.
<mgrwt>
<rscale>  0 0.57527934E+02</rscale>
<asrwt>0</asrwt>
<pdfrwt beam="1">  1        2 0.82005161E-02 0.57527934E+02</pdfrwt>
<pdfrwt beam="2">  1       -2 0.23879744E-02 0.57527934E+02</pdfrwt>
<totfact> 0.36081301E+05</totfact>
</mgrwt>
</event>
<event>
 4    1  0.3704929E-001  0.2977371E+02  0.7818608E-02  0.1600604E+00
         -2   -1    0    0    0  501 -0.00000000000E+00  0.00000000000E+00  0.19077196723E+02  0.19077196900E+02  0.26000000000E-02 0. -1.
          2   -1    0    0  501    0  0.00000000000E+00 -0.00000000000E+00 -0.11616929700E+02  0.11616929991E+02  0.26000000000E-02 0.  1.
        -13    1    1    2    0    0 -0.84278991064E+01  0.68496893587E+01 -0.67659433617E+01  0.12795971621E+02  0.10570000000E+00 0.  1.
         13    1    1    2    0    0  0.84278991064E+01 -0.68496893587E+01  0.14226210385E+02  0.17898155270E+02  0.10570000000E+00 0. -1.
<mgrwt>
<rscale>  0 0.29773711E+02</rscale>
<asrwt>0</asrwt>
<pdfrwt beam="2">  1        2 0.17872200E-02 0.29773711E+02</pdfrwt>
<pdfrwt beam="1">  1       -2 0.29349533E-02 0.29773711E+02</pdfrwt>
<totfact> 0.15539763E+06</totfact>
</mgrwt>
</event>
<event>
 4    1  0.3704929E-001  0.2128998E+02  0.7818608E-02  0.1720829E+00
          2   -1    0    0  501    0  0.00000000000E+00  0.00000000000E+00  0.19691051190E+01  0.19691068355E+01  0.26000000000E-02 0.  1.
         -2   -1    0    0    0  501 -0.00000000000E+00 -0.00000000000E+00 -0.57546823611E+02  0.57546823670E+02  0.26000000000E-02 0. -1.
        -13    1    1    2    0    0 -0.79492236130E+01  0.70725472346E+01 -0.28643862875E+02  0.30556392676E+02  0.10570000000E+00 0.  1.
         13    1    1    2    0    0  0.79492236130E+01 -0.70725472346E+01 -0.26933855617E+02  0.28959537830E+02  0.10570000000E+00 0. -1.
<mgrwt>
<rscale>  0 0.21289979E+02</rscale>
<asrwt>0</asrwt>
<pdfrwt beam="1">  1        2 0.30293943E-03 0.21289979E+02</pdfrwt>
<pdfrwt beam="2">  1       -2 0.88533563E-02 0.21289979E+02</pdfrwt>
<totfact> 0.28925218E+06</totfact>
</mgrwt>
</event>
<event>
 4    1  0.3704929E-001  0.2104090E+02  0.7818608E-02  0.1725387E+00
         -2   -1    0    0    0  501 -0.00000000000E+00  0.00000000000E+00  0.29390617014E+01  0.29390628514E+01  0.26000000000E-02 0.  1.
          2   -1    0    0  501    0  0.00000000000E+00 -0.00000000000E+00 -0.37658226372E+02  0.37658226462E+02  0.26000000000E-02 0. -1.
        -13    1    1    2    0    0  0.15389472640E+01  0.10139815555E+02 -0.21878148547E+02  0.24162962867E+02  0.10570000000E+00 0. -1.
         13    1    1    2    0    0 -0.15389472640E+01 -0.10139815555E+02 -0.12841016124E+02  0.16434326447E+02  0.10570000000E+00 0.  1.
<mgrwt>
<rscale>  0 0.21040901E+02</rscale>
<asrwt>0</asrwt>
<pdfrwt beam="2">  1        2 0.57935730E-02 0.21040901E+02</pdfrwt>
<pdfrwt beam="1">  1       -2 0.45216346E-03 0.21040901E+02</pdfrwt>
<totfact> 0.39748138E+06</totfact>
</mgrwt>
</event>
<event>
 4    1  0.3704929E-001  0.3065964E+02  0.7818608E-02  0.1590910E+00
          2   -1    0    0  501    0  0.00000000000E+00  0.00000000000E+00  0.40829398268E+02  0.40829398351E+02  0.26000000000E-02 0. -1.
         -2   -1    0    0    0  501 -0.00000000000E+00 -0.00000000000E+00 -0.57557394163E+01  0.57557400035E+01  0.26000000000E-02 0.  1.
        -13    1    1    2    0    0 -0.12923730026E+02  0.38411891783E+01  0.28620818476E+02  0.31637635101E+02  0.10570000000E+00 0. -1.
         13    1    1    2    0    0  0.12923730026E+02 -0.38411891783E+01  0.64528403763E+01  0.14947503253E+02  0.10570000000E+00 0.  1.
<mgrwt>
<rscale>  0 0.30659641E+02</rscale>
<asrwt>0</asrwt>
<pdfrwt beam="1">  1        2 0.62814457E-02 0.30659641E+02</pdfrwt>
<pdfrwt beam="2">  1       -2 0.88549846E-03 0.30659641E+02</pdfrwt>
<totfact> 0.16726809E+06</totfact>
</mgrwt>
</event>
<event>
 4    1  0.3704929E-001  0.5028994E+02  0.7818608E-02  0.1443784E+00
         -2   -1    0    0    0  501 -0.00000000000E+00  0.00000000000E+00  0.69179475982E+02  0.69179476031E+02  0.26000000000E-02 0. -1.
          2   -1    0    0  501    0  0.00000000000E+00 -0.00000000000E+00 -0.91395521770E+01  0.91395525468E+01  0.26000000000E-02 0.  1.
        -13    1    1    2    0    0  0.10578350530E+02  0.20931233753E+02  0.15896916641E+02  0.28332687440E+02  0.10570000000E+00 0.  1.
         13    1    1    2    0    0 -0.10578350530E+02 -0.20931233753E+02  0.44143007164E+02  0.49986341138E+02  0.10570000000E+00 0. -1.
<mgrwt>
<rscale>  0 0.50289937E+02</rscale>
<asrwt>0</asrwt>
<pdfrwt beam="2">  1        2 0.14060850E-02 0.50289937E+02</pdfrwt>
<pdfrwt beam="1">  1       -2 0.10642996E-01 0.50289937E+02</pdfrwt>
<totfact> 0.37828076E+05</totfact>
</mgrwt>
</event>
<event>
 4    1  0.3704929E-001  0.2114204E+02  0.7818608E-02  0.1723527E+00
          2   -1    0    0  501    0  0.00000000000E+00  0.00000000000E+00  0.76531000746E+02  0.76531000791E+02  0.26000000000E-02 0.  1.
         -2   -1    0    0    0  501 -0.00000000000E+00 -0.00000000000E+00 -0.14601450201E+01  0.14601473349E+01  0.26000000000E-02 0. -1.
        -13    1    1    2    0    0  0.93251376217E+01  0.39418259414E+01  0.48748204742E+02  0.49788500896E+02  0.10570000000E+00 0. -1.
         13    1    1    2    0    0 -0.93251376217E+01 -0.39418259414E+01  0.26322650985E+02  0.28202647230E+02  0.10570000000E+00 0.  1.
<mgrwt>
<rscale>  0 0.21142039E+02</rscale>
<asrwt>0</asrwt>
<pdfrwt beam="1">  1        2 0.11774001E-01 0.21142039E+02</pdfrwt>
<pdfrwt beam="2">  1       -2 0.22463786E-03 0.21142039E+02</pdfrwt>
<totfact> 0.44061544E+06</totfact>
</mgrwt>
</event>
<event>
 4    1  0.3704929E-001  0.4301800E+02  0.7818608E-02  0.1487108E+00
         -2   -1    0    0    0  501 -0.00000000000E+00  0.00000000000E+00  0.18991932810E+03  0.18991932811E+03  0.26000000000E-02 0. -1.
          2   -1    0    0  501    0  0.00000000000E+00 -0.00000000000E+00 -0.24359661415E+01  0.24359675290E+01  0.26000000000E-02 0.  1.
        -13    1    1    2    0    0  0.88382702967E+01  0.19557502460E+02  0.87394202513E+02  0.89990936931E+02  0.10570000000E+00 0.  1.
         13    1    1    2    0    0 -0.88382702967E+01 -0.19557502460E+02  0.10008915944E+03  0.10236435871E+03  0.10570000000E+00 0. -1.
<mgrwt>
<rscale>  0 0.43018005E+02</rscale>
<asrwt>0</asrwt>
<pdfrwt beam="2">  1        2 0.37476404E-03 0.43018005E+02</pdfrwt>
<pdfrwt beam="1">  1       -2 0.29218366E-01 0.43018005E+02</pdfrwt>
<totfact> 0.41547541E+05</totfact>
</mgrwt>
</event>
<event>
 4    1  0.3704929E-001  0.4725447E+02  0.7818608E-02  0.1460739E+00
          2   -1    0    0  501    0  0.00000000000E+00  0.00000000000E+00  0.55387174707E+01  0.55387180810E+01  0.26000000000E-02 0.  1.
         -2   -1    0    0    0  501 -0.00000000000E+00 -0.00000000000E+00 -0.10078980448E+03  0.10078980451E+03  0.26000000000E-02 0. -1.
        -13    1    1    2    0    0  0.75642047247E+01 -0.21980742602E+02 -0.57136120026E+02  0.61684014319E+02  0.10570000000E+00 0. -1.
         13    1    1    2    0    0 -0.75642047247E+01  0.21980742602E+02 -0.38114966982E+02  0.44644508274E+02  0.10570000000E+00 0.  1.
<mgrwt>
<rscale>  0 0.47254472E+02</rscale>
<asrwt>0</asrwt>
<pdfrwt beam="1">  1        2 0.85211050E-03 0.47254472E+02</pdfrwt>
<pdfrwt beam="2">  1       -2 0.15506122E-01 0.47254472E+02</pdfrwt>
<totfact> 0.40418400E+05</totfact>
</mgrwt>
</event>
<event>
 4    1  0.3704929E-001  0.2945669E+02  0.7818608E-02  0.1604173E+00
          2   -1    0    0  501    0  0.00000000000E+00  0.00000000000E+00  0.24798275562E+01  0.24798289192E+01  0.26000000000E-02 0.  1.
         -2   -1    0    0    0  501 -0.00000000000E+00 -0.00000000000E+00 -0.87475482367E+02  0.87475482405E+02  0.26000000000E-02 0. -1.
        -13    1    1    2    0    0  0.10437911423E+02 -0.74463119534E+01 -0.20367575068E+02  0.24067547512E+02  0.10570000000E+00 0.  1.
         13    1    1    2    0    0 -0.10437911423E+02  0.74463119534E+01 -0.64628079743E+02  0.65887763813E+02  0.10570000000E+00 0. -1.
<mgrwt>
<rscale>  0 0.29456692E+02</rscale>
<asrwt>0</asrwt>
<pdfrwt beam="1">  1        2 0.38151211E-03 0.29456692E+02</pdfrwt>
<pdfrwt beam="2">  1       -2 0.13457764E-01 0.29456692E+02</pdfrwt>
<totfact> 0.12834462E+06</totfact>
</mgrwt>
</event>
<event>
 4    1  0.3704929E-001  0.3473255E+02  0.7818608E-02  0.1550989E+00
          2   -1    0    0  501    0  0.00000000000E+00  0.00000000000E+00  0.10114008376E+02  0.10114008710E+02  0.26000000000E-02 0. -1.
         -2   -1    0    0    0  501 -0.00000000000E+00 -0.00000000000E+00 -0.29818783109E+02  0.29818783222E+02  0.26000000000E-02 0.  1.
        -13    1    1    2    0    0 -0.12785931667E+02  0.18331496349E+01 -0.23197877202E+02  0.26551707390E+02  0.10570000000E+00 0.  1.
         13    1    1    2    0    0  0.12785931667E+02 -0.18331496349E+01  0.34931024687E+01  0.13381084542E+02  0.10570000000E+00 0. -1.
<mgrwt>
<rscale>  0 0.34732546E+02</rscale>
<asrwt>0</asrwt>
<pdfrwt beam="1">  1        2 0.15560013E-02 0.34732546E+02</pdfrwt>
<pdfrwt beam="2">  1       -2 0.45875051E-02 0.34732546E+02</pdfrwt>
<totfact> 0.10390898E+06</totfact>
</mgrwt>
</event>
<event>
 4    1  0.3704929E-001  0.2073049E+02  0.7818608E-02  0.1731180E+00
         -2   -1    0    0    0  501 -0.00000000000E+00  0.00000000000E+00  0.64094165185E+01  0.64094170458E+01  0.26000000000E-02 0. -1.
          2   -1    0    0  501    0  0.00000000000E+00 -0.00000000000E+00 -0.16762574443E+02  0.16762574645E+02  0.26000000000E-02 0.  1.
        -13    1    1    2    0    0  0.63175929478E+01  0.82159125487E+01 -0.53086363206E+01  0.11644998572E+02  0.10570000000E+00 0.  1.
         13    1    1    2    0    0 -0.63175929478E+01 -0.82159125487E+01 -0.50445216044E+01  0.11526993119E+02  0.10570000000E+00 0. -1.
<mgrwt>
<rscale>  0 0.20730493E+02</rscale>
<asrwt>0</asrwt>
<pdfrwt beam="2">  1        2 0.25788576E-02 0.20730493E+02</pdfrwt>
<pdfrwt beam="1">  1       -2 0.98606414E-03 0.20730493E+02</pdfrwt>
<totfact> 0.37843523E+06</totfact>
</mgrwt>
</event>
<event>
 4    1  0.3704929E-001  0.3065177E+02  0.7818608E-02  0.1590994E+00
         -2   -1    0    0    0  501 -0.00000000000E+00  0.00000000000E+00  0.13706521359E+03  0.13706521362E+03  0.26000000000E-02 0.  1.
          2   -1    0    0  501    0  0.00000000000E+00 -0.00000000000E+00 -0.17136562078E+01  0.17136581802E+01  0.26000000000E-02 0. -1.
        -13    1    1    2    0    0  0.14227868876E+02 -0.43997681125E+01  0.84051295013E+02  0.85360538763E+02  0.10570000000E+00 0. -1.
         13    1    1    2    0    0 -0.14227868876E+02  0.43997681125E+01  0.51300262371E+02  0.53418333033E+02  0.10570000000E+00 0.  1.
<mgrwt>
<rscale>  0 0.30651773E+02</rscale>
<asrwt>0</asrwt>
<pdfrwt beam="2">  1        2 0.26363956E-03 0.30651773E+02</pdfrwt>
<pdfrwt beam="1">  1       -2 0.21086957E-01 0.30651773E+02</pdfrwt>
<totfact> 0.10409210E+06</totfact>
</mgrwt>
</event>
<event>
 4    1  0.3704929E-001  0.3503473E+02  0.7818608E-02  0.1548292E+00
         -2   -1    0    0    0  501 -0.00000000000E+00  0.00000000000E+00  0.73376162121E+01  0.73376166727E+01  0.26000000000E-02 0. -1.
          2   -1    0    0  501    0  0.00000000000E+00 -0.00000000000E+00 -0.41819851619E+02  0.41819851700E+02  0.26000000000E-02 0.  1.
        -13    1    1    2    0    0 -0.73720580318E+01 -0.76590287995E+01  0.22937840736E+01  0.10875687548E+02  0.10570000000E+00 0. -1.
         13    1    1    2    0    0  0.73720580318E+01  0.76590287995E+01 -0.36776019481E+02  0.38281780825E+02  0.10570000000E+00 0.  1.
<mgrwt>
<rscale>  0 0.35034728E+02</rscale>
<asrwt>0</asrwt>
<pdfrwt beam="2">  1        2 0.64338232E-02 0.35034728E+02</pdfrwt>
<pdfrwt beam="1">  1       -2 0.11288641E-02 0.35034728E+02</pdfrwt>
<totfact> 0.12151349E+06</totfact>
</mgrwt>
</event>
<event>
 4    1  0.3704929E-001  0.3697331E+02  0.7818608E-02  0.1531744E+00
         -2   -1    0    0    0  501 -0.00000000000E+00  0.00000000000E+00  0.70822937484E+02  0.70822937532E+02  0.26000000000E-02 0.  1.
          2   -1    0    0  501    0  0.00000000000E+00 -0.00000000000E+00 -0.48255041959E+01  0.48255048963E+01  0.26000000000E-02 0. -1.
        -13    1    1    2    0    0 -0.12742048551E+02 -0.12653241365E+02  0.41982836369E+02  0.45662172970E+02  0.10570000000E+00 0. -1.
         13    1    1    2    0    0  0.12742048551E+02  0.12653241365E+02  0.24014596919E+02  0.29986269458E+02  0.10570000000E+00 0.  1.
<mgrwt>
<rscale>  0 0.36973310E+02</rscale>
<asrwt>0</asrwt>
<pdfrwt beam="2">  1        2 0.74238538E-03 0.36973310E+02</pdfrwt>
<pdfrwt beam="1">  1       -2 0.10895836E-01 0.36973310E+02</pdfrwt>
<totfact> 0.78712513E+05</totfact>
</mgrwt>
</event>
<event>
 4    1  0.3704929E-001  0.2123723E+02  0.7818608E-02  0.1721788E+00
          2   -1    0    0  501    0  0.00000000000E+00  0.00000000000E+00  0.11574013690E+02  0.11574013982E+02  0.26000000000E-02 0.  1.
         -2   -1    0    0    0  501 -0.00000000000E+00 -0.00000000000E+00 -0.97420823032E+01  0.97420826502E+01  0.26000000000E-02 0. -1.
        -13    1    1    2    0    0 -0.55353925624E+01 -0.89949744869E+01 -0.18065343316E+00  0.10563803529E+02  0.10570000000E+00 0. -1.
         13    1    1    2    0    0  0.55353925624E+01  0.89949744869E+01  0.20125848201E+01  0.10752293104E+02  0.10570000000E+00 0.  1.
<mgrwt>
<rscale>  0 0.21237232E+02</rscale>
<asrwt>0</asrwt>
<pdfrwt beam="1">  1        2 0.17806175E-02 0.21237232E+02</pdfrwt>
<pdfrwt beam="2">  1       -2 0.14987819E-02 0.21237232E+02</pdfrwt>
<totfact> 0.34760581E+06</totfact>
</mgrwt>
</event>
<event>
 4    1  0.3704929E-001  0.5943852E+02  0.7818608E-02  0.1400203E+00
         -2   -1    0    0    0  501 -0.00000000000E+00  0.00000000000E+00  0.83766690032E+01  0.83766694067E+01  0.26000000000E-02 0.  1.
          2   -1    0    0  501    0  0.00000000000E+00 -0.00000000000E+00 -0.10543981264E+03  0.10543981268E+03  0.26000000000E-02 0. -1.
        -13    1    1    2    0    0 -0.11908416818E+02  0.25370686352E+02 -0.67462673071E+02  0.73052758657E+02  0.10570000000E+00 0. -1.
         13    1    1    2    0    0  0.11908416818E+02 -0.25370686352E+02 -0.29600470570E+02  0.40763723426E+02  0.10570000000E+00 0.  1.
<mgrwt>
<rscale>  0 0.59438521E+02</rscale>
<asrwt>0</asrwt>
<pdfrwt beam="2">  1        2 0.16221509E-01 0.59438521E+02</pdfrwt>
<pdfrwt beam="1">  1       -2 0.12887184E-02 0.59438521E+02</pdfrwt>
<totfact> 0.39001560E+05</totfact>
</mgrwt>
</event>
<event>
 4    1  0.3704929E-001  0.2929498E+02  0.7818608E-02  0.1606015E+00
         -2   -1    0    0    0  501 -0.00000000000E+00  0.00000000000E+00  0.31941689272E+02  0.31941689378E+02  0.26000000000E-02 0.  1.
          2   -1    0    0  501    0  0.00000000000E+00 -0.00000000000E+00 -0.67168961374E+01  0.67168966406E+01  0.26000000000E-02 0. -1.
        -13    1    1    2    0    0  0.83328522388E+01  0.10782677079E+02  0.55261719163E+01  0.14705519371E+02  0.10570000000E+00 0. -1.
         13    1    1    2    0    0 -0.83328522388E+01 -0.10782677079E+02  0.19698621219E+02  0.23953066648E+02  0.10570000000E+00 0.  1.
<mgrwt>
<rscale>  0 0.29294984E+02</rscale>
<asrwt>0</asrwt>
<pdfrwt beam="2">  1        2 0.10333687E-02 0.29294984E+02</pdfrwt>
<pdfrwt beam="1">  1       -2 0.49141061E-02 0.29294984E+02</pdfrwt>
<totfact> 0.15251632E+06</totfact>
</mgrwt>
</event>
<event>
 4    1  0.3704929E-001  0.3500961E+02  0.7818608E-02  0.1548515E+00
         -2   -1    0    0    0  501 -0.00000000000E+00  0.00000000000E+00  0.89412073570E+01  0.89412077350E+01  0.26000000000E-02 0. -1.
          2   -1    0    0  501    0  0.00000000000E+00 -0.00000000000E+00 -0.34270335266E+02  0.34270335364E+02  0.26000000000E-02 0.  1.
        -13    1    1    2    0    0 -0.94390327520E+01 -0.13857144701E+02 -0.18871786874E+02  0.25244233220E+02  0.10570000000E+00 0.  1.
         13    1    1    2    0    0  0.94390327520E+01  0.13857144701E+02 -0.64573410341E+01  0.17967309879E+02  0.10570000000E+00 0. -1.
<mgrwt>
<rscale>  0 0.35009609E+02</rscale>
<asrwt>0</asrwt>
<pdfrwt beam="2">  1        2 0.52723592E-02 0.35009609E+02</pdfrwt>
<pdfrwt beam="1">  1       -2 0.13755704E-02 0.35009609E+02</pdfrwt>
<totfact> 0.11820686E+06</totfact>
</mgrwt>
</event>
<event>
 4    1  0.3704929E-001  0.5011387E+02  0.7818608E-02  0.1444728E+00
          2   -1    0    0  501    0  0.00000000000E+00  0.00000000000E+00  0.26097333818E+02  0.26097333948E+02  0.26000000000E-02 0.  1.
         -2   -1    0    0    0  501 -0.00000000000E+00 -0.00000000000E+00 -0.24058013312E+02  0.24058013453E+02  0.26000000000E-02 0. -1.
        -13    1    1    2    0    0 -0.18864297119E+01 -0.18755295044E+02 -0.15502156102E+02  0.24405895303E+02  0.10570000000E+00 0. -1.
         13    1    1    2    0    0  0.18864297119E+01  0.18755295044E+02  0.17541476608E+02  0.25749452097E+02  0.10570000000E+00 0.  1.
<mgrwt>
<rscale>  0 0.50113871E+02</rscale>
<asrwt>0</asrwt>
<pdfrwt beam="1">  1        2 0.40149745E-02 0.50113871E+02</pdfrwt>
<pdfrwt beam="2">  1       -2 0.37012328E-02 0.50113871E+02</pdfrwt>
<totfact> 0.45637945E+05</totfact>
</mgrwt>
</event>
<event>
 4    1  0.3704929E-001  0.2777306E+02  0.7818608E-02  0.1624095E+00
         -2   -1    0    0    0  501 -0.00000000000E+00  0.00000000000E+00  0.73483627337E+01  0.73483631937E+01  0.26000000000E-02 0. -1.
          2   -1    0    0  501    0  0.00000000000E+00 -0.00000000000E+00 -0.26241988255E+02  0.26241988384E+02  0.26000000000E-02 0.  1.
        -13    1    1    2    0    0  0.48759547332E+01  0.10364860129E+02 -0.18940807797E+02  0.22135280268E+02  0.10570000000E+00 0.  1.
         13    1    1    2    0    0 -0.48759547332E+01 -0.10364860129E+02  0.47182276071E-01  0.11455071309E+02  0.10570000000E+00 0. -1.
<mgrwt>
<rscale>  0 0.27773056E+02</rscale>
<asrwt>0</asrwt>
<pdfrwt beam="2">  1        2 0.40372290E-02 0.27773056E+02</pdfrwt>
<pdfrwt beam="1">  1       -2 0.11305174E-02 0.27773056E+02</pdfrwt>
<totfact> 0.20005867E+06</totfact>
</mgrwt>
</event>
<event>
 4    1  0.3704929E-001  0.1220349E+03  0.7818608E-02  0.1239777E+00
          2   -1    0    0  501    0  0.00000000000E+00  0.00000000000E+00  0.26329437113E+03  0.26329437115E+03  0.26000000000E-02 0. -1.
         -2   -1    0    0    0  501 -0.00000000000E+00 -0.00000000000E+00 -0.14140561857E+02  0.14140562096E+02  0.26000000000E-02 0.  1.
        -13    1    1    2    0    0 -0.41632664209E+02  0.27489898880E+02  0.44711207874E+02  0.66993108239E+02  0.10570000000E+00 0.  1.
         13    1    1    2    0    0  0.41632664209E+02 -0.27489898880E+02  0.20444260140E+03  0.21044182500E+03  0.10570000000E+00 0. -1.
<mgrwt>
<rscale>  0 0.12203492E+03</rscale>
<asrwt>0</asrwt>
<pdfrwt beam="1">  1        2 0.40506823E-01 0.12203492E+03</pdfrwt>
<pdfrwt beam="2">  1       -2 0.21754712E-02 0.12203492E+03</pdfrwt>
<totfact> 0.77387444E+04</totfact>
</mgrwt>
</event>
<event>
 4    1  0.3704929E-001  0.5137831E+02  0.7818608E-02  0.1438046E+00
         -2   -1    0    0    0  501 -0.00000000000E+00  0.00000000000E+00  0.52384275847E+02  0.52384275912E+02  0.26000000000E-02 0.  1.
          2   -1    0    0  501    0  0.00000000000E+00 -0.00000000000E+00 -0.12597914791E+02  0.12597915060E+02  0.26000000000E-02 0. -1.
        -13    1    1    2    0    0 -0.14861847071E+02  0.16114169931E+02  0.36832742406E+02  0.42862606740E+02  0.10570000000E+00 0.  1.
         13    1    1    2    0    0  0.14861847071E+02 -0.16114169931E+02  0.29536186503E+01  0.22119584231E+02  0.10570000000E+00 0. -1.
<mgrwt>
<rscale>  0 0.51378309E+02</rscale>
<asrwt>0</asrwt>
<pdfrwt beam="2">  1        2 0.19381408E-02 0.51378309E+02</pdfrwt>
<pdfrwt beam="1">  1       -2 0.80591194E-02 0.51378309E+02</pdfrwt>
<totfact> 0.37879638E+05</totfact>
</mgrwt>
</event>
<event>
 4    1  0.3704929E-001  0.4665299E+02  0.7818608E-02  0.1464279E+00
         -2   -1    0    0    0  501 -0.00000000000E+00  0.00000000000E+00  0.41026269648E+01  0.41026277886E+01  0.26000000000E-02 0.  1.
          2   -1    0    0  501    0  0.00000000000E+00 -0.00000000000E+00 -0.13262852988E+03  0.13262852990E+03  0.26000000000E-02 0. -1.
        -13    1    1    2    0    0  0.56870185794E-01  0.22874215033E+02 -0.77655615168E+02  0.80954547045E+02  0.10570000000E+00 0. -1.
         13    1    1    2    0    0 -0.56870185794E-01 -0.22874215033E+02 -0.50870287746E+02  0.55776610649E+02  0.10570000000E+00 0.  1.
<mgrwt>
<rscale>  0 0.46652993E+02</rscale>
<asrwt>0</asrwt>
<pdfrwt beam="2">  1        2 0.20404386E-01 0.46652993E+02</pdfrwt>
<pdfrwt beam="1">  1       -2 0.63117355E-03 0.46652993E+02</pdfrwt>
<totfact> 0.77017140E+05</totfact>
</mgrwt>
</event>
<event>
 4    1  0.3704929E-001  0.2618070E+02  0.7818608E-02  0.1644600E+00
         -2   -1    0    0    0  501 -0.00000000000E+00  0.00000000000E+00  0.82796161440E+02  0.82796161481E+02  0.26000000000E-02 0. -1.
          2   -1    0    0  501    0  0.00000000000E+00 -0.00000000000E+00 -0.20696265606E+01  0.20696281937E+01  0.26000000000E-02 0.  1.
        -13    1    1    2    0    0  0.12913750458E+02  0.54088066169E+00  0.33650436168E+02  0.36047476050E+02  0.10570000000E+00 0.  1.
         13    1    1    2    0    0 -0.12913750458E+02 -0.54088066169E+00  0.47076098711E+02  0.48818313624E+02  0.10570000000E+00 0. -1.
<mgrwt>
<rscale>  0 0.26180696E+02</rscale>
<asrwt>0</asrwt>
<pdfrwt beam="2">  1        2 0.31840417E-03 0.26180696E+02</pdfrwt>
<pdfrwt beam="1">  1       -2 0.12737873E-01 0.26180696E+02</pdfrwt>
<totfact> 0.17018602E+06</totfact>
</mgrwt>
</event>
<event>
 4    1  0.3704929E-001  0.4173537E+02  0.7818608E-02  0.1495816E+00
          2   -1    0    0  501    0  0.00000000000E+00  0.00000000000E+00  0.38768332105E+02  0.38768332192E+02  0.26000000000E-02 0. -1.
         -2   -1    0    0    0  501 -0.00000000000E+00 -0.00000000000E+00 -0.11232372941E+02  0.11232373242E+02  0.26000000000E-02 0.  1.
        -13    1    1    2    0    0 -0.85284173817E+01 -0.74169135211E+01  0.34783438339E+02  0.36573805714E+02  0.10570000000E+00 0. -1.
         13    1    1    2    0    0  0.85284173817E+01  0.74169135211E+01 -0.72474791748E+01  0.13426899720E+02  0.10570000000E+00 0.  1.
<mgrwt>
<rscale>  0 0.41735375E+02</rscale>
<asrwt>0</asrwt>
<pdfrwt beam="1">  1        2 0.59643588E-02 0.41735375E+02</pdfrwt>
<pdfrwt beam="2">  1       -2 0.17280574E-02 0.41735375E+02</pdfrwt>
<totfact> 0.77751082E+05</totfact>
</mgrwt>
</event>
<event>
 4    1  0.3704929E-001  0.3600244E+02  0.7818608E-02  0.1539875E+00
         -2   -1    0    0    0  501 -0.00000000000E+00  0.00000000000E+00  0.25450765710E+01  0.25450778990E+01  0.26000000000E-02 0.  1.
          2   -1    0    0  501    0  0.00000000000E+00 -0.00000000000E+00 -0.12732185409E+03  0.12732185412E+03  0.26000000000E-02 0. -1.
        -13    1    1    2    0    0 -0.74248361150E+01  0.16390903206E+02 -0.64166120025E+02  0.66641518821E+02  0.10570000000E+00 0. -1.
         13    1    1    2    0    0  0.74248361150E+01 -0.16390903206E+02 -0.60610657495E+02  0.63225413196E+02  0.10570000000E+00 0.  1.
<mgrwt>
<rscale>  0 0.36002442E+02</rscale>
<asrwt>0</asrwt>
<pdfrwt beam="2">  1        2 0.19587973E-01 0.36002442E+02</pdfrwt>
<pdfrwt beam="1">  1       -2 0.39155045E-03 0.36002442E+02</pdfrwt>
<totfact> 0.14388756E+06</totfact>
</mgrwt>
</event>
<event>
 4    1  0.3704929E-001  0.2147849E+02  0.7818608E-02  0.1717430E+00
         -2   -1    0    0    0  501 -0.00000000000E+00  0.00000000000E+00  0.33886405806E+01  0.33886415781E+01  0.26000000000E-02 0.  1.
          2   -1    0    0  501    0  0.00000000000E+00 -0.00000000000E+00 -0.34034697494E+02  0.34034697593E+02  0.26000000000E-02 0. -1.
        -13    1    1    2    0    0 -0.42679634964E+01  0.91410088084E+01 -0.89101240522E+01  0.13460127695E+02  0.10570000000E+00 0.  1.
         13    1    1    2    0    0  0.42679634964E+01 -0.91410088084E+01 -0.21735932861E+02  0.23963211476E+02  0.10570000000E+00 0. -1.
<mgrwt>
<rscale>  0 0.21478489E+02</rscale>
<asrwt>0</asrwt>
<pdfrwt beam="2">  1        2 0.52361072E-02 0.21478489E+02</pdfrwt>
<pdfrwt beam="1">  1       -2 0.52132943E-03 0.21478489E+02</pdfrwt>
<totfact> 0.37465471E+06</totfact>
</mgrwt>
</event>
<event>
 4    1  0.3704929E-001  0.3276050E+02  0.7818608E-02  0.1569437E+00
          2   -1    0    0  501    0  0.00000000000E+00  0.00000000000E+00  0.20053485090E+01  0.20053501945E+01  0.26000000000E-02 0. -1.
         -2   -1    0    0    0  501 -0.00000000000E+00 -0.00000000000E+00 -0.13379843553E+03  0.13379843555E+03  0.26000000000E-02 0.  1.
        -13    1    1    2    0    0  0.61057870439E+01  0.15181123309E+02 -0.62810284211E+02  0.64906780197E+02  0.10570000000E+00 0. -1.
         13    1    1    2    0    0 -0.61057870439E+01 -0.15181123309E+02 -0.68982802807E+02  0.70897005550E+02  0.10570000000E+00 0.  1.
<mgrwt>
<rscale>  0 0.32760501E+02</rscale>
<asrwt>0</asrwt>
<pdfrwt beam="1">  1        2 0.30851539E-03 0.32760501E+02</pdfrwt>
<pdfrwt beam="2">  1       -2 0.20584368E-01 0.32760501E+02</pdfrwt>
<totfact> 0.89773973E+05</totfact>
</mgrwt>
</event>
<event>
 4    1  0.3704929E-001  0.7497878E+02  0.7818608E-02  0.1343937E+00
         -2   -1    0    0    0  501 -0.00000000000E+00  0.00000000000E+00  0.24592939830E+02  0.24592939967E+02  0.26000000000E-02 0.  1.
          2   -1    0    0  501    0  0.00000000000E+00 -0.00000000000E+00 -0.57148687658E+02  0.57148687718E+02  0.26000000000E-02 0. -1.
        -13    1    1    2    0    0  0.38458918189E+01  0.12856886311E+02 -0.54440256349E+02  0.56069983889E+02  0.10570000000E+00 0. -1.
         13    1    1    2    0    0 -0.38458918189E+01 -0.12856886311E+02  0.21884508520E+02  0.25671643795E+02  0.10570000000E+00 0.  1.
<mgrwt>
<rscale>  0 0.74978777E+02</rscale>
<asrwt>0</asrwt>
<pdfrwt beam="2">  1        2 0.87921058E-02 0.74978777E+02</pdfrwt>
<pdfrwt beam="1">  1       -2 0.37835292E-02 0.74978777E+02</pdfrwt>
<totfact> 0.18030147E+05</totfact>
</mgrwt>
</event>
<event>
 4    1  0.3704929E-001  0.2628417E+02  0.7818608E-02  0.1643214E+00
         -2   -1    0    0    0  501 -0.00000000000E+00  0.00000000000E+00  0.42579008440E+02  0.42579008519E+02  0.26000000000E-02 0. -1.
          2   -1    0    0  501    0  0.00000000000E+00 -0.00000000000E+00 -0.40563282863E+01  0.40563291195E+01  0.26000000000E-02 0.  1.
        -13    1    1    2    0    0  0.74691989009E+01  0.93525376048E+01  0.96336503018E+01  0.15364806621E+02  0.10570000000E+00 0.  1.
         13    1    1    2    0    0 -0.74691989009E+01 -0.93525376048E+01  0.28889029852E+02  0.31270531018E+02  0.10570000000E+00 0. -1.
<mgrwt>
<rscale>  0 0.26284175E+02</rscale>
<asrwt>0</asrwt>
<pdfrwt beam="2">  1        2 0.62405055E-03 0.26284175E+02</pdfrwt>
<pdfrwt beam="1">  1       -2 0.65506170E-02 0.26284175E+02</pdfrwt>
<totfact> 0.18842998E+06</totfact>
</mgrwt>
</event>
<event>
 4    1  0.3704929E-001  0.9344794E+02  0.7818608E-02  0.1294710E+00
         -2   -1    0    0    0  501 -0.00000000000E+00  0.00000000000E+00  0.90503699940E+02  0.90503699978E+02  0.26000000000E-02 0.  1.
          2   -1    0    0  501    0  0.00000000000E+00 -0.00000000000E+00 -0.24121987932E+02  0.24121988072E+02  0.26000000000E-02 0. -1.
        -13    1    1    2    0    0  0.37366181641E+02  0.27870908677E+02  0.37088925619E+02  0.59570283338E+02  0.10570000000E+00 0.  1.
         13    1    1    2    0    0 -0.37366181641E+02 -0.27870908677E+02  0.29292786390E+02  0.55055404711E+02  0.10570000000E+00 0. -1.
<mgrwt>
<rscale>  0 0.93447936E+02</rscale>
<asrwt>0</asrwt>
<pdfrwt beam="2">  1        2 0.37110750E-02 0.93447936E+02</pdfrwt>
<pdfrwt beam="1">  1       -2 0.13923646E-01 0.93447936E+02</pdfrwt>
<totfact> 0.77315296E+04</totfact>
</mgrwt>
</event>
<event>
 4    1  0.3704929E-001  0.2566677E+02  0.7818608E-02  0.1651605E+00
         -2   -1    0    0    0  501 -0.00000000000E+00  0.00000000000E+00  0.38266084612E+02  0.38266084700E+02  0.26000000000E-02 0.  1.
          2   -1    0    0  501    0  0.00000000000E+00 -0.00000000000E+00 -0.43039622975E+01  0.43039630828E+01  0.26000000000E-02 0. -1.
        -13    1    1    2    0    0 -0.99044086639E+01  0.41870727485E+01  0.28597628134E+02  0.30552649584E+02  0.10570000000E+00 0.  1.
         13    1    1    2    0    0  0.99044086639E+01 -0.41870727485E+01  0.53644941801E+01  0.12017398199E+02  0.10570000000E+00 0. -1.
<mgrwt>
<rscale>  0 0.25666773E+02</rscale>
<asrwt>0</asrwt>
<pdfrwt beam="2">  1        2 0.66214814E-03 0.25666773E+02</pdfrwt>
<pdfrwt beam="1">  1       -2 0.58870898E-02 0.25666773E+02</pdfrwt>
<totfact> 0.20158825E+06</totfact>
</mgrwt>
</event>
<event>
 4    1  0.3704929E-001  0.2689625E+02  0.7818608E-02  0.1635170E+00
         -2   -1    0    0    0  501 -0.00000000000E+00  0.00000000000E+00  0.26190844043E+01  0.26190856948E+01  0.26000000000E-02 0.  1.
          2   -1    0    0  501    0  0.00000000000E+00 -0.00000000000E+00 -0.69051625593E+02  0.69051625642E+02  0.26000000000E-02 0. -1.
        -13    1    1    2    0    0 -0.12633190025E+01 -0.12295302997E+02 -0.47334321043E+02  0.48921565508E+02  0.10570000000E+00 0. -1.
         13    1    1    2    0    0  0.12633190025E+01  0.12295302997E+02 -0.19098220146E+02  0.22749145829E+02  0.10570000000E+00 0.  1.
<mgrwt>
<rscale>  0 0.26896251E+02</rscale>
<asrwt>0</asrwt>
<pdfrwt beam="2">  1        2 0.10623326E-01 0.26896251E+02</pdfrwt>
<pdfrwt beam="1">  1       -2 0.40293622E-03 0.26896251E+02</pdfrwt>
<totfact> 0.24912212E+06</totfact>
</mgrwt>
</event>
<event>
 4    1  0.3704929E-001  0.3085658E+02  0.7818608E-02  0.1588809E+00
          2   -1    0    0  501    0  0.00000000000E+00  0.00000000000E+00  0.85815281151E+02  0.85815281190E+02  0.26000000000E-02 0.  1.
         -2   -1    0    0    0  501 -0.00000000000E+00 -0.00000000000E+00 -0.27737720158E+01  0.27737732343E+01  0.26000000000E-02 0. -1.
        -13    1    1    2    0    0 -0.86056768131E+01 -0.99304248099E+01  0.18311842575E+02  0.22538983147E+02  0.10570000000E+00 0. -1.
         13    1    1    2    0    0  0.86056768131E+01  0.99304248099E+01  0.64729666560E+02  0.66050071278E+02  0.10570000000E+00 0.  1.
<mgrwt>
<rscale>  0 0.30856577E+02</rscale>
<asrwt>0</asrwt>
<pdfrwt beam="1">  1        2 0.13202350E-01 0.30856577E+02</pdfrwt>
<pdfrwt beam="2">  1       -2 0.42673428E-03 0.30856577E+02</pdfrwt>
<totfact> 0.18866219E+06</totfact>
</mgrwt>
</event>
<event>
 4    1  0.3704929E-001  0.4723505E+02  0.7818608E-02  0.1460852E+00
          2   -1    0    0  501    0  0.00000000000E+00  0.00000000000E+00  0.15035893550E+02  0.15035893775E+02  0.26000000000E-02 0.  1.
         -2   -1    0    0    0  501 -0.00000000000E+00 -0.00000000000E+00 -0.37097054835E+02  0.37097054926E+02  0.26000000000E-02 0. -1.
        -13    1    1    2    0    0  0.21063784239E+02  0.38408718074E+00 -0.22811979908E+02  0.31052022949E+02  0.10570000000E+00 0.  1.
         13    1    1    2    0    0 -0.21063784239E+02 -0.38408718074E+00  0.75081862359E+00  0.21080925751E+02  0.10570000000E+00 0. -1.
<mgrwt>
<rscale>  0 0.47235045E+02</rscale>
<asrwt>0</asrwt>
<pdfrwt beam="1">  1        2 0.23132144E-02 0.47235045E+02</pdfrwt>
<pdfrwt beam="2">  1       -2 0.57072392E-02 0.47235045E+02</pdfrwt>
<totfact> 0.49036044E+05</totfact>
</mgrwt>
</event>
<event>
 4    1  0.3704929E-001  0.2157720E+02  0.7818608E-02  0.1715668E+00
          2   -1    0    0  501    0  0.00000000000E+00  0.00000000000E+00  0.25762109242E+02  0.25762109373E+02  0.26000000000E-02 0.  1.
         -2   -1    0    0    0  501 -0.00000000000E+00 -0.00000000000E+00 -0.45180256437E+01  0.45180263918E+01  0.26000000000E-02 0. -1.
        -13    1    1    2    0    0 -0.61755795447E+01  0.80707188266E+01  0.55411725949E+01  0.11575407177E+02  0.10570000000E+00 0. -1.
         13    1    1    2    0    0  0.61755795447E+01 -0.80707188266E+01  0.15702911003E+02  0.18704728588E+02  0.10570000000E+00 0.  1.
<mgrwt>
<rscale>  0 0.21577199E+02</rscale>
<asrwt>0</asrwt>
<pdfrwt beam="1">  1        2 0.39634014E-02 0.21577199E+02</pdfrwt>
<pdfrwt beam="2">  1       -2 0.69508095E-03 0.21577199E+02</pdfrwt>
<totfact> 0.35943899E+06</totfact>
</mgrwt>
</event>
<event>
 4    1  0.3704929E-001  0.2457943E+02  0.7818608E-02  0.1667117E+00
          2   -1    0    0  501    0  0.00000000000E+00  0.00000000000E+00  0.25174679898E+01  0.25174693324E+01  0.26000000000E-02 0.  1.
         -2   -1    0    0    0  501 -0.00000000000E+00 -0.00000000000E+00 -0.59995597003E+02  0.59995597059E+02  0.26000000000E-02 0. -1.
        -13    1    1    2    0    0 -0.65879878479E+01  0.97854563703E+01 -0.19976959670E+02  0.23200147207E+02  0.10570000000E+00 0.  1.
         13    1    1    2    0    0  0.65879878479E+01 -0.97854563703E+01 -0.37501169343E+02  0.39312919185E+02  0.10570000000E+00 0. -1.
<mgrwt>
<rscale>  0 0.24579425E+02</rscale>
<asrwt>0</asrwt>
<pdfrwt beam="1">  1        2 0.38730292E-03 0.24579425E+02</pdfrwt>
<pdfrwt beam="2">  1       -2 0.92300908E-02 0.24579425E+02</pdfrwt>
<totfact> 0.20850695E+06</totfact>
</mgrwt>
</event>
<event>
 4    1  0.3704929E-001  0.4930274E+02  0.7818608E-02  0.1449139E+00
          2   -1    0    0  501    0  0.00000000000E+00  0.00000000000E+00  0.39866403167E+02  0.39866403252E+02  0.26000000000E-02 0.  1.
         -2   -1    0    0    0  501 -0.00000000000E+00 -0.00000000000E+00 -0.15243159180E+02  0.15243159402E+02  0.26000000000E-02 0. -1.
        -13    1    1    2    0    0 -0.10137170863E+01 -0.20905268345E+02  0.26869417877E+02  0.34059281502E+02  0.10570000000E+00 0.  1.
         13    1    1    2    0    0  0.10137170863E+01  0.20905268345E+02 -0.22461738892E+01  0.21050281151E+02  0.10570000000E+00 0. -1.
<mgrwt>
<rscale>  0 0.49302736E+02</rscale>
<asrwt>0</asrwt>
<pdfrwt beam="1">  1        2 0.61332928E-02 0.49302736E+02</pdfrwt>
<pdfrwt beam="2">  1       -2 0.23451014E-02 0.49302736E+02</pdfrwt>
<totfact> 0.51050433E+05</totfact>
</mgrwt>
</event>
<event>
 4    1  0.3704929E-001  0.2396911E+02  0.7818608E-02  0.1676266E+00
         -2   -1    0    0    0  501 -0.00000000000E+00  0.00000000000E+00  0.40266457431E+01  0.40266465825E+01  0.26000000000E-02 0.  1.
          2   -1    0    0  501    0  0.00000000000E+00 -0.00000000000E+00 -0.35669785584E+02  0.35669785679E+02  0.26000000000E-02 0. -1.
        -13    1    1    2    0    0  0.10456880192E+02  0.44214248152E+01 -0.22176328518E+02  0.24913772492E+02  0.10570000000E+00 0.  1.
         13    1    1    2    0    0 -0.10456880192E+02 -0.44214248152E+01 -0.94668113230E+01  0.14782659770E+02  0.10570000000E+00 0. -1.
<mgrwt>
<rscale>  0 0.23969114E+02</rscale>
<asrwt>0</asrwt>
<pdfrwt beam="2">  1        2 0.54876592E-02 0.23969114E+02</pdfrwt>
<pdfrwt beam="1">  1       -2 0.61948406E-03 0.23969114E+02</pdfrwt>
<totfact> 0.29316957E+06</totfact>
</mgrwt>
</event>
<event>
 4    1  0.3704929E-001  0.2171595E+02  0.7818608E-02  0.1713211E+00
         -2   -1    0    0    0  501 -0.00000000000E+00  0.00000000000E+00  0.22085771599E+01  0.22085786903E+01  0.26000000000E-02 0.  1.
          2   -1    0    0  501    0  0.00000000000E+00 -0.00000000000E+00 -0.53380779264E+02  0.53380779327E+02  0.26000000000E-02 0. -1.
        -13    1    1    2    0    0 -0.90662786456E+01  0.49583530038E+01 -0.17056888738E+02  0.19943201821E+02  0.10570000000E+00 0. -1.
         13    1    1    2    0    0  0.90662786456E+01 -0.49583530038E+01 -0.34115313367E+02  0.35646156196E+02  0.10570000000E+00 0.  1.
<mgrwt>
<rscale>  0 0.21715949E+02</rscale>
<asrwt>0</asrwt>
<pdfrwt beam="2">  1        2 0.82124268E-02 0.21715949E+02</pdfrwt>
<pdfrwt beam="1">  1       -2 0.33978126E-03 0.21715949E+02</pdfrwt>
<totfact> 0.38906461E+06</totfact>
</mgrwt>
</event>
<event>
 4    1  0.3704929E-001  0.2094978E+02  0.7818608E-02  0.1727074E+00
          2   -1    0    0  501    0  0.00000000000E+00  0.00000000000E+00  0.29401525776E+02  0.29401525890E+02  0.26000000000E-02 0. -1.
         -2   -1    0    0    0  501 -0.00000000000E+00 -0.00000000000E+00 -0.37318918545E+01  0.37318927602E+01  0.26000000000E-02 0.  1.
        -13    1    1    2    0    0  0.70495693943E+01 -0.72552446752E+01  0.17130489966E+02  0.19894719473E+02  0.10570000000E+00 0. -1.
         13    1    1    2    0    0 -0.70495693943E+01  0.72552446752E+01  0.85391439550E+01  0.13238699178E+02  0.10570000000E+00 0.  1.
<mgrwt>
<rscale>  0 0.20949781E+02</rscale>
<asrwt>0</asrwt>
<pdfrwt beam="1">  1        2 0.45233117E-02 0.20949781E+02</pdfrwt>
<pdfrwt beam="2">  1       -2 0.57413729E-03 0.20949781E+02</pdfrwt>
<totfact> 0.38980499E+06</totfact>
</mgrwt>
</event>
<event>
 4    1  0.3704929E-001  0.2675025E+02  0.7818608E-02  0.1637065E+00
         -2   -1    0    0    0  501 -0.00000000000E+00  0.00000000000E+00  0.24715395475E+02  0.24715395612E+02  0.26000000000E-02 0.  1.
          2   -1    0    0  501    0  0.00000000000E+00 -0.00000000000E+00 -0.72381590598E+01  0.72381595267E+01  0.26000000000E-02 0. -1.
        -13    1    1    2    0    0 -0.67314523058E+01  0.11445261376E+02  0.10655931804E+02  0.17025466607E+02  0.10570000000E+00 0.  1.
         13    1    1    2    0    0  0.67314523058E+01 -0.11445261376E+02  0.68213046118E+01  0.14928088531E+02  0.10570000000E+00 0. -1.
<mgrwt>
<rscale>  0 0.26750250E+02</rscale>
<asrwt>0</asrwt>
<pdfrwt beam="2">  1        2 0.11135630E-02 0.26750250E+02</pdfrwt>
<pdfrwt beam="1">  1       -2 0.38023686E-02 0.26750250E+02</pdfrwt>
<totfact> 0.19276478E+06</totfact>
</mgrwt>
</event>
<event>
 4    1  0.3704929E-001  0.2065185E+02  0.7818608E-02  0.1732668E+00
         -2   -1    0    0    0  501 -0.00000000000E+00  0.00000000000E+00  0.10796839619E+01  0.10796870925E+01  0.26000000000E-02 0.  1.
          2   -1    0    0  501    0  0.00000000000E+00 -0.00000000000E+00 -0.98755321715E+02  0.98755321749E+02  0.26000000000E-02 0. -1.
        -13    1    1    2    0    0 -0.14131820988E+01  0.10205163846E+02 -0.52155743888E+02  0.53163664714E+02  0.10570000000E+00 0. -1.
         13    1    1    2    0    0  0.14131820988E+01 -0.10205163846E+02 -0.45519893864E+02  0.46671344128E+02  0.10570000000E+00 0.  1.
<mgrwt>
<rscale>  0 0.20651847E+02</rscale>
<asrwt>0</asrwt>
<pdfrwt beam="2">  1        2 0.15193120E-01 0.20651847E+02</pdfrwt>
<pdfrwt beam="1">  1       -2 0.16610555E-03 0.20651847E+02</pdfrwt>
<totfact> 0.49003561E+06</totfact>
</mgrwt>
</event>
<event>
 4    1  0.3704929E-001  0.4202222E+02  0.7818608E-02  0.1493836E+00
         -2   -1    0    0    0  501 -0.00000000000E+00  0.00000000000E+00  0.45208043214E+02  0.45208043289E+02  0.26000000000E-02 0. -1.
          2   -1    0    0  501    0  0.00000000000E+00 -0.00000000000E+00 -0.97652249499E+01  0.97652252961E+01  0.26000000000E-02 0.  1.
        -13    1    1    2    0    0  0.20847632083E+02  0.22608351613E+01  0.16005521873E+02  0.26380353334E+02  0.10570000000E+00 0. -1.
         13    1    1    2    0    0 -0.20847632083E+02 -0.22608351613E+01  0.19437296391E+02  0.28592915252E+02  0.10570000000E+00 0.  1.
<mgrwt>
<rscale>  0 0.42022219E+02</rscale>
<asrwt>0</asrwt>
<pdfrwt beam="2">  1        2 0.15023423E-02 0.42022219E+02</pdfrwt>
<pdfrwt beam="1">  1       -2 0.69550837E-02 0.42022219E+02</pdfrwt>
<totfact> 0.62763224E+05</totfact>
</mgrwt>
</event>
<event>
 4    1  0.3704929E-001  0.3102854E+02  0.7818608E-02  0.1586990E+00
          2   -1    0    0  501    0  0.00000000000E+00  0.00000000000E+00  0.54744378163E+02  0.54744378225E+02  0.26000000000E-02 0. -1.
         -2   -1    0    0    0  501 -0.00000000000E+00 -0.00000000000E+00 -0.43966615308E+01  0.43966622995E+01  0.26000000000E-02 0.  1.
        -13    1    1    2    0    0  0.10714226149E+02 -0.86463300783E+01  0.11545117286E+02  0.17968154369E+02  0.10570000000E+00 0.  1.
         13    1    1    2    0    0 -0.10714226149E+02  0.86463300783E+01  0.38802599347E+02  0.41172886155E+02  0.10570000000E+00 0. -1.
<mgrwt>
<rscale>  0 0.31028537E+02</rscale>
<asrwt>0</asrwt>
<pdfrwt beam="1">  1        2 0.84222121E-02 0.31028537E+02</pdfrwt>
<pdfrwt beam="2">  1       -2 0.67640953E-03 0.31028537E+02</pdfrwt>
<totfact> 0.17034387E+06</totfact>
</mgrwt>
</event>
<event>
 4    1  0.3704929E-001  0.3308018E+02  0.7818608E-02  0.1566341E+00
          2   -1    0    0  501    0  0.00000000000E+00  0.00000000000E+00  0.21259817532E+02  0.21259817691E+02  0.26000000000E-02 0.  1.
         -2   -1    0    0    0  501 -0.00000000000E+00 -0.00000000000E+00 -0.12868152378E+02  0.12868152641E+02  0.26000000000E-02 0. -1.
        -13    1    1    2    0    0  0.12056970478E+02 -0.10614756625E+02  0.13153209892E+00  0.16064621642E+02  0.10570000000E+00 0.  1.
         13    1    1    2    0    0 -0.12056970478E+02  0.10614756625E+02  0.82601330547E+01  0.18063348689E+02  0.10570000000E+00 0. -1.
<mgrwt>
<rscale>  0 0.33080180E+02</rscale>
<asrwt>0</asrwt>
<pdfrwt beam="1">  1        2 0.32707412E-02 0.33080180E+02</pdfrwt>
<pdfrwt beam="2">  1       -2 0.19797158E-02 0.33080180E+02</pdfrwt>
<totfact> 0.12790301E+06</totfact>
</mgrwt>
</event>
<event>
 4    1  0.3704929E-001  0.3358140E+02  0.7818608E-02  0.1561571E+00
         -2   -1    0    0    0  501 -0.00000000000E+00  0.00000000000E+00  0.48380203717E+01  0.48380210703E+01  0.26000000000E-02 0.  1.
          2   -1    0    0  501    0  0.00000000000E+00 -0.00000000000E+00 -0.58273320243E+02  0.58273320301E+02  0.26000000000E-02 0. -1.
        -13    1    1    2    0    0  0.12245341132E+02 -0.11475747766E+02 -0.27703542128E+02  0.32390408845E+02  0.10570000000E+00 0.  1.
         13    1    1    2    0    0 -0.12245341132E+02  0.11475747766E+02 -0.25731757743E+02  0.30720932526E+02  0.10570000000E+00 0. -1.
<mgrwt>
<rscale>  0 0.33581396E+02</rscale>
<asrwt>0</asrwt>
<pdfrwt beam="2">  1        2 0.89651258E-02 0.33581396E+02</pdfrwt>
<pdfrwt beam="1">  1       -2 0.74431092E-03 0.33581396E+02</pdfrwt>
<totfact> 0.14242417E+06</totfact>
</mgrwt>
</event>
<event>
 4    1  0.3704929E-001  0.2062025E+02  0.7818608E-02  0.1733268E+00
         -2   -1    0    0    0  501 -0.00000000000E+00  0.00000000000E+00  0.72872261608E+01  0.72872266246E+01  0.26000000000E-02 0. -1.
          2   -1    0    0  501    0  0.00000000000E+00 -0.00000000000E+00 -0.14586986486E+02  0.14586986718E+02  0.26000000000E-02 0.  1.
        -13    1    1    2    0    0 -0.80808740641E+01  0.59135523181E+01 -0.10477793385E+01  0.10068745736E+02  0.10570000000E+00 0. -1.
         13    1    1    2    0    0  0.80808740641E+01 -0.59135523181E+01 -0.62519809865E+01  0.11805467606E+02  0.10570000000E+00 0.  1.
<mgrwt>
<rscale>  0 0.20620250E+02</rscale>
<asrwt>0</asrwt>
<pdfrwt beam="2">  1        2 0.22441518E-02 0.20620250E+02</pdfrwt>
<pdfrwt beam="1">  1       -2 0.11211118E-02 0.20620250E+02</pdfrwt>
<totfact> 0.37874673E+06</totfact>
</mgrwt>
</event>
<event>
 4    1  0.3704929E-001  0.2230097E+02  0.7818608E-02  0.1703098E+00
          2   -1    0    0  501    0  0.00000000000E+00  0.00000000000E+00  0.22829941628E+01  0.22829956433E+01  0.26000000000E-02 0. -1.
         -2   -1    0    0    0  501 -0.00000000000E+00 -0.00000000000E+00 -0.54460614342E+02  0.54460614404E+02  0.26000000000E-02 0.  1.
        -13    1    1    2    0    0  0.10704438681E+02  0.38238837774E+00 -0.33968753065E+02  0.35617672378E+02  0.10570000000E+00 0. -1.
         13    1    1    2    0    0 -0.10704438681E+02 -0.38238837774E+00 -0.18208867114E+02  0.21125937669E+02  0.10570000000E+00 0.  1.
<mgrwt>
<rscale>  0 0.22300969E+02</rscale>
<asrwt>0</asrwt>
<pdfrwt beam="1">  1        2 0.35123003E-03 0.22300969E+02</pdfrwt>
<pdfrwt beam="2">  1       -2 0.83785552E-02 0.22300969E+02</pdfrwt>
<totfact> 0.26325110E+06</totfact>
</mgrwt>
</event>
<event>
 4    1  0.3704929E-001  0.2498817E+02  0.7818608E-02  0.1661172E+00
         -2   -1    0    0    0  501 -0.00000000000E+00  0.00000000000E+00  0.14470798869E+01  0.14470822226E+01  0.26000000000E-02 0. -1.
          2   -1    0    0  501    0  0.00000000000E+00 -0.00000000000E+00 -0.10787380263E+03  0.10787380266E+03  0.26000000000E-02 0.  1.
        -13    1    1    2    0    0  0.78459645801E+01  0.93479898045E+01 -0.64909092283E+02  0.66046540463E+02  0.10570000000E+00 0.  1.
         13    1    1    2    0    0 -0.78459645801E+01 -0.93479898045E+01 -0.41517630458E+02  0.43274344419E+02  0.10570000000E+00 0. -1.
<mgrwt>
<rscale>  0 0.24988168E+02</rscale>
<asrwt>0</asrwt>
<pdfrwt beam="2">  1        2 0.16595964E-01 0.24988168E+02</pdfrwt>
<pdfrwt beam="1">  1       -2 0.22262794E-03 0.24988168E+02</pdfrwt>
<totfact> 0.32550979E+06</totfact>
</mgrwt>
</event>
<event>
 4    1  0.3704929E-001  0.2134132E+02  0.7818608E-02  0.1719899E+00
          2   -1    0    0  501    0  0.00000000000E+00  0.00000000000E+00  0.44583134711E+01  0.44583142292E+01  0.26000000000E-02 0.  1.
         -2   -1    0    0    0  501 -0.00000000000E+00 -0.00000000000E+00 -0.25539476934E+02  0.25539477067E+02  0.26000000000E-02 0. -1.
        -13    1    1    2    0    0 -0.33283365465E+01  0.10117103573E+02 -0.11449601863E+02  0.15637716079E+02  0.10570000000E+00 0.  1.
         13    1    1    2    0    0  0.33283365465E+01 -0.10117103573E+02 -0.96315616006E+01  0.14360075217E+02  0.10570000000E+00 0. -1.
<mgrwt>
<rscale>  0 0.21341322E+02</rscale>
<asrwt>0</asrwt>
<pdfrwt beam="1">  1        2 0.68589446E-03 0.21341322E+02</pdfrwt>
<pdfrwt beam="2">  1       -2 0.39291503E-02 0.21341322E+02</pdfrwt>
<totfact> 0.31782512E+06</totfact>
</mgrwt>
</event>
<event>
 4    1  0.3704929E-001  0.2467881E+02  0.7818608E-02  0.1665659E+00
         -2   -1    0    0    0  501 -0.00000000000E+00  0.00000000000E+00  0.34920836786E+02  0.34920836883E+02  0.26000000000E-02 0. -1.
          2   -1    0    0  501    0  0.00000000000E+00 -0.00000000000E+00 -0.43601728714E+01  0.43601736466E+01  0.26000000000E-02 0.  1.
        -13    1    1    2    0    0 -0.61635845907E+01  0.10623659074E+02  0.13398484121E+02  0.18176425841E+02  0.10570000000E+00 0. -1.
         13    1    1    2    0    0  0.61635845907E+01 -0.10623659074E+02  0.17162179794E+02  0.21104584689E+02  0.10570000000E+00 0.  1.
<mgrwt>
<rscale>  0 0.24678809E+02</rscale>
<asrwt>0</asrwt>
<pdfrwt beam="2">  1        2 0.67079590E-03 0.24678809E+02</pdfrwt>
<pdfrwt beam="1">  1       -2 0.53724365E-02 0.24678809E+02</pdfrwt>
<totfact> 0.22267583E+06</totfact>
</mgrwt>
</event>
<event>
 4    1  0.3704929E-001  0.2200074E+02  0.7818608E-02  0.1708239E+00
          2   -1    0    0  501    0  0.00000000000E+00  0.00000000000E+00  0.12342210853E+01  0.12342238238E+01  0.26000000000E-02 0.  1.
         -2   -1    0    0    0  501 -0.00000000000E+00 -0.00000000000E+00 -0.98043990879E+02  0.98043990913E+02  0.26000000000E-02 0. -1.
        -13    1    1    2    0    0 -0.10828395999E+02 -0.13324742912E+01 -0.54734096997E+02  0.55810950486E+02  0.10570000000E+00 0. -1.
         13    1    1    2    0    0  0.10828395999E+02  0.13324742912E+01 -0.42075672797E+02  0.43467264251E+02  0.10570000000E+00 0.  1.
<mgrwt>
<rscale>  0 0.22000736E+02</rscale>
<asrwt>0</asrwt>
<pdfrwt beam="1">  1        2 0.18988046E-03 0.22000736E+02</pdfrwt>
<pdfrwt beam="2">  1       -2 0.15083685E-01 0.22000736E+02</pdfrwt>
<totfact> 0.24222237E+06</totfact>
</mgrwt>
</event>
<event>
 4    1  0.3704929E-001  0.7461611E+02  0.7818608E-02  0.1345064E+00
          2   -1    0    0  501    0  0.00000000000E+00  0.00000000000E+00  0.13194007833E+03  0.13194007836E+03  0.26000000000E-02 0. -1.
         -2   -1    0    0    0  501 -0.00000000000E+00 -0.00000000000E+00 -0.10549415894E+02  0.10549416215E+02  0.26000000000E-02 0.  1.
        -13    1    1    2    0    0  0.13753038661E+02 -0.30513008691E+02  0.92171869929E+02  0.98060463748E+02  0.10570000000E+00 0. -1.
         13    1    1    2    0    0 -0.13753038661E+02  0.30513008691E+02  0.29218792507E+02  0.44429030823E+02  0.10570000000E+00 0.  1.
<mgrwt>
<rscale>  0 0.74616105E+02</rscale>
<asrwt>0</asrwt>
<pdfrwt beam="1">  1        2 0.20298473E-01 0.74616105E+02</pdfrwt>
<pdfrwt beam="2">  1       -2 0.16229871E-02 0.74616105E+02</pdfrwt>
<totfact> 0.22956792E+05</totfact>
</mgrwt>
</event>
<event>
 4    1  0.3704929E-001  0.2310053E+02  0.7818608E-02  0.1689886E+00
         -2   -1    0    0    0  501 -0.00000000000E+00  0.00000000000E+00  0.13058447761E+02  0.13058448019E+02  0.26000000000E-02 0. -1.
          2   -1    0    0  501    0  0.00000000000E+00 -0.00000000000E+00 -0.10216270133E+02  0.10216270464E+02  0.26000000000E-02 0.  1.
        -13    1    1    2    0    0  0.34519894750E+01  0.10848521287E+02  0.33827724899E+01  0.11876909011E+02  0.10570000000E+00 0.  1.
         13    1    1    2    0    0 -0.34519894750E+01 -0.10848521287E+02 -0.54059486196E+00  0.11397809472E+02  0.10570000000E+00 0. -1.
<mgrwt>
<rscale>  0 0.23100531E+02</rscale>
<asrwt>0</asrwt>
<pdfrwt beam="2">  1        2 0.15717339E-02 0.23100531E+02</pdfrwt>
<pdfrwt beam="1">  1       -2 0.20089920E-02 0.23100531E+02</pdfrwt>
<totfact> 0.28294442E+06</totfact>
</mgrwt>
</event>
<event>
 4    1  0.3704929E-001  0.2475917E+02  0.7818608E-02  0.1664485E+00
         -2   -1    0    0    0  501 -0.00000000000E+00  0.00000000000E+00  0.49238963921E+02  0.49238963990E+02  0.26000000000E-02 0. -1.
          2   -1    0    0  501    0  0.00000000000E+00 -0.00000000000E+00 -0.31124565049E+01  0.31124575908E+01  0.26000000000E-02 0.  1.
        -13    1    1    2    0    0  0.10326004895E+02 -0.82187802016E+00  0.87317030823E+01  0.13548271911E+02  0.10570000000E+00 0.  1.
         13    1    1    2    0    0 -0.10326004895E+02  0.82187802016E+00  0.37394804334E+02  0.38803149669E+02  0.10570000000E+00 0. -1.
<mgrwt>
<rscale>  0 0.24759173E+02</rscale>
<asrwt>0</asrwt>
<pdfrwt beam="2">  1        2 0.47883958E-03 0.24759173E+02</pdfrwt>
<pdfrwt beam="1">  1       -2 0.75752249E-02 0.24759173E+02</pdfrwt>
<totfact> 0.21144881E+06</totfact>
</mgrwt>
</event>
<event>
 4    1  0.3704929E-001  0.3622056E+02  0.7818608E-02  0.1538021E+00
          2   -1    0    0  501    0  0.00000000000E+00  0.00000000000E+00  0.10810483635E+02  0.10810483948E+02  0.26000000000E-02 0. -1.
         -2   -1    0    0    0  501 -0.00000000000E+00 -0.00000000000E+00 -0.30339280481E+02  0.30339280593E+02  0.26000000000E-02 0.  1.
        -13    1    1    2    0    0 -0.27771323123E+00 -0.16968021438E+02 -0.25809176492E+01  0.17165756161E+02  0.10570000000E+00 0. -1.
         13    1    1    2    0    0  0.27771323123E+00  0.16968021438E+02 -0.16947879197E+02  0.23984008380E+02  0.10570000000E+00 0.  1.
<mgrwt>
<rscale>  0 0.36220563E+02</rscale>
<asrwt>0</asrwt>
<pdfrwt beam="1">  1        2 0.16631514E-02 0.36220563E+02</pdfrwt>
<pdfrwt beam="2">  1       -2 0.46675816E-02 0.36220563E+02</pdfrwt>
<totfact> 0.94073306E+05</totfact>
</mgrwt>
</event>
<event>
 4    1  0.3704929E-001  0.2675568E+02  0.7818608E-02  0.1636994E+00
          2   -1    0    0  501    0  0.00000000000E+00  0.00000000000E+00  0.57492212882E+02  0.57492212941E+02  0.26000000000E-02 0.  1.
         -2   -1    0    0    0  501 -0.00000000000E+00 -0.00000000000E+00 -0.31128832276E+01  0.31128843134E+01  0.26000000000E-02 0. -1.
        -13    1    1    2    0    0 -0.10362311685E+02  0.63042972785E+01  0.39969846232E+02  0.41769862915E+02  0.10570000000E+00 0.  1.
         13    1    1    2    0    0  0.10362311685E+02 -0.63042972785E+01  0.14409483422E+02  0.18835234339E+02  0.10570000000E+00 0. -1.
<mgrwt>
<rscale>  0 0.26755678E+02</rscale>
<asrwt>0</asrwt>
<pdfrwt beam="1">  1        2 0.88449548E-02 0.26755678E+02</pdfrwt>
<pdfrwt beam="2">  1       -2 0.47890526E-03 0.26755678E+02</pdfrwt>
<totfact> 0.24384535E+06</totfact>
</mgrwt>
</event>
<event>
 4    1  0.3704929E-001  0.3320639E+02  0.7818608E-02  0.1565131E+00
          2   -1    0    0  501    0  0.00000000000E+00  0.00000000000E+00  0.32766248392E+01  0.32766258708E+01  0.26000000000E-02 0. -1.
         -2   -1    0    0    0  501 -0.00000000000E+00 -0.00000000000E+00 -0.84131071412E+02  0.84131071452E+02  0.26000000000E-02 0.  1.
        -13    1    1    2    0    0  0.69377651512E+01 -0.14843325435E+02 -0.47489294798E+02  0.50236452782E+02  0.10570000000E+00 0.  1.
         13    1    1    2    0    0 -0.69377651512E+01  0.14843325435E+02 -0.33365151775E+02  0.37171244540E+02  0.10570000000E+00 0. -1.
<mgrwt>
<rscale>  0 0.33206385E+02</rscale>
<asrwt>0</asrwt>
<pdfrwt beam="1">  1        2 0.50409627E-03 0.33206385E+02</pdfrwt>
<pdfrwt beam="2">  1       -2 0.12943240E-01 0.33206385E+02</pdfrwt>
<totfact> 0.97911028E+05</totfact>
</mgrwt>
</event>
<event>
 4    1  0.3704929E-001  0.2389029E+02  0.7818608E-02  0.1677472E+00
         -2   -1    0    0    0  501 -0.00000000000E+00  0.00000000000E+00  0.79415060970E+01  0.79415065227E+01  0.26000000000E-02 0. -1.
          2   -1    0    0  501    0  0.00000000000E+00 -0.00000000000E+00 -0.17967175482E+02  0.17967175670E+02  0.26000000000E-02 0.  1.
        -13    1    1    2    0    0 -0.10419085439E+02  0.51357168826E+01 -0.80304236997E+01  0.14122032664E+02  0.10570000000E+00 0.  1.
         13    1    1    2    0    0  0.10419085439E+02 -0.51357168826E+01 -0.19952456855E+01  0.11786649529E+02  0.10570000000E+00 0. -1.
<mgrwt>
<rscale>  0 0.23890286E+02</rscale>
<asrwt>0</asrwt>
<pdfrwt beam="2">  1        2 0.27641809E-02 0.23890286E+02</pdfrwt>
<pdfrwt beam="1">  1       -2 0.12217702E-02 0.23890286E+02</pdfrwt>
<totfact> 0.27449558E+06</totfact>
</mgrwt>
</event>
<event>
 4    1  0.3704929E-001  0.5480210E+02  0.7818608E-02  0.1421037E+00
          2   -1    0    0  501    0  0.00000000000E+00  0.00000000000E+00  0.25013247474E+02  0.25013247609E+02  0.26000000000E-02 0.  1.
         -2   -1    0    0    0  501 -0.00000000000E+00 -0.00000000000E+00 -0.30016795940E+02  0.30016796053E+02  0.26000000000E-02 0. -1.
        -13    1    1    2    0    0 -0.16148870720E+02  0.19608359529E+02  0.78138604341E+01  0.26577083669E+02  0.10570000000E+00 0. -1.
         13    1    1    2    0    0  0.16148870720E+02 -0.19608359529E+02 -0.12817408900E+02  0.28452959993E+02  0.10570000000E+00 0.  1.
<mgrwt>
<rscale>  0 0.54802100E+02</rscale>
<asrwt>0</asrwt>
<pdfrwt beam="1">  1        2 0.38481920E-02 0.54802100E+02</pdfrwt>
<pdfrwt beam="2">  1       -2 0.46179686E-02 0.54802100E+02</pdfrwt>
<totfact> 0.35728305E+05</totfact>
</mgrwt>
</event>
<event>
 4    1  0.3704929E-001  0.2410302E+02  0.7818608E-02  0.1674230E+00
          2   -1    0    0  501    0  0.00000000000E+00  0.00000000000E+00  0.16113178120E+01  0.16113199097E+01  0.26000000000E-02 0.  1.
         -2   -1    0    0    0  501 -0.00000000000E+00 -0.00000000000E+00 -0.90136682938E+02  0.90136682975E+02  0.26000000000E-02 0. -1.
        -13    1    1    2    0    0  0.63519628318E+01 -0.98344384288E+01 -0.33386392888E+02  0.35379740157E+02  0.10570000000E+00 0.  1.
         13    1    1    2    0    0 -0.63519628318E+01  0.98344384288E+01 -0.55138972238E+02  0.56368262728E+02  0.10570000000E+00 0. -1.
<mgrwt>
<rscale>  0 0.24103024E+02</rscale>
<asrwt>0</asrwt>
<pdfrwt beam="1">  1        2 0.24789528E-03 0.24103024E+02</pdfrwt>
<pdfrwt beam="2">  1       -2 0.13867178E-01 0.24103024E+02</pdfrwt>
<totfact> 0.20146444E+06</totfact>
</mgrwt>
</event>
<event>
 4    1  0.3704929E-001  0.4921313E+02  0.7818608E-02  0.1449632E+00
         -2   -1    0    0    0  501 -0.00000000000E+00  0.00000000000E+00  0.13427598199E+02  0.13427598450E+02  0.26000000000E-02 0. -1.
          2   -1    0    0  501    0  0.00000000000E+00 -0.00000000000E+00 -0.45092430623E+02  0.45092430698E+02  0.26000000000E-02 0.  1.
        -13    1    1    2    0    0 -0.91347564829E+01  0.92613181673E+01 -0.40669139175E+02  0.42699014555E+02  0.10570000000E+00 0.  1.
         13    1    1    2    0    0  0.91347564829E+01 -0.92613181673E+01  0.90043067513E+01  0.15821014593E+02  0.10570000000E+00 0. -1.
<mgrwt>
<rscale>  0 0.49213130E+02</rscale>
<asrwt>0</asrwt>
<pdfrwt beam="2">  1        2 0.69372970E-02 0.49213130E+02</pdfrwt>
<pdfrwt beam="1">  1       -2 0.20657844E-02 0.49213130E+02</pdfrwt>
<totfact> 0.52421368E+05</totfact>
</mgrwt>
</event>
<event>
 4    1  0.3704929E-001  0.3690524E+02  0.7818608E-02  0.1532304E+00
          2   -1    0    0  501    0  0.00000000000E+00  0.00000000000E+00  0.16105370438E+02  0.16105370648E+02  0.26000000000E-02 0.  1.
         -2   -1    0    0    0  501 -0.00000000000E+00 -0.00000000000E+00 -0.21141965207E+02  0.21141965367E+02  0.26000000000E-02 0. -1.
        -13    1    1    2    0    0  0.17526622090E+02 -0.52523514111E+01 -0.10482621817E+00  0.18297317789E+02  0.10570000000E+00 0.  1.
         13    1    1    2    0    0 -0.17526622090E+02  0.52523514111E+01 -0.49317685509E+01  0.18950018226E+02  0.10570000000E+00 0. -1.
<mgrwt>
<rscale>  0 0.36905240E+02</rscale>
<asrwt>0</asrwt>
<pdfrwt beam="1">  1        2 0.24777493E-02 0.36905240E+02</pdfrwt>
<pdfrwt beam="2">  1       -2 0.32526100E-02 0.36905240E+02</pdfrwt>
<totfact> 0.94176106E+05</totfact>
</mgrwt>
</event>
<event>
 4    1  0.3704929E-001  0.2429613E+02  0.7818608E-02  0.1671323E+00
         -2   -1    0    0    0  501 -0.00000000000E+00  0.00000000000E+00  0.95290489167E+01  0.95290492714E+01  0.26000000000E-02 0.  1.
          2   -1    0    0  501    0  0.00000000000E+00 -0.00000000000E+00 -0.15486909560E+02  0.15486909778E+02  0.26000000000E-02 0. -1.
        -13    1    1    2    0    0 -0.50285644655E+01  0.10030082056E+02  0.18146832286E+01  0.11366321056E+02  0.10570000000E+00 0.  1.
         13    1    1    2    0    0  0.50285644655E+01 -0.10030082056E+02 -0.77725438722E+01  0.13649637994E+02  0.10570000000E+00 0. -1.
<mgrwt>
<rscale>  0 0.24296134E+02</rscale>
<asrwt>0</asrwt>
<pdfrwt beam="2">  1        2 0.23826015E-02 0.24296134E+02</pdfrwt>
<pdfrwt beam="1">  1       -2 0.14660076E-02 0.24296134E+02</pdfrwt>
<totfact> 0.26036855E+06</totfact>
</mgrwt>
</event>
<event>
 4    1  0.3704929E-001  0.2206640E+02  0.7818608E-02  0.1707106E+00
          2   -1    0    0  501    0  0.00000000000E+00  0.00000000000E+00  0.93027581636E+01  0.93027585270E+01  0.26000000000E-02 0.  1.
         -2   -1    0    0    0  501 -0.00000000000E+00 -0.00000000000E+00 -0.13085530721E+02  0.13085530979E+02  0.26000000000E-02 0. -1.
        -13    1    1    2    0    0  0.47922578556E+01  0.97647450401E+01 -0.37633975478E+01  0.11510443721E+02  0.10570000000E+00 0. -1.
         13    1    1    2    0    0 -0.47922578556E+01 -0.97647450401E+01 -0.19375009407E-01  0.10877845786E+02  0.10570000000E+00 0.  1.
<mgrwt>
<rscale>  0 0.22066403E+02</rscale>
<asrwt>0</asrwt>
<pdfrwt beam="1">  1        2 0.14311936E-02 0.22066403E+02</pdfrwt>
<pdfrwt beam="2">  1       -2 0.20131586E-02 0.22066403E+02</pdfrwt>
<totfact> 0.31263879E+06</totfact>
</mgrwt>
</event>
<event>
 4    1  0.3704929E-001  0.2630979E+02  0.7818608E-02  0.1642872E+00
          2   -1    0    0  501    0  0.00000000000E+00  0.00000000000E+00  0.73733363452E+01  0.73733368036E+01  0.26000000000E-02 0. -1.
         -2   -1    0    0    0  501 -0.00000000000E+00 -0.00000000000E+00 -0.23469864534E+02  0.23469864678E+02  0.26000000000E-02 0.  1.
        -13    1    1    2    0    0  0.36437823566E+01  0.11590471244E+02 -0.21372370545E+01  0.12336738963E+02  0.10570000000E+00 0. -1.
         13    1    1    2    0    0 -0.36437823566E+01 -0.11590471244E+02 -0.13959291135E+02  0.18506462519E+02  0.10570000000E+00 0.  1.
<mgrwt>
<rscale>  0 0.26309786E+02</rscale>
<asrwt>0</asrwt>
<pdfrwt beam="1">  1        2 0.11343595E-02 0.26309786E+02</pdfrwt>
<pdfrwt beam="2">  1       -2 0.36107484E-02 0.26309786E+02</pdfrwt>
<totfact> 0.20115243E+06</totfact>
</mgrwt>
</event>
<event>
 4    1  0.3704929E-001  0.2549124E+02  0.7818608E-02  0.1654045E+00
         -2   -1    0    0    0  501 -0.00000000000E+00  0.00000000000E+00  0.24807801304E+01  0.24807814929E+01  0.26000000000E-02 0. -1.
          2   -1    0    0  501    0  0.00000000000E+00 -0.00000000000E+00 -0.65483723842E+02  0.65483723893E+02  0.26000000000E-02 0.  1.
        -13    1    1    2    0    0 -0.92297676228E+01  0.56731600029E+01 -0.49399984802E+02  0.50574133960E+02  0.10570000000E+00 0.  1.
         13    1    1    2    0    0  0.92297676228E+01 -0.56731600029E+01 -0.13602958909E+02  0.17390371427E+02  0.10570000000E+00 0. -1.
<mgrwt>
<rscale>  0 0.25491235E+02</rscale>
<asrwt>0</asrwt>
<pdfrwt beam="2">  1        2 0.10074418E-01 0.25491235E+02</pdfrwt>
<pdfrwt beam="1">  1       -2 0.38165864E-03 0.25491235E+02</pdfrwt>
<totfact> 0.27936773E+06</totfact>
</mgrwt>
</event>
<event>
 4    1  0.3704929E-001  0.2627617E+02  0.7818608E-02  0.1643321E+00
         -2   -1    0    0    0  501 -0.00000000000E+00  0.00000000000E+00  0.19308023193E+02  0.19308023368E+02  0.26000000000E-02 0.  1.
          2   -1    0    0  501    0  0.00000000000E+00 -0.00000000000E+00 -0.89397684889E+01  0.89397688669E+01  0.26000000000E-02 0. -1.
        -13    1    1    2    0    0  0.11279326934E+02  0.23574651981E+01 -0.15994379282E+01  0.11634011880E+02  0.10570000000E+00 0. -1.
         13    1    1    2    0    0 -0.11279326934E+02 -0.23574651981E+01  0.11967692633E+02  0.16613780355E+02  0.10570000000E+00 0.  1.
<mgrwt>
<rscale>  0 0.26276169E+02</rscale>
<asrwt>0</asrwt>
<pdfrwt beam="2">  1        2 0.13753491E-02 0.26276169E+02</pdfrwt>
<pdfrwt beam="1">  1       -2 0.29704651E-02 0.26276169E+02</pdfrwt>
<totfact> 0.20557254E+06</totfact>
</mgrwt>
</event>
<event>
 4    1  0.3704929E-001  0.3869949E+02  0.7818608E-02  0.1518006E+00
          2   -1    0    0  501    0  0.00000000000E+00  0.00000000000E+00  0.18843566017E+02  0.18843566197E+02  0.26000000000E-02 0. -1.
         -2   -1    0    0    0  501 -0.00000000000E+00 -0.00000000000E+00 -0.19869522817E+02  0.19869522987E+02  0.26000000000E-02 0.  1.
        -13    1    1    2    0    0 -0.64078294757E+01 -0.13311408398E+02 -0.13013273262E+02  0.19687821759E+02  0.10570000000E+00 0.  1.
         13    1    1    2    0    0  0.64078294757E+01  0.13311408398E+02  0.11987316463E+02  0.19025267425E+02  0.10570000000E+00 0. -1.
<mgrwt>
<rscale>  0 0.38699492E+02</rscale>
<asrwt>0</asrwt>
<pdfrwt beam="1">  1        2 0.28990102E-02 0.38699492E+02</pdfrwt>
<pdfrwt beam="2">  1       -2 0.30568497E-02 0.38699492E+02</pdfrwt>
<totfact> 0.85108103E+05</totfact>
</mgrwt>
</event>
<event>
 4    1  0.3704929E-001  0.3385616E+02  0.7818608E-02  0.1558999E+00
          2   -1    0    0  501    0  0.00000000000E+00  0.00000000000E+00  0.46577032879E+02  0.46577032951E+02  0.26000000000E-02 0. -1.
         -2   -1    0    0    0  501 -0.00000000000E+00 -0.00000000000E+00 -0.61523873576E+01  0.61523879070E+01  0.26000000000E-02 0.  1.
        -13    1    1    2    0    0 -0.12826991769E+02  0.10617254497E+02  0.15465029728E+02  0.22725231085E+02  0.10570000000E+00 0. -1.
         13    1    1    2    0    0  0.12826991769E+02 -0.10617254497E+02  0.24959615794E+02  0.30004189773E+02  0.10570000000E+00 0.  1.
<mgrwt>
<rscale>  0 0.33856164E+02</rscale>
<asrwt>0</asrwt>
<pdfrwt beam="1">  1        2 0.71656974E-02 0.33856164E+02</pdfrwt>
<pdfrwt beam="2">  1       -2 0.94652118E-03 0.33856164E+02</pdfrwt>
<totfact> 0.13435349E+06</totfact>
</mgrwt>
</event>
<event>
 4    1  0.3704929E-001  0.2572336E+02  0.7818608E-02  0.1650824E+00
         -2   -1    0    0    0  501 -0.00000000000E+00  0.00000000000E+00  0.62280005446E+01  0.62280010873E+01  0.26000000000E-02 0. -1.
          2   -1    0    0  501    0  0.00000000000E+00 -0.00000000000E+00 -0.26561147224E+02  0.26561147352E+02  0.26000000000E-02 0.  1.
        -13    1    1    2    0    0  0.88225892341E+01  0.61154559092E+01 -0.19195688671E+02  0.21993692683E+02  0.10570000000E+00 0.  1.
         13    1    1    2    0    0 -0.88225892341E+01 -0.61154559092E+01 -0.11374580086E+01  0.10795455756E+02  0.10570000000E+00 0. -1.
<mgrwt>
<rscale>  0 0.25723363E+02</rscale>
<asrwt>0</asrwt>
<pdfrwt beam="2">  1        2 0.40863303E-02 0.25723363E+02</pdfrwt>
<pdfrwt beam="1">  1       -2 0.95815400E-03 0.25723363E+02</pdfrwt>
<totfact> 0.24013469E+06</totfact>
</mgrwt>
</event>
<event>
 4    1  0.3704929E-001  0.3384106E+02  0.7818608E-02  0.1559140E+00
         -2   -1    0    0    0  501 -0.00000000000E+00  0.00000000000E+00  0.20574513258E+02  0.20574513422E+02  0.26000000000E-02 0.  1.
          2   -1    0    0  501    0  0.00000000000E+00 -0.00000000000E+00 -0.13915488586E+02  0.13915488829E+02  0.26000000000E-02 0. -1.
        -13    1    1    2    0    0 -0.12015647715E+02  0.60381998603E+00 -0.87962350559E+01  0.14903869036E+02  0.10570000000E+00 0. -1.
         13    1    1    2    0    0  0.12015647715E+02 -0.60381998603E+00  0.15455259728E+02  0.19586133215E+02  0.10570000000E+00 0.  1.
<mgrwt>
<rscale>  0 0.33841064E+02</rscale>
<asrwt>0</asrwt>
<pdfrwt beam="2">  1        2 0.21408444E-02 0.33841064E+02</pdfrwt>
<pdfrwt beam="1">  1       -2 0.31653098E-02 0.33841064E+02</pdfrwt>
<totfact> 0.11521523E+06</totfact>
</mgrwt>
</event>
<event>
 4    1  0.3704929E-001  0.2025781E+02  0.7818608E-02  0.1740249E+00
         -2   -1    0    0    0  501 -0.00000000000E+00  0.00000000000E+00  0.39330001718E+02  0.39330001803E+02  0.26000000000E-02 0. -1.
          2   -1    0    0  501    0  0.00000000000E+00 -0.00000000000E+00 -0.26085607132E+01  0.26085620090E+01  0.26000000000E-02 0.  1.
        -13    1    1    2    0    0 -0.92794349867E+01 -0.38168561443E+01  0.15501650601E+02  0.18465877947E+02  0.10570000000E+00 0. -1.
         13    1    1    2    0    0  0.92794349867E+01  0.38168561443E+01  0.21219790403E+02  0.23472685865E+02  0.10570000000E+00 0.  1.
<mgrwt>
<rscale>  0 0.20257811E+02</rscale>
<asrwt>0</asrwt>
<pdfrwt beam="2">  1        2 0.40131718E-03 0.20257811E+02</pdfrwt>
<pdfrwt beam="1">  1       -2 0.60507690E-02 0.20257811E+02</pdfrwt>
<totfact> 0.34026630E+06</totfact>
</mgrwt>
</event>
<event>
 4    1  0.3704929E-001  0.2748097E+02  0.7818608E-02  0.1627728E+00
         -2   -1    0    0    0  501 -0.00000000000E+00  0.00000000000E+00  0.44377210094E+01  0.44377217711E+01  0.26000000000E-02 0. -1.
          2   -1    0    0  501    0  0.00000000000E+00 -0.00000000000E+00 -0.42544557919E+02  0.42544557998E+02  0.26000000000E-02 0.  1.
        -13    1    1    2    0    0  0.97667719776E+01  0.83517814866E+01 -0.27367148859E+02  0.30234319871E+02  0.10570000000E+00 0.  1.
         13    1    1    2    0    0 -0.97667719776E+01 -0.83517814866E+01 -0.10739688050E+02  0.16747959898E+02  0.10570000000E+00 0. -1.
<mgrwt>
<rscale>  0 0.27480968E+02</rscale>
<asrwt>0</asrwt>
<pdfrwt beam="2">  1        2 0.65453164E-02 0.27480968E+02</pdfrwt>
<pdfrwt beam="1">  1       -2 0.68272640E-03 0.27480968E+02</pdfrwt>
<totfact> 0.21828207E+06</totfact>
</mgrwt>
</event>
<event>
 4    1  0.3704929E-001  0.5090251E+02  0.7818608E-02  0.1440534E+00
          2   -1    0    0  501    0  0.00000000000E+00  0.00000000000E+00  0.10888061026E+03  0.10888061030E+03  0.26000000000E-02 0.  1.
         -2   -1    0    0    0  501 -0.00000000000E+00 -0.00000000000E+00 -0.59493272963E+01  0.59493278645E+01  0.26000000000E-02 0. -1.
        -13    1    1    2    0    0  0.69097333103E+01  0.21528282953E+02  0.77826042885E+02  0.81043910968E+02  0.10570000000E+00 0.  1.
         13    1    1    2    0    0 -0.69097333103E+01 -0.21528282953E+02  0.25105240083E+02  0.33786027192E+02  0.10570000000E+00 0. -1.
<mgrwt>
<rscale>  0 0.50902512E+02</rscale>
<asrwt>0</asrwt>
<pdfrwt beam="1">  1        2 0.16750860E-01 0.50902512E+02</pdfrwt>
<pdfrwt beam="2">  1       -2 0.91528132E-03 0.50902512E+02</pdfrwt>
<totfact> 0.58529239E+05</totfact>
</mgrwt>
</event>
<event>
 4    1  0.3704929E-001  0.2484959E+02  0.7818608E-02  0.1663172E+00
         -2   -1    0    0    0  501 -0.00000000000E+00  0.00000000000E+00  0.45536126579E+01  0.45536134001E+01  0.26000000000E-02 0.  1.
          2   -1    0    0  501    0  0.00000000000E+00 -0.00000000000E+00 -0.33901756081E+02  0.33901756180E+02  0.26000000000E-02 0. -1.
        -13    1    1    2    0    0  0.75293403046E+01 -0.85931267796E+01 -0.71194335816E+01  0.13462180369E+02  0.10570000000E+00 0.  1.
         13    1    1    2    0    0 -0.75293403046E+01  0.85931267796E+01 -0.22228709841E+02  0.24993189212E+02  0.10570000000E+00 0. -1.
<mgrwt>
<rscale>  0 0.24849586E+02</rscale>
<asrwt>0</asrwt>
<pdfrwt beam="2">  1        2 0.52156547E-02 0.24849586E+02</pdfrwt>
<pdfrwt beam="1">  1       -2 0.70055588E-03 0.24849586E+02</pdfrwt>
<totfact> 0.26793224E+06</totfact>
</mgrwt>
</event>
<event>
 4    1  0.3704929E-001  0.2174482E+03  0.7818608E-02  0.1135800E+00
         -2   -1    0    0    0  501 -0.00000000000E+00  0.00000000000E+00  0.47571286932E+02  0.47571287003E+02  0.26000000000E-02 0.  1.
          2   -1    0    0  501    0  0.00000000000E+00 -0.00000000000E+00 -0.24848880696E+03  0.24848880697E+03  0.26000000000E-02 0. -1.
        -13    1    1    2    0    0  0.48617098510E+02 -0.94031238294E+02 -0.66682494886E+02  0.12510820253E+03  0.10570000000E+00 0.  1.
         13    1    1    2    0    0 -0.48617098510E+02  0.94031238294E+02 -0.13423502514E+03  0.17095189145E+03  0.10570000000E+00 0. -1.
<mgrwt>
<rscale>  0 0.21744822E+03</rscale>
<asrwt>0</asrwt>
<pdfrwt beam="2">  1        2 0.38229046E-01 0.21744822E+03</pdfrwt>
<pdfrwt beam="1">  1       -2 0.73186597E-02 0.21744822E+03</pdfrwt>
<totfact> 0.14220820E+04</totfact>
</mgrwt>
</event>
<event>
 4    1  0.3704929E-001  0.2148207E+02  0.7818608E-02  0.1717366E+00
         -2   -1    0    0    0  501 -0.00000000000E+00  0.00000000000E+00  0.15673966517E+01  0.15673988082E+01  0.26000000000E-02 0.  1.
          2   -1    0    0  501    0  0.00000000000E+00 -0.00000000000E+00 -0.73605972655E+02  0.73605972701E+02  0.26000000000E-02 0. -1.
        -13    1    1    2    0    0 -0.10600857403E+02  0.17036427744E+01 -0.36997161845E+02  0.38523781401E+02  0.10570000000E+00 0. -1.
         13    1    1    2    0    0  0.10600857403E+02 -0.17036427744E+01 -0.35041414158E+02  0.36649590108E+02  0.10570000000E+00 0.  1.
<mgrwt>
<rscale>  0 0.21482070E+02</rscale>
<asrwt>0</asrwt>
<pdfrwt beam="2">  1        2 0.11323993E-01 0.21482070E+02</pdfrwt>
<pdfrwt beam="1">  1       -2 0.24113817E-03 0.21482070E+02</pdfrwt>
<totfact> 0.42190930E+06</totfact>
</mgrwt>
</event>
<event>
 4    1  0.3704929E-001  0.7685888E+02  0.7818608E-02  0.1338209E+00
          2   -1    0    0  501    0  0.00000000000E+00  0.00000000000E+00  0.40037755580E+02  0.40037755664E+02  0.26000000000E-02 0. -1.
         -2   -1    0    0    0  501 -0.00000000000E+00 -0.00000000000E+00 -0.36885733159E+02  0.36885733251E+02  0.26000000000E-02 0.  1.
        -13    1    1    2    0    0 -0.17324632798E+02 -0.16249674223E+02  0.31810939414E+02  0.39700653053E+02  0.10570000000E+00 0. -1.
         13    1    1    2    0    0  0.17324632798E+02  0.16249674223E+02 -0.28658916993E+02  0.37222835863E+02  0.10570000000E+00 0.  1.
<mgrwt>
<rscale>  0 0.76858883E+02</rscale>
<asrwt>0</asrwt>
<pdfrwt beam="1">  1        2 0.61596547E-02 0.76858883E+02</pdfrwt>
<pdfrwt beam="2">  1       -2 0.56747282E-02 0.76858883E+02</pdfrwt>
<totfact> 0.15510091E+05</totfact>
</mgrwt>
</event>
<event>
 4    1  0.3704929E-001  0.2515355E+02  0.7818608E-02  0.1658806E+00
         -2   -1    0    0    0  501 -0.00000000000E+00  0.00000000000E+00  0.37419879389E+01  0.37419888422E+01  0.26000000000E-02 0. -1.
          2   -1    0    0  501    0  0.00000000000E+00 -0.00000000000E+00 -0.42270384477E+02  0.42270384557E+02  0.26000000000E-02 0.  1.
        -13    1    1    2    0    0  0.71495657142E+01 -0.87063572433E+01 -0.29489607118E+02  0.31568418504E+02  0.10570000000E+00 0.  1.
         13    1    1    2    0    0 -0.71495657142E+01  0.87063572433E+01 -0.90387894194E+01  0.14443954895E+02  0.10570000000E+00 0. -1.
<mgrwt>
<rscale>  0 0.25153552E+02</rscale>
<asrwt>0</asrwt>
<pdfrwt beam="2">  1        2 0.65031358E-02 0.25153552E+02</pdfrwt>
<pdfrwt beam="1">  1       -2 0.57569056E-03 0.25153552E+02</pdfrwt>
<totfact> 0.26825001E+06</totfact>
</mgrwt>
</event>
<event>
 4    1  0.3704929E-001  0.6317048E+02  0.7818608E-02  0.1384989E+00
          2   -1    0    0  501    0  0.00000000000E+00  0.00000000000E+00  0.51551540722E+02  0.51551540788E+02  0.26000000000E-02 0.  1.
         -2   -1    0    0    0  501 -0.00000000000E+00 -0.00000000000E+00 -0.19352035422E+02  0.19352035596E+02  0.26000000000E-02 0. -1.
        -13    1    1    2    0    0  0.14873789717E+01 -0.20716006974E+02  0.42808801514E+02  0.47581192720E+02  0.10570000000E+00 0.  1.
         13    1    1    2    0    0 -0.14873789717E+01  0.20716006974E+02 -0.10609296213E+02  0.23322383664E+02  0.10570000000E+00 0. -1.
<mgrwt>
<rscale>  0 0.63170476E+02</rscale>
<asrwt>0</asrwt>
<pdfrwt beam="1">  1        2 0.79310061E-02 0.63170476E+02</pdfrwt>
<pdfrwt beam="2">  1       -2 0.29772363E-02 0.63170476E+02</pdfrwt>
<totfact> 0.27977127E+05</totfact>
</mgrwt>
</event>
<event>
 4    1  0.3704929E-001  0.2747755E+02  0.7818608E-02  0.1627771E+00
          2   -1    0    0  501    0  0.00000000000E+00  0.00000000000E+00  0.31645014188E+02  0.31645014295E+02  0.26000000000E-02 0. -1.
         -2   -1    0    0    0  501 -0.00000000000E+00 -0.00000000000E+00 -0.59647308407E+01  0.59647314073E+01  0.26000000000E-02 0.  1.
        -13    1    1    2    0    0  0.76794587664E+01 -0.99381309438E+01  0.52190135699E+01  0.13601095865E+02  0.10570000000E+00 0.  1.
         13    1    1    2    0    0 -0.76794587664E+01  0.99381309438E+01  0.20461269777E+02  0.24008649837E+02  0.10570000000E+00 0. -1.
<mgrwt>
<rscale>  0 0.27477555E+02</rscale>
<asrwt>0</asrwt>
<pdfrwt beam="1">  1        2 0.48684638E-02 0.27477555E+02</pdfrwt>
<pdfrwt beam="2">  1       -2 0.91765095E-03 0.27477555E+02</pdfrwt>
<totfact> 0.20981575E+06</totfact>
</mgrwt>
</event>
<event>
 4    1  0.3704929E-001  0.2902582E+02  0.7818608E-02  0.1609113E+00
         -2   -1    0    0    0  501 -0.00000000000E+00  0.00000000000E+00  0.29151563942E+01  0.29151575536E+01  0.26000000000E-02 0.  1.
          2   -1    0    0  501    0  0.00000000000E+00 -0.00000000000E+00 -0.72251543140E+02  0.72251543186E+02  0.26000000000E-02 0. -1.
        -13    1    1    2    0    0 -0.10699552962E+02  0.63567202665E+01 -0.53999729277E+02  0.55415433415E+02  0.10570000000E+00 0. -1.
         13    1    1    2    0    0  0.10699552962E+02 -0.63567202665E+01 -0.15336657469E+02  0.19751267325E+02  0.10570000000E+00 0.  1.
<mgrwt>
<rscale>  0 0.29025823E+02</rscale>
<asrwt>0</asrwt>
<pdfrwt beam="2">  1        2 0.11115621E-01 0.29025823E+02</pdfrwt>
<pdfrwt beam="1">  1       -2 0.44848575E-03 0.29025823E+02</pdfrwt>
<totfact> 0.21024148E+06</totfact>
</mgrwt>
</event>
<event>
 4    1  0.3704929E-001  0.3890210E+02  0.7818608E-02  0.1516450E+00
          2   -1    0    0  501    0  0.00000000000E+00  0.00000000000E+00  0.85012343629E+02  0.85012343669E+02  0.26000000000E-02 0.  1.
         -2   -1    0    0    0  501 -0.00000000000E+00 -0.00000000000E+00 -0.44504508289E+01  0.44504515884E+01  0.26000000000E-02 0. -1.
        -13    1    1    2    0    0 -0.17272307701E+02  0.70500754227E+01  0.27623045914E+02  0.33332866886E+02  0.10570000000E+00 0.  1.
         13    1    1    2    0    0  0.17272307701E+02 -0.70500754227E+01  0.52938846886E+02  0.56129928371E+02  0.10570000000E+00 0. -1.
<mgrwt>
<rscale>  0 0.38902097E+02</rscale>
<asrwt>0</asrwt>
<pdfrwt beam="1">  1        2 0.13078823E-01 0.38902097E+02</pdfrwt>
<pdfrwt beam="2">  1       -2 0.68468479E-03 0.38902097E+02</pdfrwt>
<totfact> 0.10758841E+06</totfact>
</mgrwt>
</event>
<event>
 4    1  0.3704929E-001  0.3789998E+02  0.7818608E-02  0.1524260E+00
          2   -1    0    0  501    0  0.00000000000E+00  0.00000000000E+00  0.76465837770E+02  0.76465837814E+02  0.26000000000E-02 0.  1.
         -2   -1    0    0    0  501 -0.00000000000E+00 -0.00000000000E+00 -0.46962424913E+01  0.46962432110E+01  0.26000000000E-02 0. -1.
        -13    1    1    2    0    0  0.79306625822E+01 -0.13885582817E+02  0.57659156232E+02  0.59835560405E+02  0.10570000000E+00 0.  1.
         13    1    1    2    0    0 -0.79306625822E+01  0.13885582817E+02  0.14110439047E+02  0.21326520620E+02  0.10570000000E+00 0. -1.
<mgrwt>
<rscale>  0 0.37899981E+02</rscale>
<asrwt>0</asrwt>
<pdfrwt beam="1">  1        2 0.11763974E-01 0.37899981E+02</pdfrwt>
<pdfrwt beam="2">  1       -2 0.72249897E-03 0.37899981E+02</pdfrwt>
<totfact> 0.11201467E+06</totfact>
</mgrwt>
</event>
<event>
 4    1  0.3704929E-001  0.3765904E+02  0.7818608E-02  0.1526181E+00
         -2   -1    0    0    0  501 -0.00000000000E+00  0.00000000000E+00  0.96455780829E+01  0.96455784333E+01  0.26000000000E-02 0.  1.
          2   -1    0    0  501    0  0.00000000000E+00 -0.00000000000E+00 -0.36757859570E+02  0.36757859662E+02  0.26000000000E-02 0. -1.
        -13    1    1    2    0    0  0.98506056376E+01  0.14623281078E+02 -0.54138433052E+01  0.18444393531E+02  0.10570000000E+00 0.  1.
         13    1    1    2    0    0 -0.98506056376E+01 -0.14623281078E+02 -0.21698438182E+02  0.27959044564E+02  0.10570000000E+00 0. -1.
<mgrwt>
<rscale>  0 0.37659040E+02</rscale>
<asrwt>0</asrwt>
<pdfrwt beam="2">  1        2 0.56550553E-02 0.37659040E+02</pdfrwt>
<pdfrwt beam="1">  1       -2 0.14839351E-02 0.37659040E+02</pdfrwt>
<totfact> 0.99713923E+05</totfact>
</mgrwt>
</event>
<event>
 4    1  0.3704929E-001  0.2969084E+02  0.7818608E-02  0.1601531E+00
         -2   -1    0    0    0  501 -0.00000000000E+00  0.00000000000E+00  0.22359862261E+02  0.22359862412E+02  0.26000000000E-02 0.  1.
          2   -1    0    0  501    0  0.00000000000E+00 -0.00000000000E+00 -0.98563451262E+01  0.98563454691E+01  0.26000000000E-02 0. -1.
        -13    1    1    2    0    0 -0.14560211122E+02 -0.28689665070E+01  0.66644194727E+01  0.16268262849E+02  0.10570000000E+00 0.  1.
         13    1    1    2    0    0  0.14560211122E+02  0.28689665070E+01  0.58390976617E+01  0.15947945032E+02  0.10570000000E+00 0. -1.
<mgrwt>
<rscale>  0 0.29690842E+02</rscale>
<asrwt>0</asrwt>
<pdfrwt beam="2">  1        2 0.15163608E-02 0.29690842E+02</pdfrwt>
<pdfrwt beam="1">  1       -2 0.34399788E-02 0.29690842E+02</pdfrwt>
<totfact> 0.15383731E+06</totfact>
</mgrwt>
</event>
<event>
 4    1  0.3704929E-001  0.2605495E+02  0.7818608E-02  0.1646296E+00
          2   -1    0    0  501    0  0.00000000000E+00  0.00000000000E+00  0.29346499624E+01  0.29346511142E+01  0.26000000000E-02 0. -1.
         -2   -1    0    0    0  501 -0.00000000000E+00 -0.00000000000E+00 -0.57831446588E+02  0.57831446646E+02  0.26000000000E-02 0.  1.
        -13    1    1    2    0    0  0.16376008068E+01  0.12010955401E+02 -0.16322144585E+02  0.20331462377E+02  0.10570000000E+00 0. -1.
         13    1    1    2    0    0 -0.16376008068E+01 -0.12010955401E+02 -0.38574652041E+02  0.40434635384E+02  0.10570000000E+00 0.  1.
<mgrwt>
<rscale>  0 0.26054949E+02</rscale>
<asrwt>0</asrwt>
<pdfrwt beam="1">  1        2 0.45148474E-03 0.26054949E+02</pdfrwt>
<pdfrwt beam="2">  1       -2 0.88971449E-02 0.26054949E+02</pdfrwt>
<totfact> 0.18381652E+06</totfact>
</mgrwt>
</event>
<event>
 4    1  0.3704929E-001  0.2126500E+02  0.7818608E-02  0.1721282E+00
         -2   -1    0    0    0  501 -0.00000000000E+00  0.00000000000E+00  0.53758995076E+01  0.53759001363E+01  0.26000000000E-02 0. -1.
          2   -1    0    0  501    0  0.00000000000E+00 -0.00000000000E+00 -0.21029043707E+02  0.21029043868E+02  0.26000000000E-02 0.  1.
        -13    1    1    2    0    0 -0.83832023763E+01 -0.65254371570E+01 -0.73005628092E+01  0.12890647850E+02  0.10570000000E+00 0.  1.
         13    1    1    2    0    0  0.83832023763E+01  0.65254371570E+01 -0.83525813904E+01  0.13514296154E+02  0.10570000000E+00 0. -1.
<mgrwt>
<rscale>  0 0.21264998E+02</rscale>
<asrwt>0</asrwt>
<pdfrwt beam="2">  1        2 0.32352375E-02 0.21264998E+02</pdfrwt>
<pdfrwt beam="1">  1       -2 0.82706153E-03 0.21264998E+02</pdfrwt>
<totfact> 0.36428578E+06</totfact>
</mgrwt>
</event>
<event>
 4    1  0.3704929E-001  0.6523924E+02  0.7818608E-02  0.1377074E+00
         -2   -1    0    0    0  501 -0.00000000000E+00  0.00000000000E+00  0.14105289574E+02  0.14105289813E+02  0.26000000000E-02 0.  1.
          2   -1    0    0  501    0  0.00000000000E+00 -0.00000000000E+00 -0.75435508175E+02  0.75435508219E+02  0.26000000000E-02 0. -1.
        -13    1    1    2    0    0  0.18373544158E+01  0.29390963950E+02 -0.49920438987E+02  0.57959175584E+02  0.10570000000E+00 0. -1.
         13    1    1    2    0    0 -0.18373544158E+01 -0.29390963950E+02 -0.11409779614E+02  0.31581622449E+02  0.10570000000E+00 0.  1.
<mgrwt>
<rscale>  0 0.65239243E+02</rscale>
<asrwt>0</asrwt>
<pdfrwt beam="2">  1        2 0.11605463E-01 0.65239243E+02</pdfrwt>
<pdfrwt beam="1">  1       -2 0.21700446E-02 0.65239243E+02</pdfrwt>
<totfact> 0.28016723E+05</totfact>
</mgrwt>
</event>
<event>
 4    1  0.3704929E-001  0.7355907E+02  0.7818608E-02  0.1348392E+00
         -2   -1    0    0    0  501 -0.00000000000E+00  0.00000000000E+00  0.25666538138E+02  0.25666538269E+02  0.26000000000E-02 0.  1.
          2   -1    0    0  501    0  0.00000000000E+00 -0.00000000000E+00 -0.52704191592E+02  0.52704191656E+02  0.26000000000E-02 0. -1.
        -13    1    1    2    0    0 -0.16434083975E+02 -0.28803298474E+01 -0.48440100002E+02  0.51233093571E+02  0.10570000000E+00 0. -1.
         13    1    1    2    0    0  0.16434083975E+02  0.28803298474E+01  0.21402446548E+02  0.27137636354E+02  0.10570000000E+00 0.  1.
<mgrwt>
<rscale>  0 0.73559069E+02</rscale>
<asrwt>0</asrwt>
<pdfrwt beam="2">  1        2 0.81083372E-02 0.73559069E+02</pdfrwt>
<pdfrwt beam="1">  1       -2 0.39486982E-02 0.73559069E+02</pdfrwt>
<totfact> 0.18638921E+05</totfact>
</mgrwt>
</event>
<event>
 4    1  0.3704929E-001  0.4194242E+02  0.7818608E-02  0.1494385E+00
          2   -1    0    0  501    0  0.00000000000E+00  0.00000000000E+00  0.30404777450E+01  0.30404788567E+01  0.26000000000E-02 0. -1.
         -2   -1    0    0    0  501 -0.00000000000E+00 -0.00000000000E+00 -0.14464556501E+03  0.14464556503E+03  0.26000000000E-02 0.  1.
        -13    1    1    2    0    0 -0.18457737965E+02 -0.17633764062E+01 -0.10529967489E+03  0.10691973761E+03  0.10570000000E+00 0.  1.
         13    1    1    2    0    0  0.18457737965E+02  0.17633764062E+01 -0.36305412375E+02  0.40766306275E+02  0.10570000000E+00 0. -1.
<mgrwt>
<rscale>  0 0.41942423E+02</rscale>
<asrwt>0</asrwt>
<pdfrwt beam="1">  1        2 0.46776601E-03 0.41942423E+02</pdfrwt>
<pdfrwt beam="2">  1       -2 0.22253159E-01 0.41942423E+02</pdfrwt>
<totfact> 0.48680053E+05</totfact>
</mgrwt>
</event>
<event>
 4    1  0.3704929E-001  0.2199000E+02  0.7818608E-02  0.1708425E+00
         -2   -1    0    0    0  501 -0.00000000000E+00  0.00000000000E+00  0.14164613140E+01  0.14164637002E+01  0.26000000000E-02 0.  1.
          2   -1    0    0  501    0  0.00000000000E+00 -0.00000000000E+00 -0.85346435093E+02  0.85346435132E+02  0.26000000000E-02 0. -1.
        -13    1    1    2    0    0 -0.99619128766E+01  0.14508317209E+01 -0.24526571155E+02  0.26512421352E+02  0.10570000000E+00 0.  1.
         13    1    1    2    0    0  0.99619128766E+01 -0.14508317209E+01 -0.59403402623E+02  0.60250477480E+02  0.10570000000E+00 0. -1.
<mgrwt>
<rscale>  0 0.21990000E+02</rscale>
<asrwt>0</asrwt>
<pdfrwt beam="2">  1        2 0.13130217E-01 0.21990000E+02</pdfrwt>
<pdfrwt beam="1">  1       -2 0.21791738E-03 0.21990000E+02</pdfrwt>
<totfact> 0.41249738E+06</totfact>
</mgrwt>
</event>
<event>
 4    1  0.3704929E-001  0.2427492E+02  0.7818608E-02  0.1671640E+00
         -2   -1    0    0    0  501 -0.00000000000E+00  0.00000000000E+00  0.13306448761E+02  0.13306449015E+02  0.26000000000E-02 0.  1.
          2   -1    0    0  501    0  0.00000000000E+00 -0.00000000000E+00 -0.11071170165E+02  0.11071170470E+02  0.26000000000E-02 0. -1.
        -13    1    1    2    0    0 -0.32839048502E+01  0.11277004014E+02  0.41886713572E+01  0.12470404598E+02  0.10570000000E+00 0.  1.
         13    1    1    2    0    0  0.32839048502E+01 -0.11277004014E+02 -0.19533927616E+01  0.11907214887E+02  0.10570000000E+00 0. -1.
<mgrwt>
<rscale>  0 0.24274922E+02</rscale>
<asrwt>0</asrwt>
<pdfrwt beam="2">  1        2 0.17032570E-02 0.24274922E+02</pdfrwt>
<pdfrwt beam="1">  1       -2 0.20471460E-02 0.24274922E+02</pdfrwt>
<totfact> 0.25341020E+06</totfact>
</mgrwt>
</event>
<event>
 4    1  0.3704929E-001  0.3195932E+02  0.7818608E-02  0.1577389E+00
          2   -1    0    0  501    0  0.00000000000E+00  0.00000000000E+00  0.13588553140E+03  0.13588553143E+03  0.26000000000E-02 0.  1.
         -2   -1    0    0    0  501 -0.00000000000E+00 -0.00000000000E+00 -0.18791502966E+01  0.18791520953E+01  0.26000000000E-02 0. -1.
        -13    1    1    2    0    0 -0.13235544747E+02  0.84592264790E+01  0.54361853888E+02  0.56585868272E+02  0.10570000000E+00 0.  1.
         13    1    1    2    0    0  0.13235544747E+02 -0.84592264790E+01  0.79644527218E+02  0.81178815251E+02  0.10570000000E+00 0. -1.
<mgrwt>
<rscale>  0 0.31959316E+02</rscale>
<asrwt>0</asrwt>
<pdfrwt beam="1">  1        2 0.20905460E-01 0.31959316E+02</pdfrwt>
<pdfrwt beam="2">  1       -2 0.28910027E-03 0.31959316E+02</pdfrwt>
<totfact> 0.19480751E+06</totfact>
</mgrwt>
</event>
<event>
 4    1  0.3704929E-001  0.2652233E+02  0.7818608E-02  0.1640052E+00
          2   -1    0    0  501    0  0.00000000000E+00  0.00000000000E+00  0.22664705407E+02  0.22664705556E+02  0.26000000000E-02 0.  1.
         -2   -1    0    0    0  501 -0.00000000000E+00 -0.00000000000E+00 -0.77591327886E+01  0.77591332242E+01  0.26000000000E-02 0. -1.
        -13    1    1    2    0    0 -0.42499471591E+01  0.12246149113E+02  0.10659975274E+02  0.16783219723E+02  0.10570000000E+00 0.  1.
         13    1    1    2    0    0  0.42499471591E+01 -0.12246149113E+02  0.42455973445E+01  0.13640619057E+02  0.10570000000E+00 0. -1.
<mgrwt>
<rscale>  0 0.26522328E+02</rscale>
<asrwt>0</asrwt>
<pdfrwt beam="1">  1        2 0.34868778E-02 0.26522328E+02</pdfrwt>
<pdfrwt beam="2">  1       -2 0.11937128E-02 0.26522328E+02</pdfrwt>
<totfact> 0.21962476E+06</totfact>
</mgrwt>
</event>
<event>
 4    1  0.3704929E-001  0.2394073E+02  0.7818608E-02  0.1676700E+00
          2   -1    0    0  501    0  0.00000000000E+00  0.00000000000E+00  0.15464545252E+02  0.15464545471E+02  0.26000000000E-02 0. -1.
         -2   -1    0    0    0  501 -0.00000000000E+00 -0.00000000000E+00 -0.92656893928E+01  0.92656897576E+01  0.26000000000E-02 0.  1.
        -13    1    1    2    0    0 -0.28882921018E+01  0.11374255503E+02  0.66313644692E+00  0.11754439244E+02  0.10570000000E+00 0. -1.
         13    1    1    2    0    0  0.28882921018E+01 -0.11374255503E+02  0.55357194127E+01  0.12975795984E+02  0.10570000000E+00 0.  1.
<mgrwt>
<rscale>  0 0.23940733E+02</rscale>
<asrwt>0</asrwt>
<pdfrwt beam="1">  1        2 0.23791608E-02 0.23940733E+02</pdfrwt>
<pdfrwt beam="2">  1       -2 0.14254907E-02 0.23940733E+02</pdfrwt>
<totfact> 0.26948402E+06</totfact>
</mgrwt>
</event>
<event>
 4    1  0.3704929E-001  0.5040260E+02  0.7818608E-02  0.1443182E+00
         -2   -1    0    0    0  501 -0.00000000000E+00  0.00000000000E+00  0.67906548063E+01  0.67906553040E+01  0.26000000000E-02 0. -1.
          2   -1    0    0  501    0  0.00000000000E+00 -0.00000000000E+00 -0.93526406263E+02  0.93526406299E+02  0.26000000000E-02 0.  1.
        -13    1    1    2    0    0  0.15339928330E+02 -0.12152078517E+02 -0.11765833832E+02  0.22834895045E+02  0.10570000000E+00 0. -1.
         13    1    1    2    0    0 -0.15339928330E+02  0.12152078517E+02 -0.74969917625E+02  0.77482166559E+02  0.10570000000E+00 0.  1.
<mgrwt>
<rscale>  0 0.50402602E+02</rscale>
<asrwt>0</asrwt>
<pdfrwt beam="2">  1        2 0.14388677E-01 0.50402602E+02</pdfrwt>
<pdfrwt beam="1">  1       -2 0.10447162E-02 0.50402602E+02</pdfrwt>
<totfact> 0.57670900E+05</totfact>
</mgrwt>
</event>
<event>
 4    1  0.3704929E-001  0.6950292E+02  0.7818608E-02  0.1361792E+00
          2   -1    0    0  501    0  0.00000000000E+00  0.00000000000E+00  0.16219307687E+03  0.16219307690E+03  0.26000000000E-02 0. -1.
         -2   -1    0    0    0  501 -0.00000000000E+00 -0.00000000000E+00 -0.74458407749E+01  0.74458412289E+01  0.26000000000E-02 0.  1.
        -13    1    1    2    0    0 -0.12467404667E+02 -0.22050861194E+02  0.19307675058E+02  0.31850810777E+02  0.10570000000E+00 0. -1.
         13    1    1    2    0    0  0.12467404667E+02  0.22050861194E+02  0.13543956104E+03  0.13778810735E+03  0.10570000000E+00 0.  1.
<mgrwt>
<rscale>  0 0.69502917E+02</rscale>
<asrwt>0</asrwt>
<pdfrwt beam="1">  1        2 0.24952778E-01 0.69502917E+02</pdfrwt>
<pdfrwt beam="2">  1       -2 0.11455142E-02 0.69502917E+02</pdfrwt>
<totfact> 0.29570764E+05</totfact>
</mgrwt>
</event>
<event>
 4    1  0.3704929E-001  0.2826856E+02  0.7818608E-02  0.1618056E+00
         -2   -1    0    0    0  501 -0.00000000000E+00  0.00000000000E+00  0.46762059360E+02  0.46762059433E+02  0.26000000000E-02 0. -1.
          2   -1    0    0  501    0  0.00000000000E+00 -0.00000000000E+00 -0.42722204690E+01  0.42722212602E+01  0.26000000000E-02 0.  1.
        -13    1    1    2    0    0 -0.11506047575E+02  0.79548045645E+00  0.64957721442E+01  0.13237376938E+02  0.10570000000E+00 0.  1.
         13    1    1    2    0    0  0.11506047575E+02 -0.79548045645E+00  0.35994066747E+02  0.37796903755E+02  0.10570000000E+00 0. -1.
<mgrwt>
<rscale>  0 0.28268558E+02</rscale>
<asrwt>0</asrwt>
<pdfrwt beam="2">  1        2 0.65726474E-03 0.28268558E+02</pdfrwt>
<pdfrwt beam="1">  1       -2 0.71941632E-02 0.28268558E+02</pdfrwt>
<totfact> 0.15758781E+06</totfact>
</mgrwt>
</event>
<event>
 4    1  0.3704929E-001  0.2728872E+02  0.7818608E-02  0.1630149E+00
          2   -1    0    0  501    0  0.00000000000E+00  0.00000000000E+00  0.12633123123E+02  0.12633123391E+02  0.26000000000E-02 0.  1.
         -2   -1    0    0    0  501 -0.00000000000E+00 -0.00000000000E+00 -0.14736537462E+02  0.14736537692E+02  0.26000000000E-02 0. -1.
        -13    1    1    2    0    0 -0.12131469590E+02 -0.62345352127E+01 -0.71107826582E+00  0.13658652515E+02  0.10570000000E+00 0. -1.
         13    1    1    2    0    0  0.12131469590E+02  0.62345352127E+01 -0.13923360732E+01  0.13711008568E+02  0.10570000000E+00 0.  1.
<mgrwt>
<rscale>  0 0.27288716E+02</rscale>
<asrwt>0</asrwt>
<pdfrwt beam="1">  1        2 0.19435575E-02 0.27288716E+02</pdfrwt>
<pdfrwt beam="2">  1       -2 0.22671596E-02 0.27288716E+02</pdfrwt>
<totfact> 0.19377881E+06</totfact>
</mgrwt>
</event>
<event>
 4    1  0.3704929E-001  0.2414421E+02  0.7818608E-02  0.1673607E+00
          2   -1    0    0  501    0  0.00000000000E+00  0.00000000000E+00  0.21110730647E+02  0.21110730807E+02  0.26000000000E-02 0.  1.
         -2   -1    0    0    0  501 -0.00000000000E+00 -0.00000000000E+00 -0.69033974073E+01  0.69033978969E+01  0.26000000000E-02 0. -1.
        -13    1    1    2    0    0 -0.10443903572E+02  0.35315687785E+01  0.13984815596E+01  0.11113686293E+02  0.10570000000E+00 0. -1.
         13    1    1    2    0    0  0.10443903572E+02 -0.35315687785E+01  0.12808851680E+02  0.16900442411E+02  0.10570000000E+00 0.  1.
<mgrwt>
<rscale>  0 0.24144214E+02</rscale>
<asrwt>0</asrwt>
<pdfrwt beam="1">  1        2 0.32478048E-02 0.24144214E+02</pdfrwt>
<pdfrwt beam="2">  1       -2 0.10620612E-02 0.24144214E+02</pdfrwt>
<totfact> 0.27193746E+06</totfact>
</mgrwt>
</event>
<event>
 4    1  0.3704929E-001  0.3139011E+02  0.7818608E-02  0.1583212E+00
          2   -1    0    0  501    0  0.00000000000E+00  0.00000000000E+00  0.34498371031E+02  0.34498371129E+02  0.26000000000E-02 0.  1.
         -2   -1    0    0    0  501 -0.00000000000E+00 -0.00000000000E+00 -0.71404738064E+01  0.71404742798E+01  0.26000000000E-02 0. -1.
        -13    1    1    2    0    0 -0.12614037086E+02  0.56832031101E+01  0.23508526016E+02  0.27277732625E+02  0.10570000000E+00 0.  1.
         13    1    1    2    0    0  0.12614037086E+02 -0.56832031101E+01  0.38493712085E+01  0.14361112784E+02  0.10570000000E+00 0. -1.
<mgrwt>
<rscale>  0 0.31390108E+02</rscale>
<asrwt>0</asrwt>
<pdfrwt beam="1">  1        2 0.53074417E-02 0.31390108E+02</pdfrwt>
<pdfrwt beam="2">  1       -2 0.10985345E-02 0.31390108E+02</pdfrwt>
<totfact> 0.15433574E+06</totfact>
</mgrwt>
</event>
<event>
 4    1  0.3704929E-001  0.4898630E+02  0.7818608E-02  0.1450887E+00
          2   -1    0    0  501    0  0.00000000000E+00  0.00000000000E+00  0.71591525781E+02  0.71591525828E+02  0.26000000000E-02 0.  1.
         -2   -1    0    0    0  501 -0.00000000000E+00 -0.00000000000E+00 -0.83796857161E+01  0.83796861195E+01  0.26000000000E-02 0. -1.
        -13    1    1    2    0    0  0.66860509485E+01  0.22698335583E+02  0.21282801919E+02  0.31825878551E+02  0.10570000000E+00 0.  1.
         13    1    1    2    0    0 -0.66860509485E+01 -0.22698335583E+02  0.41929038146E+02  0.48145333397E+02  0.10570000000E+00 0. -1.
<mgrwt>
<rscale>  0 0.48986304E+02</rscale>
<asrwt>0</asrwt>
<pdfrwt beam="1">  1        2 0.11014081E-01 0.48986304E+02</pdfrwt>
<pdfrwt beam="2">  1       -2 0.12891824E-02 0.48986304E+02</pdfrwt>
<totfact> 0.58189668E+05</totfact>
</mgrwt>
</event>
<event>
 4    1  0.3704929E-001  0.5342290E+02  0.7818608E-02  0.1427708E+00
         -2   -1    0    0    0  501 -0.00000000000E+00  0.00000000000E+00  0.35219701445E+02  0.35219701541E+02  0.26000000000E-02 0.  1.
          2   -1    0    0  501    0  0.00000000000E+00 -0.00000000000E+00 -0.20258592062E+02  0.20258592229E+02  0.26000000000E-02 0. -1.
        -13    1    1    2    0    0  0.12717978511E+02  0.10376788589E+02 -0.14403069004E+02  0.21837680464E+02  0.10570000000E+00 0. -1.
         13    1    1    2    0    0 -0.12717978511E+02 -0.10376788589E+02  0.29364178386E+02  0.33640613306E+02  0.10570000000E+00 0.  1.
<mgrwt>
<rscale>  0 0.53422900E+02</rscale>
<asrwt>0</asrwt>
<pdfrwt beam="2">  1        2 0.31167065E-02 0.53422900E+02</pdfrwt>
<pdfrwt beam="1">  1       -2 0.54184156E-02 0.53422900E+02</pdfrwt>
<totfact> 0.36939401E+05</totfact>
</mgrwt>
</event>
<event>
 4    1  0.3704929E-001  0.3210858E+02  0.7818608E-02  0.1575886E+00
         -2   -1    0    0    0  501 -0.00000000000E+00  0.00000000000E+00  0.28019434705E+02  0.28019434826E+02  0.26000000000E-02 0.  1.
          2   -1    0    0  501    0  0.00000000000E+00 -0.00000000000E+00 -0.91986202055E+01  0.91986205729E+01  0.26000000000E-02 0. -1.
        -13    1    1    2    0    0 -0.12008718842E+02  0.67652266951E+01 -0.13054311971E+00  0.13784260389E+02  0.10570000000E+00 0. -1.
         13    1    1    2    0    0  0.12008718842E+02 -0.67652266951E+01  0.18951357620E+02  0.23433795010E+02  0.10570000000E+00 0.  1.
<mgrwt>
<rscale>  0 0.32108575E+02</rscale>
<asrwt>0</asrwt>
<pdfrwt beam="2">  1        2 0.14151724E-02 0.32108575E+02</pdfrwt>
<pdfrwt beam="1">  1       -2 0.43106823E-02 0.32108575E+02</pdfrwt>
<totfact> 0.12547298E+06</totfact>
</mgrwt>
</event>
<event>
 4    1  0.3704929E-001  0.6686005E+02  0.7818608E-02  0.1371108E+00
          2   -1    0    0  501    0  0.00000000000E+00  0.00000000000E+00  0.21953526165E+02  0.21953526319E+02  0.26000000000E-02 0. -1.
         -2   -1    0    0    0  501 -0.00000000000E+00 -0.00000000000E+00 -0.50906015859E+02  0.50906015926E+02  0.26000000000E-02 0.  1.
        -13    1    1    2    0    0 -0.17939261199E+02 -0.10464386242E+02  0.14070470801E+02  0.25086047773E+02  0.10570000000E+00 0. -1.
         13    1    1    2    0    0  0.17939261199E+02  0.10464386242E+02 -0.43022960495E+02  0.47773494472E+02  0.10570000000E+00 0.  1.
<mgrwt>
<rscale>  0 0.66860050E+02</rscale>
<asrwt>0</asrwt>
<pdfrwt beam="1">  1        2 0.33774656E-02 0.66860050E+02</pdfrwt>
<pdfrwt beam="2">  1       -2 0.78316947E-02 0.66860050E+02</pdfrwt>
<totfact> 0.20175735E+05</totfact>
</mgrwt>
</event>
<event>
 4    1  0.3704929E-001  0.2448813E+02  0.7818608E-02  0.1668465E+00
         -2   -1    0    0    0  501 -0.00000000000E+00  0.00000000000E+00  0.80442047004E+02  0.80442047046E+02  0.26000000000E-02 0. -1.
          2   -1    0    0  501    0  0.00000000000E+00 -0.00000000000E+00 -0.18636646055E+01  0.18636664192E+01  0.26000000000E-02 0.  1.
        -13    1    1    2    0    0  0.72465852953E+01  0.87858824554E+01  0.24182730971E+02  0.26730513999E+02  0.10570000000E+00 0.  1.
         13    1    1    2    0    0 -0.72465852953E+01 -0.87858824554E+01  0.54395651427E+02  0.55575199466E+02  0.10570000000E+00 0. -1.
<mgrwt>
<rscale>  0 0.24488125E+02</rscale>
<asrwt>0</asrwt>
<pdfrwt beam="2">  1        2 0.28671785E-03 0.24488125E+02</pdfrwt>
<pdfrwt beam="1">  1       -2 0.12375697E-01 0.24488125E+02</pdfrwt>
<totfact> 0.19920571E+06</totfact>
</mgrwt>
</event>
<event>
 4    1  0.3704929E-001  0.2973404E+02  0.7818608E-02  0.1601047E+00
         -2   -1    0    0    0  501 -0.00000000000E+00  0.00000000000E+00  0.91529575586E+01  0.91529579279E+01  0.26000000000E-02 0. -1.
          2   -1    0    0  501    0  0.00000000000E+00 -0.00000000000E+00 -0.24148289252E+02  0.24148289392E+02  0.26000000000E-02 0.  1.
        -13    1    1    2    0    0  0.41782390903E+01 -0.14260817420E+02 -0.79839281760E+01  0.16869584375E+02  0.10570000000E+00 0. -1.
         13    1    1    2    0    0 -0.41782390903E+01  0.14260817420E+02 -0.70114035177E+01  0.16431662945E+02  0.10570000000E+00 0.  1.
<mgrwt>
<rscale>  0 0.29734039E+02</rscale>
<asrwt>0</asrwt>
<pdfrwt beam="2">  1        2 0.37151214E-02 0.29734039E+02</pdfrwt>
<pdfrwt beam="1">  1       -2 0.14081474E-02 0.29734039E+02</pdfrwt>
<totfact> 0.16831845E+06</totfact>
</mgrwt>
</event>
<event>
 4    1  0.3704929E-001  0.8022835E+02  0.7818608E-02  0.1328405E+00
         -2   -1    0    0    0  501 -0.00000000000E+00  0.00000000000E+00  0.38958646376E+02  0.38958646463E+02  0.26000000000E-02 0. -1.
          2   -1    0    0  501    0  0.00000000000E+00 -0.00000000000E+00 -0.41303979228E+02  0.41303979310E+02  0.26000000000E-02 0.  1.
        -13    1    1    2    0    0 -0.23443452537E+02 -0.23678571734E+02 -0.23517510348E+02  0.40784245631E+02  0.10570000000E+00 0.  1.
         13    1    1    2    0    0  0.23443452537E+02  0.23678571734E+02  0.21172177496E+02  0.39478380142E+02  0.10570000000E+00 0. -1.
<mgrwt>
<rscale>  0 0.80228352E+02</rscale>
<asrwt>0</asrwt>
<pdfrwt beam="2">  1        2 0.63544583E-02 0.80228352E+02</pdfrwt>
<pdfrwt beam="1">  1       -2 0.59936379E-02 0.80228352E+02</pdfrwt>
<totfact> 0.13849836E+05</totfact>
</mgrwt>
</event>
<event>
 4    1  0.3704929E-001  0.5032057E+02  0.7818608E-02  0.1443620E+00
         -2   -1    0    0    0  501 -0.00000000000E+00  0.00000000000E+00  0.28456985326E+01  0.28456997203E+01  0.26000000000E-02 0.  1.
          2   -1    0    0  501    0  0.00000000000E+00 -0.00000000000E+00 -0.22245497422E+03  0.22245497423E+03  0.26000000000E-02 0. -1.
        -13    1    1    2    0    0  0.22445981115E+02 -0.97921148973E+01 -0.13564967093E+03  0.13784248975E+03  0.10570000000E+00 0. -1.
         13    1    1    2    0    0 -0.22445981115E+02  0.97921148973E+01 -0.83959604752E+02  0.87458184208E+02  0.10570000000E+00 0.  1.
<mgrwt>
<rscale>  0 0.50320570E+02</rscale>
<asrwt>0</asrwt>
<pdfrwt beam="2">  1        2 0.34223829E-01 0.50320570E+02</pdfrwt>
<pdfrwt beam="1">  1       -2 0.43780004E-03 0.50320570E+02</pdfrwt>
<totfact> 0.75084155E+05</totfact>
</mgrwt>
</event>
<event>
 4    1  0.3704929E-001  0.2866254E+02  0.7818608E-02  0.1613361E+00
         -2   -1    0    0    0  501 -0.00000000000E+00  0.00000000000E+00  0.68144895844E+01  0.68144900804E+01  0.26000000000E-02 0. -1.
          2   -1    0    0  501    0  0.00000000000E+00 -0.00000000000E+00 -0.30139494550E+02  0.30139494662E+02  0.26000000000E-02 0.  1.
        -13    1    1    2    0    0 -0.11820338527E+02 -0.40490030986E+00 -0.22096081983E+02  0.25062568875E+02  0.10570000000E+00 0.  1.
         13    1    1    2    0    0  0.11820338527E+02  0.40490030986E+00 -0.12289229832E+01  0.11891415868E+02  0.10570000000E+00 0. -1.
<mgrwt>
<rscale>  0 0.28662539E+02</rscale>
<asrwt>0</asrwt>
<pdfrwt beam="2">  1        2 0.46368453E-02 0.28662539E+02</pdfrwt>
<pdfrwt beam="1">  1       -2 0.10483831E-02 0.28662539E+02</pdfrwt>
<totfact> 0.18865928E+06</totfact>
</mgrwt>
</event>
<event>
 4    1  0.3704929E-001  0.3505246E+02  0.7818608E-02  0.1548135E+00
          2   -1    0    0  501    0  0.00000000000E+00  0.00000000000E+00  0.81040647565E+02  0.81040647606E+02  0.26000000000E-02 0. -1.
         -2   -1    0    0    0  501 -0.00000000000E+00 -0.00000000000E+00 -0.37903037173E+01  0.37903046090E+01  0.26000000000E-02 0.  1.
        -13    1    1    2    0    0  0.16865732192E+02  0.11006234013E+01  0.49845015734E+02  0.52632699534E+02  0.10570000000E+00 0. -1.
         13    1    1    2    0    0 -0.16865732192E+02 -0.11006234013E+01  0.27405328113E+02  0.32198252681E+02  0.10570000000E+00 0.  1.
<mgrwt>
<rscale>  0 0.35052458E+02</rscale>
<asrwt>0</asrwt>
<pdfrwt beam="1">  1        2 0.12467791E-01 0.35052458E+02</pdfrwt>
<pdfrwt beam="2">  1       -2 0.58312378E-03 0.35052458E+02</pdfrwt>
<totfact> 0.13722611E+06</totfact>
</mgrwt>
</event>
<event>
 4    1  0.3704929E-001  0.2513045E+02  0.7818608E-02  0.1659135E+00
          2   -1    0    0  501    0  0.00000000000E+00  0.00000000000E+00  0.24331780649E+02  0.24331780788E+02  0.26000000000E-02 0.  1.
         -2   -1    0    0    0  501 -0.00000000000E+00 -0.00000000000E+00 -0.64888355459E+01  0.64888360668E+01  0.26000000000E-02 0. -1.
        -13    1    1    2    0    0  0.70524898818E+01 -0.98807388128E+01  0.49460489829E+01  0.13108820925E+02  0.10570000000E+00 0. -1.
         13    1    1    2    0    0 -0.70524898818E+01  0.98807388128E+01  0.12896896120E+02  0.17711795929E+02  0.10570000000E+00 0.  1.
<mgrwt>
<rscale>  0 0.25130454E+02</rscale>
<asrwt>0</asrwt>
<pdfrwt beam="1">  1        2 0.37433509E-02 0.25130454E+02</pdfrwt>
<pdfrwt beam="2">  1       -2 0.99828246E-03 0.25130454E+02</pdfrwt>
<totfact> 0.25124123E+06</totfact>
</mgrwt>
</event>
<event>
 4    1  0.3704929E-001  0.2278173E+02  0.7818608E-02  0.1695073E+00
          2   -1    0    0  501    0  0.00000000000E+00  0.00000000000E+00  0.94151122339E+01  0.94151125929E+01  0.26000000000E-02 0. -1.
         -2   -1    0    0    0  501 -0.00000000000E+00 -0.00000000000E+00 -0.13781226568E+02  0.13781226814E+02  0.26000000000E-02 0.  1.
        -13    1    1    2    0    0  0.89901550723E+01 -0.48380677830E+01  0.29596897272E+01  0.10630179861E+02  0.10570000000E+00 0.  1.
         13    1    1    2    0    0 -0.89901550723E+01  0.48380677830E+01 -0.73258040618E+01  0.12566159546E+02  0.10570000000E+00 0. -1.
<mgrwt>
<rscale>  0 0.22781730E+02</rscale>
<asrwt>0</asrwt>
<pdfrwt beam="1">  1        2 0.14484788E-02 0.22781730E+02</pdfrwt>
<pdfrwt beam="2">  1       -2 0.21201888E-02 0.22781730E+02</pdfrwt>
<totfact> 0.29039047E+06</totfact>
</mgrwt>
</event>
<event>
 4    1  0.3704929E-001  0.3385170E+02  0.7818608E-02  0.1559041E+00
          2   -1    0    0  501    0  0.00000000000E+00  0.00000000000E+00  0.52874327043E+01  0.52874333436E+01  0.26000000000E-02 0.  1.
         -2   -1    0    0    0  501 -0.00000000000E+00 -0.00000000000E+00 -0.54182119273E+02  0.54182119335E+02  0.26000000000E-02 0. -1.
        -13    1    1    2    0    0  0.77281079821E+01  0.14502588169E+02 -0.17327678575E+02  0.23881129242E+02  0.10570000000E+00 0. -1.
         13    1    1    2    0    0 -0.77281079821E+01 -0.14502588169E+02 -0.31567007993E+02  0.35588423436E+02  0.10570000000E+00 0.  1.
<mgrwt>
<rscale>  0 0.33851696E+02</rscale>
<asrwt>0</asrwt>
<pdfrwt beam="1">  1        2 0.81345128E-03 0.33851696E+02</pdfrwt>
<pdfrwt beam="2">  1       -2 0.83357103E-02 0.33851696E+02</pdfrwt>
<totfact> 0.10154113E+06</totfact>
</mgrwt>
</event>
<event>
 4    1  0.3704929E-001  0.2345814E+02  0.7818608E-02  0.1684190E+00
         -2   -1    0    0    0  501 -0.00000000000E+00  0.00000000000E+00  0.32657030456E+01  0.32657040806E+01  0.26000000000E-02 0.  1.
          2   -1    0    0  501    0  0.00000000000E+00 -0.00000000000E+00 -0.42126024356E+02  0.42126024436E+02  0.26000000000E-02 0. -1.
        -13    1    1    2    0    0 -0.10935285023E+02 -0.35867193801E+01 -0.23806416587E+02  0.26442421554E+02  0.10570000000E+00 0. -1.
         13    1    1    2    0    0  0.10935285023E+02  0.35867193801E+01 -0.15053904723E+02  0.18949306963E+02  0.10570000000E+00 0.  1.
<mgrwt>
<rscale>  0 0.23458142E+02</rscale>
<asrwt>0</asrwt>
<pdfrwt beam="2">  1        2 0.64809265E-02 0.23458142E+02</pdfrwt>
<pdfrwt beam="1">  1       -2 0.50241597E-03 0.23458142E+02</pdfrwt>
<totfact> 0.31499993E+06</totfact>
</mgrwt>
</event>
<event>
 4    1  0.3704929E-001  0.7201265E+02  0.7818608E-02  0.1353380E+00
          2   -1    0    0  501    0  0.00000000000E+00  0.00000000000E+00  0.30548886720E+02  0.30548886831E+02  0.26000000000E-02 0. -1.
         -2   -1    0    0    0  501 -0.00000000000E+00 -0.00000000000E+00 -0.42438715721E+02  0.42438715801E+02  0.26000000000E-02 0.  1.
        -13    1    1    2    0    0 -0.52187626891E+01 -0.17326153409E+02  0.25605506274E+02  0.31354173565E+02  0.10570000000E+00 0. -1.
         13    1    1    2    0    0  0.52187626891E+01  0.17326153409E+02 -0.37495335275E+02  0.41633429066E+02  0.10570000000E+00 0.  1.
<mgrwt>
<rscale>  0 0.72012652E+02</rscale>
<asrwt>0</asrwt>
<pdfrwt beam="1">  1        2 0.46998287E-02 0.72012652E+02</pdfrwt>
<pdfrwt beam="2">  1       -2 0.65290332E-02 0.72012652E+02</pdfrwt>
<totfact> 0.17540772E+05</totfact>
</mgrwt>
</event>
<event>
 4    1  0.3704929E-001  0.2689602E+02  0.7818608E-02  0.1635173E+00
          2   -1    0    0  501    0  0.00000000000E+00  0.00000000000E+00  0.58367395195E+02  0.58367395253E+02  0.26000000000E-02 0.  1.
         -2   -1    0    0    0  501 -0.00000000000E+00 -0.00000000000E+00 -0.30984592165E+01  0.30984603074E+01  0.26000000000E-02 0. -1.
        -13    1    1    2    0    0 -0.97244197504E+01  0.48091028921E+01  0.45794596885E+02  0.47062172564E+02  0.10570000000E+00 0.  1.
         13    1    1    2    0    0  0.97244197504E+01 -0.48091028921E+01  0.94743390939E+01  0.14403682997E+02  0.10570000000E+00 0. -1.
<mgrwt>
<rscale>  0 0.26896024E+02</rscale>
<asrwt>0</asrwt>
<pdfrwt beam="1">  1        2 0.89795991E-02 0.26896024E+02</pdfrwt>
<pdfrwt beam="2">  1       -2 0.47668614E-03 0.26896024E+02</pdfrwt>
<totfact> 0.24151890E+06</totfact>
</mgrwt>
</event>
<event>
 4    1  0.3704929E-001  0.2777083E+02  0.7818608E-02  0.1624122E+00
         -2   -1    0    0    0  501 -0.00000000000E+00  0.00000000000E+00  0.31936745362E+02  0.31936745468E+02  0.26000000000E-02 0. -1.
          2   -1    0    0  501    0  0.00000000000E+00 -0.00000000000E+00 -0.60370837188E+01  0.60370842787E+01  0.26000000000E-02 0.  1.
        -13    1    1    2    0    0 -0.12012042678E+02  0.12473547593E+01  0.22319121300E+02  0.25377143482E+02  0.10570000000E+00 0.  1.
         13    1    1    2    0    0  0.12012042678E+02 -0.12473547593E+01  0.35805403429E+01  0.12596686264E+02  0.10570000000E+00 0. -1.
<mgrwt>
<rscale>  0 0.27770835E+02</rscale>
<asrwt>0</asrwt>
<pdfrwt beam="2">  1        2 0.92878216E-03 0.27770835E+02</pdfrwt>
<pdfrwt beam="1">  1       -2 0.49133455E-02 0.27770835E+02</pdfrwt>
<totfact> 0.17226325E+06</totfact>
</mgrwt>
</event>
<event>
 4    1  0.3704929E-001  0.2449329E+02  0.7818608E-02  0.1668388E+00
         -2   -1    0    0    0  501 -0.00000000000E+00  0.00000000000E+00  0.11638287150E+01  0.11638316192E+01  0.26000000000E-02 0. -1.
          2   -1    0    0  501    0  0.00000000000E+00 -0.00000000000E+00 -0.12886785929E+03  0.12886785931E+03  0.26000000000E-02 0.  1.
        -13    1    1    2    0    0 -0.57332734658E+01  0.10817607748E+02 -0.62368652981E+02  0.63559036408E+02  0.10570000000E+00 0.  1.
         13    1    1    2    0    0  0.57332734658E+01 -0.10817607748E+02 -0.65335377591E+02  0.66472654524E+02  0.10570000000E+00 0. -1.
<mgrwt>
<rscale>  0 0.24493289E+02</rscale>
<asrwt>0</asrwt>
<pdfrwt beam="2">  1        2 0.19825813E-01 0.24493289E+02</pdfrwt>
<pdfrwt beam="1">  1       -2 0.17905090E-03 0.24493289E+02</pdfrwt>
<totfact> 0.35641641E+06</totfact>
</mgrwt>
</event>
<event>
 4    1  0.3704929E-001  0.1757835E+03  0.7818608E-02  0.1171947E+00
          2   -1    0    0  501    0  0.00000000000E+00  0.00000000000E+00  0.42568998832E+03  0.42568998833E+03  0.26000000000E-02 0. -1.
         -2   -1    0    0    0  501 -0.00000000000E+00 -0.00000000000E+00 -0.18146916365E+02  0.18146916551E+02  0.26000000000E-02 0.  1.
        -13    1    1    2    0    0  0.31924905917E+02  0.56279917254E+02  0.53580546455E+02  0.84009016390E+02  0.10570000000E+00 0.  1.
         13    1    1    2    0    0 -0.31924905917E+02 -0.56279917254E+02  0.35396252550E+03  0.35982788849E+03  0.10570000000E+00 0. -1.
<mgrwt>
<rscale>  0 0.17578351E+03</rscale>
<asrwt>0</asrwt>
<pdfrwt beam="1">  1        2 0.65490766E-01 0.17578351E+03</pdfrwt>
<pdfrwt beam="2">  1       -2 0.27918334E-02 0.17578351E+03</pdfrwt>
<totfact> 0.33540287E+04</totfact>
</mgrwt>
</event>
<event>
 4    1  0.3704929E-001  0.3091777E+02  0.7818608E-02  0.1588160E+00
          2   -1    0    0  501    0  0.00000000000E+00  0.00000000000E+00  0.70056468150E+01  0.70056472975E+01  0.26000000000E-02 0.  1.
         -2   -1    0    0    0  501 -0.00000000000E+00 -0.00000000000E+00 -0.34112080005E+02  0.34112080104E+02  0.26000000000E-02 0. -1.
        -13    1    1    2    0    0  0.13790580393E+02  0.25710458869E+01 -0.49164394254E+01  0.14865158379E+02  0.10570000000E+00 0.  1.
         13    1    1    2    0    0 -0.13790580393E+02 -0.25710458869E+01 -0.22189993765E+02  0.26252569023E+02  0.10570000000E+00 0. -1.
<mgrwt>
<rscale>  0 0.30917775E+02</rscale>
<asrwt>0</asrwt>
<pdfrwt beam="1">  1        2 0.10777919E-02 0.30917775E+02</pdfrwt>
<pdfrwt beam="2">  1       -2 0.52480122E-02 0.30917775E+02</pdfrwt>
<totfact> 0.13370347E+06</totfact>
</mgrwt>
</event>
<event>
 4    1  0.3704929E-001  0.2200985E+02  0.7818608E-02  0.1708082E+00
         -2   -1    0    0    0  501 -0.00000000000E+00  0.00000000000E+00  0.41546375623E+02  0.41546375705E+02  0.26000000000E-02 0.  1.
          2   -1    0    0  501    0  0.00000000000E+00 -0.00000000000E+00 -0.29150158924E+01  0.29150170519E+01  0.26000000000E-02 0. -1.
        -13    1    1    2    0    0 -0.19639753501E+01 -0.10804086265E+02  0.20760729112E+02  0.23486262473E+02  0.10570000000E+00 0.  1.
         13    1    1    2    0    0  0.19639753501E+01  0.10804086265E+02  0.17870630619E+02  0.20975130284E+02  0.10570000000E+00 0. -1.
<mgrwt>
<rscale>  0 0.22009850E+02</rscale>
<asrwt>0</asrwt>
<pdfrwt beam="2">  1        2 0.44846406E-03 0.22009850E+02</pdfrwt>
<pdfrwt beam="1">  1       -2 0.63917505E-02 0.22009850E+02</pdfrwt>
<totfact> 0.28148239E+06</totfact>
</mgrwt>
</event>
<event>
 4    1  0.3704929E-001  0.3290934E+02  0.7818608E-02  0.1567991E+00
         -2   -1    0    0    0  501 -0.00000000000E+00  0.00000000000E+00  0.18176407966E+01  0.18176426561E+01  0.26000000000E-02 0.  1.
          2   -1    0    0  501    0  0.00000000000E+00 -0.00000000000E+00 -0.14896011190E+03  0.14896011192E+03  0.26000000000E-02 0. -1.
        -13    1    1    2    0    0  0.15205401054E+02 -0.47848672126E+01 -0.92263851620E+02  0.93630810440E+02  0.10570000000E+00 0. -1.
         13    1    1    2    0    0 -0.15205401054E+02  0.47848672126E+01 -0.54878619483E+02  0.57146944138E+02  0.10570000000E+00 0.  1.
<mgrwt>
<rscale>  0 0.32909337E+02</rscale>
<asrwt>0</asrwt>
<pdfrwt beam="2">  1        2 0.22916931E-01 0.32909337E+02</pdfrwt>
<pdfrwt beam="1">  1       -2 0.27963731E-03 0.32909337E+02</pdfrwt>
<totfact> 0.18652303E+06</totfact>
</mgrwt>
</event>
<event>
 4    1  0.3704929E-001  0.3439547E+02  0.7818608E-02  0.1554035E+00
         -2   -1    0    0    0  501 -0.00000000000E+00  0.00000000000E+00  0.28081259728E+02  0.28081259849E+02  0.26000000000E-02 0.  1.
          2   -1    0    0  501    0  0.00000000000E+00 -0.00000000000E+00 -0.10532366454E+02  0.10532366775E+02  0.26000000000E-02 0. -1.
        -13    1    1    2    0    0  0.71465514913E+01 -0.14590033367E+02  0.24428658117E+01  0.16429273804E+02  0.10570000000E+00 0. -1.
         13    1    1    2    0    0 -0.71465514913E+01  0.14590033367E+02  0.15106027462E+02  0.22184352820E+02  0.10570000000E+00 0.  1.
<mgrwt>
<rscale>  0 0.34395472E+02</rscale>
<asrwt>0</asrwt>
<pdfrwt beam="2">  1        2 0.16203641E-02 0.34395472E+02</pdfrwt>
<pdfrwt beam="1">  1       -2 0.43201938E-02 0.34395472E+02</pdfrwt>
<totfact> 0.10705640E+06</totfact>
</mgrwt>
</event>
<event>
 4    1  0.3704929E-001  0.4361408E+02  0.7818608E-02  0.1483184E+00
          2   -1    0    0  501    0  0.00000000000E+00  0.00000000000E+00  0.51312746293E+02  0.51312746359E+02  0.26000000000E-02 0. -1.
         -2   -1    0    0    0  501 -0.00000000000E+00 -0.00000000000E+00 -0.92676184543E+01  0.92676188190E+01  0.26000000000E-02 0.  1.
        -13    1    1    2    0    0  0.17752607272E+02  0.98058301286E+01  0.32154278420E+02  0.38016025077E+02  0.10570000000E+00 0. -1.
         13    1    1    2    0    0 -0.17752607272E+02 -0.98058301286E+01  0.98908494188E+01  0.22564340101E+02  0.10570000000E+00 0.  1.
<mgrwt>
<rscale>  0 0.43614079E+02</rscale>
<asrwt>0</asrwt>
<pdfrwt beam="1">  1        2 0.78942687E-02 0.43614079E+02</pdfrwt>
<pdfrwt beam="2">  1       -2 0.14257875E-02 0.43614079E+02</pdfrwt>
<totfact> 0.73001268E+05</totfact>
</mgrwt>
</event>
<event>
 4    1  0.3704929E-001  0.2427697E+02  0.7818608E-02  0.1671610E+00
          2   -1    0    0  501    0  0.00000000000E+00  0.00000000000E+00  0.44777135124E+02  0.44777135199E+02  0.26000000000E-02 0. -1.
         -2   -1    0    0    0  501 -0.00000000000E+00 -0.00000000000E+00 -0.32905806045E+01  0.32905816317E+01  0.26000000000E-02 0.  1.
        -13    1    1    2    0    0  0.79243891955E+00 -0.10916883017E+02  0.10355435515E+02  0.15068261726E+02  0.10570000000E+00 0.  1.
         13    1    1    2    0    0 -0.79243891955E+00  0.10916883017E+02  0.31131119005E+02  0.32999455105E+02  0.10570000000E+00 0. -1.
<mgrwt>
<rscale>  0 0.24276968E+02</rscale>
<asrwt>0</asrwt>
<pdfrwt beam="1">  1        2 0.68887893E-02 0.24276968E+02</pdfrwt>
<pdfrwt beam="2">  1       -2 0.50624332E-03 0.24276968E+02</pdfrwt>
<totfact> 0.29365518E+06</totfact>
</mgrwt>
</event>
<event>
 4    1  0.3704929E-001  0.2387280E+02  0.7818608E-02  0.1677741E+00
          2   -1    0    0  501    0  0.00000000000E+00  0.00000000000E+00  0.30930702457E+02  0.30930702567E+02  0.26000000000E-02 0.  1.
         -2   -1    0    0    0  501 -0.00000000000E+00 -0.00000000000E+00 -0.46063505603E+01  0.46063512941E+01  0.26000000000E-02 0. -1.
        -13    1    1    2    0    0 -0.97980238836E+01  0.43773508425E+01  0.20940595831E+02  0.23530452581E+02  0.10570000000E+00 0.  1.
         13    1    1    2    0    0  0.97980238836E+01 -0.43773508425E+01  0.53837560663E+01  0.12006601280E+02  0.10570000000E+00 0. -1.
<mgrwt>
<rscale>  0 0.23872802E+02</rscale>
<asrwt>0</asrwt>
<pdfrwt beam="1">  1        2 0.47585698E-02 0.23872802E+02</pdfrwt>
<pdfrwt beam="2">  1       -2 0.70866936E-03 0.23872802E+02</pdfrwt>
<totfact> 0.29079297E+06</totfact>
</mgrwt>
</event>
<event>
 4    1  0.3704929E-001  0.2824000E+02  0.7818608E-02  0.1618400E+00
         -2   -1    0    0    0  501 -0.00000000000E+00  0.00000000000E+00  0.12331971708E+02  0.12331971982E+02  0.26000000000E-02 0.  1.
          2   -1    0    0  501    0  0.00000000000E+00 -0.00000000000E+00 -0.16167274641E+02  0.16167274850E+02  0.26000000000E-02 0. -1.
        -13    1    1    2    0    0  0.12618366859E+02  0.17711038462E+01  0.42212187531E+01  0.13423481339E+02  0.10570000000E+00 0.  1.
         13    1    1    2    0    0 -0.12618366859E+02 -0.17711038462E+01 -0.80565216857E+01  0.15075765492E+02  0.10570000000E+00 0. -1.
<mgrwt>
<rscale>  0 0.28239999E+02</rscale>
<asrwt>0</asrwt>
<pdfrwt beam="2">  1        2 0.24872731E-02 0.28239999E+02</pdfrwt>
<pdfrwt beam="1">  1       -2 0.18972265E-02 0.28239999E+02</pdfrwt>
<totfact> 0.18269517E+06</totfact>
</mgrwt>
</event>
<event>
 4    1  0.3704929E-001  0.3636048E+02  0.7818608E-02  0.1536841E+00
         -2   -1    0    0    0  501 -0.00000000000E+00  0.00000000000E+00  0.16311652913E+01  0.16311673634E+01  0.26000000000E-02 0.  1.
          2   -1    0    0  501    0  0.00000000000E+00 -0.00000000000E+00 -0.20262873918E+03  0.20262873919E+03  0.26000000000E-02 0. -1.
        -13    1    1    2    0    0 -0.98338509053E+01 -0.15273854773E+02 -0.10452919589E+03  0.10609599063E+03  0.10570000000E+00 0. -1.
         13    1    1    2    0    0  0.98338509053E+01  0.15273854773E+02 -0.96468377998E+02  0.98163915923E+02  0.10570000000E+00 0.  1.
<mgrwt>
<rscale>  0 0.36360483E+02</rscale>
<asrwt>0</asrwt>
<pdfrwt beam="2">  1        2 0.31173632E-01 0.36360483E+02</pdfrwt>
<pdfrwt beam="1">  1       -2 0.25094883E-03 0.36360483E+02</pdfrwt>
<totfact> 0.16150442E+06</totfact>
</mgrwt>
</event>
<event>
 4    1  0.3704929E-001  0.2357676E+02  0.7818608E-02  0.1682328E+00
         -2   -1    0    0    0  501 -0.00000000000E+00  0.00000000000E+00  0.96739306570E+02  0.96739306605E+02  0.26000000000E-02 0.  1.
          2   -1    0    0  501    0  0.00000000000E+00 -0.00000000000E+00 -0.14364978638E+01  0.14365002167E+01  0.26000000000E-02 0. -1.
        -13    1    1    2    0    0 -0.44971058643E+01 -0.10482637591E+02  0.35267097766E+02  0.37066008813E+02  0.10570000000E+00 0. -1.
         13    1    1    2    0    0  0.44971058643E+01  0.10482637591E+02  0.60035710940E+02  0.61109798008E+02  0.10570000000E+00 0.  1.
<mgrwt>
<rscale>  0 0.23576762E+02</rscale>
<asrwt>0</asrwt>
<pdfrwt beam="2">  1        2 0.22099981E-03 0.23576762E+02</pdfrwt>
<pdfrwt beam="1">  1       -2 0.14882973E-01 0.23576762E+02</pdfrwt>
<totfact> 0.20827730E+06</totfact>
</mgrwt>
</event>
<event>
 4    1  0.3704929E-001  0.2139178E+02  0.7818608E-02  0.1718988E+00
          2   -1    0    0  501    0  0.00000000000E+00  0.00000000000E+00  0.63147730603E+01  0.63147735955E+01  0.26000000000E-02 0. -1.
         -2   -1    0    0    0  501 -0.00000000000E+00 -0.00000000000E+00 -0.18116579388E+02  0.18116579575E+02  0.26000000000E-02 0.  1.
        -13    1    1    2    0    0  0.99896630941E+01  0.36347640532E+01 -0.45563150969E+01  0.11566160046E+02  0.10570000000E+00 0.  1.
         13    1    1    2    0    0 -0.99896630941E+01 -0.36347640532E+01 -0.72454912310E+01  0.12865193124E+02  0.10570000000E+00 0. -1.
<mgrwt>
<rscale>  0 0.21391783E+02</rscale>
<asrwt>0</asrwt>
<pdfrwt beam="1">  1        2 0.97150360E-03 0.21391783E+02</pdfrwt>
<pdfrwt beam="2">  1       -2 0.27871661E-02 0.21391783E+02</pdfrwt>
<totfact> 0.32591897E+06</totfact>
</mgrwt>
</event>
<event>
 4    1  0.3704929E-001  0.2866877E+02  0.7818608E-02  0.1613288E+00
          2   -1    0    0  501    0  0.00000000000E+00  0.00000000000E+00  0.25343829452E+02  0.25343829585E+02  0.26000000000E-02 0. -1.
         -2   -1    0    0    0  501 -0.00000000000E+00 -0.00000000000E+00 -0.81074815312E+01  0.81074819481E+01  0.26000000000E-02 0.  1.
        -13    1    1    2    0    0 -0.44117819218E+01 -0.13358595326E+02  0.54125850900E+01  0.15073922471E+02  0.10570000000E+00 0.  1.
         13    1    1    2    0    0  0.44117819218E+01  0.13358595326E+02  0.11823762831E+02  0.18377389063E+02  0.10570000000E+00 0. -1.
<mgrwt>
<rscale>  0 0.28668773E+02</rscale>
<asrwt>0</asrwt>
<pdfrwt beam="1">  1        2 0.38990507E-02 0.28668773E+02</pdfrwt>
<pdfrwt beam="2">  1       -2 0.12473049E-02 0.28668773E+02</pdfrwt>
<totfact> 0.18473951E+06</totfact>
</mgrwt>
</event>
<event>
 4    1  0.3704929E-001  0.1075288E+03  0.7818608E-02  0.1265216E+00
          2   -1    0    0  501    0  0.00000000000E+00  0.00000000000E+00  0.82914046228E+02  0.82914046269E+02  0.26000000000E-02 0. -1.
         -2   -1    0    0    0  501 -0.00000000000E+00 -0.00000000000E+00 -0.34862762514E+02  0.34862762611E+02  0.26000000000E-02 0.  1.
        -13    1    1    2    0    0 -0.14401974110E+02 -0.30507330890E+02 -0.21826781191E+02  0.40181259885E+02  0.10570000000E+00 0.  1.
         13    1    1    2    0    0  0.14401974110E+02  0.30507330890E+02  0.69878064905E+02  0.77595548994E+02  0.10570000000E+00 0. -1.
<mgrwt>
<rscale>  0 0.10752884E+03</rscale>
<asrwt>0</asrwt>
<pdfrwt beam="1">  1        2 0.12756007E-01 0.10752884E+03</pdfrwt>
<pdfrwt beam="2">  1       -2 0.53635019E-02 0.10752884E+03</pdfrwt>
<totfact> 0.72948772E+04</totfact>
</mgrwt>
</event>
<event>
 4    1  0.3704929E-001  0.2205575E+02  0.7818608E-02  0.1707290E+00
          2   -1    0    0  501    0  0.00000000000E+00  0.00000000000E+00  0.86702378062E+02  0.86702378101E+02  0.26000000000E-02 0. -1.
         -2   -1    0    0    0  501 -0.00000000000E+00 -0.00000000000E+00 -0.14026594598E+01  0.14026618695E+01  0.26000000000E-02 0.  1.
        -13    1    1    2    0    0 -0.59246715000E+01  0.87402488623E+01  0.29948899267E+02  0.31755966720E+02  0.10570000000E+00 0. -1.
         13    1    1    2    0    0  0.59246715000E+01 -0.87402488623E+01  0.55350819335E+02  0.56349073250E+02  0.10570000000E+00 0.  1.
<mgrwt>
<rscale>  0 0.22055749E+02</rscale>
<asrwt>0</asrwt>
<pdfrwt beam="1">  1        2 0.13338829E-01 0.22055749E+02</pdfrwt>
<pdfrwt beam="2">  1       -2 0.21579393E-03 0.22055749E+02</pdfrwt>
<totfact> 0.41111200E+06</totfact>
</mgrwt>
</event>
<event>
 4    1  0.3704929E-001  0.2640686E+02  0.7818608E-02  0.1641580E+00
          2   -1    0    0  501    0  0.00000000000E+00  0.00000000000E+00  0.57426847181E+02  0.57426847240E+02  0.26000000000E-02 0.  1.
         -2   -1    0    0    0  501 -0.00000000000E+00 -0.00000000000E+00 -0.30356983019E+01  0.30356994153E+01  0.26000000000E-02 0. -1.
        -13    1    1    2    0    0 -0.84007864793E+01  0.10183681349E+02  0.26744180931E+02  0.29825206880E+02  0.10570000000E+00 0. -1.
         13    1    1    2    0    0  0.84007864793E+01 -0.10183681349E+02  0.27646967948E+02  0.30637339775E+02  0.10570000000E+00 0.  1.
<mgrwt>
<rscale>  0 0.26406864E+02</rscale>
<asrwt>0</asrwt>
<pdfrwt beam="1">  1        2 0.88348999E-02 0.26406864E+02</pdfrwt>
<pdfrwt beam="2">  1       -2 0.46703059E-03 0.26406864E+02</pdfrwt>
<totfact> 0.25137896E+06</totfact>
</mgrwt>
</event>
<event>
 4    1  0.3704929E-001  0.2692765E+02  0.7818608E-02  0.1634764E+00
          2   -1    0    0  501    0  0.00000000000E+00  0.00000000000E+00  0.21228305535E+02  0.21228305694E+02  0.26000000000E-02 0.  1.
         -2   -1    0    0    0  501 -0.00000000000E+00 -0.00000000000E+00 -0.85392860814E+01  0.85392864773E+01  0.26000000000E-02 0. -1.
        -13    1    1    2    0    0  0.69442949395E+01 -0.91390742038E+01 -0.14345053125E+01  0.11567838497E+02  0.10570000000E+00 0. -1.
         13    1    1    2    0    0 -0.69442949395E+01  0.91390742038E+01  0.14123524766E+02  0.18199753675E+02  0.10570000000E+00 0.  1.
<mgrwt>
<rscale>  0 0.26927650E+02</rscale>
<asrwt>0</asrwt>
<pdfrwt beam="1">  1        2 0.32658932E-02 0.26927650E+02</pdfrwt>
<pdfrwt beam="2">  1       -2 0.13137364E-02 0.26927650E+02</pdfrwt>
<totfact> 0.21042379E+06</totfact>
</mgrwt>
</event>
<event>
 4    1  0.3704929E-001  0.3856279E+02  0.7818608E-02  0.1519062E+00
         -2   -1    0    0    0  501 -0.00000000000E+00  0.00000000000E+00  0.92063358054E+02  0.92063358090E+02  0.26000000000E-02 0.  1.
          2   -1    0    0  501    0  0.00000000000E+00 -0.00000000000E+00 -0.40382208855E+01  0.40382217225E+01  0.26000000000E-02 0. -1.
        -13    1    1    2    0    0  0.17869268157E+02  0.42101137765E+01  0.29327204843E+02  0.34599594201E+02  0.10570000000E+00 0.  1.
         13    1    1    2    0    0 -0.17869268157E+02 -0.42101137765E+01  0.58697932325E+02  0.61501985612E+02  0.10570000000E+00 0. -1.
<mgrwt>
<rscale>  0 0.38562791E+02</rscale>
<asrwt>0</asrwt>
<pdfrwt beam="2">  1        2 0.62126487E-03 0.38562791E+02</pdfrwt>
<pdfrwt beam="1">  1       -2 0.14163592E-01 0.38562791E+02</pdfrwt>
<totfact> 0.67383737E+05</totfact>
</mgrwt>
</event>
<event>
 4    1  0.3704929E-001  0.2914875E+02  0.7818608E-02  0.1607693E+00
         -2   -1    0    0    0  501 -0.00000000000E+00  0.00000000000E+00  0.49299358762E+01  0.49299365618E+01  0.26000000000E-02 0. -1.
          2   -1    0    0  501    0  0.00000000000E+00 -0.00000000000E+00 -0.43086232135E+02  0.43086232214E+02  0.26000000000E-02 0.  1.
        -13    1    1    2    0    0  0.57272683392E+01  0.11837017733E+02 -0.87271660726E+01  0.15782623090E+02  0.10570000000E+00 0.  1.
         13    1    1    2    0    0 -0.57272683392E+01 -0.11837017733E+02 -0.29429130187E+02  0.32233545686E+02  0.10570000000E+00 0. -1.
<mgrwt>
<rscale>  0 0.29148748E+02</rscale>
<asrwt>0</asrwt>
<pdfrwt beam="2">  1        2 0.66286509E-02 0.29148748E+02</pdfrwt>
<pdfrwt beam="1">  1       -2 0.75845176E-03 0.29148748E+02</pdfrwt>
<totfact> 0.19024394E+06</totfact>
</mgrwt>
</event>
<event>
 4    1  0.3704929E-001  0.2408315E+02  0.7818608E-02  0.1674531E+00
          2   -1    0    0  501    0  0.00000000000E+00  0.00000000000E+00  0.28434343251E+02  0.28434343370E+02  0.26000000000E-02 0.  1.
         -2   -1    0    0    0  501 -0.00000000000E+00 -0.00000000000E+00 -0.50994506092E+01  0.50994512721E+01  0.26000000000E-02 0. -1.
        -13    1    1    2    0    0  0.98901984000E+01 -0.67758699740E+01  0.13230388199E+02  0.17854489147E+02  0.10570000000E+00 0.  1.
         13    1    1    2    0    0 -0.98901984000E+01  0.67758699740E+01  0.10104504443E+02  0.15679305496E+02  0.10570000000E+00 0. -1.
<mgrwt>
<rscale>  0 0.24083151E+02</rscale>
<asrwt>0</asrwt>
<pdfrwt beam="1">  1        2 0.43745144E-02 0.24083151E+02</pdfrwt>
<pdfrwt beam="2">  1       -2 0.78453092E-03 0.24083151E+02</pdfrwt>
<totfact> 0.28220873E+06</totfact>
</mgrwt>
</event>
<event>
 4    1  0.3704929E-001  0.2435319E+02  0.7818608E-02  0.1670470E+00
         -2   -1    0    0    0  501 -0.00000000000E+00  0.00000000000E+00  0.84180795352E+02  0.84180795392E+02  0.26000000000E-02 0.  1.
          2   -1    0    0  501    0  0.00000000000E+00 -0.00000000000E+00 -0.17613205254E+01  0.17613224444E+01  0.26000000000E-02 0. -1.
        -13    1    1    2    0    0 -0.96315244839E+00 -0.11055496717E+02  0.58892259509E+02  0.59928800029E+02  0.10570000000E+00 0.  1.
         13    1    1    2    0    0  0.96315244839E+00  0.11055496717E+02  0.23527215317E+02  0.26013317807E+02  0.10570000000E+00 0. -1.
<mgrwt>
<rscale>  0 0.24353188E+02</rscale>
<asrwt>0</asrwt>
<pdfrwt beam="2">  1        2 0.27097255E-03 0.24353188E+02</pdfrwt>
<pdfrwt beam="1">  1       -2 0.12950891E-01 0.24353188E+02</pdfrwt>
<totfact> 0.19979940E+06</totfact>
</mgrwt>
</event>
<event>
 4    1  0.3704929E-001  0.9508964E+02  0.7818608E-02  0.1290974E+00
         -2   -1    0    0    0  501 -0.00000000000E+00  0.00000000000E+00  0.11387472740E+02  0.11387473037E+02  0.26000000000E-02 0.  1.
          2   -1    0    0  501    0  0.00000000000E+00 -0.00000000000E+00 -0.19850848238E+03  0.19850848240E+03  0.26000000000E-02 0. -1.
        -13    1    1    2    0    0  0.18433197871E+02  0.42968705086E+02 -0.74520108503E+02  0.87973576398E+02  0.10570000000E+00 0.  1.
         13    1    1    2    0    0 -0.18433197871E+02 -0.42968705086E+02 -0.11260090114E+03  0.12192237904E+03  0.10570000000E+00 0. -1.
<mgrwt>
<rscale>  0 0.95089641E+02</rscale>
<asrwt>0</asrwt>
<pdfrwt beam="2">  1        2 0.30539764E-01 0.95089641E+02</pdfrwt>
<pdfrwt beam="1">  1       -2 0.17519191E-02 0.95089641E+02</pdfrwt>
<totfact> 0.13770775E+05</totfact>
</mgrwt>
</event>
<event>
 4    1  0.3704929E-001  0.3471678E+02  0.7818608E-02  0.1551130E+00
         -2   -1    0    0    0  501 -0.00000000000E+00  0.00000000000E+00  0.68849618218E+02  0.68849618267E+02  0.26000000000E-02 0. -1.
          2   -1    0    0  501    0  0.00000000000E+00 -0.00000000000E+00 -0.43764027597E+01  0.43764035320E+01  0.26000000000E-02 0.  1.
        -13    1    1    2    0    0 -0.13763796045E+02  0.32606867483E+01  0.11015057408E+02  0.17928101456E+02  0.10570000000E+00 0.  1.
         13    1    1    2    0    0  0.13763796045E+02 -0.32606867483E+01  0.53458158050E+02  0.55297920343E+02  0.10570000000E+00 0. -1.
<mgrwt>
<rscale>  0 0.34716779E+02</rscale>
<asrwt>0</asrwt>
<pdfrwt beam="2">  1        2 0.67329286E-03 0.34716779E+02</pdfrwt>
<pdfrwt beam="1">  1       -2 0.10592248E-01 0.34716779E+02</pdfrwt>
<totfact> 0.91815563E+05</totfact>
</mgrwt>
</event>
<event>
 4    1  0.3704929E-001  0.3188509E+02  0.7818608E-02  0.1578140E+00
         -2   -1    0    0    0  501 -0.00000000000E+00  0.00000000000E+00  0.52865584000E+01  0.52865590393E+01  0.26000000000E-02 0. -1.
          2   -1    0    0  501    0  0.00000000000E+00 -0.00000000000E+00 -0.48077539596E+02  0.48077539667E+02  0.26000000000E-02 0.  1.
        -13    1    1    2    0    0  0.12726115181E+02 -0.95843637816E+01 -0.22370706926E+02  0.27464044450E+02  0.10570000000E+00 0. -1.
         13    1    1    2    0    0 -0.12726115181E+02  0.95843637816E+01 -0.20420274271E+02  0.25900054256E+02  0.10570000000E+00 0.  1.
<mgrwt>
<rscale>  0 0.31885090E+02</rscale>
<asrwt>0</asrwt>
<pdfrwt beam="2">  1        2 0.73965443E-02 0.31885090E+02</pdfrwt>
<pdfrwt beam="1">  1       -2 0.81331676E-03 0.31885090E+02</pdfrwt>
<totfact> 0.15612372E+06</totfact>
</mgrwt>
</event>
<event>
 4    1  0.3704929E-001  0.3563064E+02  0.7818608E-02  0.1543071E+00
         -2   -1    0    0    0  501 -0.00000000000E+00  0.00000000000E+00  0.21341996681E+01  0.21342012518E+01  0.26000000000E-02 0.  1.
          2   -1    0    0  501    0  0.00000000000E+00 -0.00000000000E+00 -0.14871403235E+03  0.14871403238E+03  0.26000000000E-02 0. -1.
        -13    1    1    2    0    0  0.12474019690E+02  0.11188811360E+02 -0.98897027438E+02  0.10030664921E+03  0.10570000000E+00 0. -1.
         13    1    1    2    0    0 -0.12474019690E+02 -0.11188811360E+02 -0.47682805248E+02  0.50541584420E+02  0.10570000000E+00 0.  1.
<mgrwt>
<rscale>  0 0.35630636E+02</rscale>
<asrwt>0</asrwt>
<pdfrwt beam="2">  1        2 0.22879074E-01 0.35630636E+02</pdfrwt>
<pdfrwt beam="1">  1       -2 0.32833865E-03 0.35630636E+02</pdfrwt>
<totfact> 0.15418272E+06</totfact>
</mgrwt>
</event>
<event>
 4    1  0.3704929E-001  0.3254323E+02  0.7818608E-02  0.1571566E+00
         -2   -1    0    0    0  501 -0.00000000000E+00  0.00000000000E+00  0.13685920892E+02  0.13685921139E+02  0.26000000000E-02 0.  1.
          2   -1    0    0  501    0  0.00000000000E+00 -0.00000000000E+00 -0.19345829141E+02  0.19345829316E+02  0.26000000000E-02 0. -1.
        -13    1    1    2    0    0  0.93372291819E+01  0.11042445697E+02  0.47408920787E+01  0.15218629569E+02  0.10570000000E+00 0.  1.
         13    1    1    2    0    0 -0.93372291819E+01 -0.11042445697E+02 -0.10400800328E+02  0.17813120886E+02  0.10570000000E+00 0. -1.
<mgrwt>
<rscale>  0 0.32543232E+02</rscale>
<asrwt>0</asrwt>
<pdfrwt beam="2">  1        2 0.29762814E-02 0.32543232E+02</pdfrwt>
<pdfrwt beam="1">  1       -2 0.21055263E-02 0.32543232E+02</pdfrwt>
<totfact> 0.13174152E+06</totfact>
</mgrwt>
</event>
<event>
 4    1  0.3704929E-001  0.5292621E+02  0.7818608E-02  0.1430168E+00
          2   -1    0    0  501    0  0.00000000000E+00  0.00000000000E+00  0.79921621447E+02  0.79921621489E+02  0.26000000000E-02 0. -1.
         -2   -1    0    0    0  501 -0.00000000000E+00 -0.00000000000E+00 -0.87622836800E+01  0.87622840658E+01  0.26000000000E-02 0.  1.
        -13    1    1    2    0    0 -0.83176846727E+01  0.10594273499E+02 -0.25883880539E+01  0.13716174193E+02  0.10570000000E+00 0.  1.
         13    1    1    2    0    0  0.83176846727E+01 -0.10594273499E+02  0.73747725821E+02  0.74967731361E+02  0.10570000000E+00 0. -1.
<mgrwt>
<rscale>  0 0.52926210E+02</rscale>
<asrwt>0</asrwt>
<pdfrwt beam="1">  1        2 0.12295634E-01 0.52926210E+02</pdfrwt>
<pdfrwt beam="2">  1       -2 0.13480437E-02 0.52926210E+02</pdfrwt>
<totfact> 0.48985844E+05</totfact>
</mgrwt>
</event>
<event>
 4    1  0.3704929E-001  0.4033347E+02  0.7818608E-02  0.1505772E+00
         -2   -1    0    0    0  501 -0.00000000000E+00  0.00000000000E+00  0.10229799879E+03  0.10229799882E+03  0.26000000000E-02 0. -1.
          2   -1    0    0  501    0  0.00000000000E+00 -0.00000000000E+00 -0.39756118091E+01  0.39756126593E+01  0.26000000000E-02 0.  1.
        -13    1    1    2    0    0 -0.76952850152E+01  0.18639908138E+02  0.48766669101E+02  0.52771799046E+02  0.10570000000E+00 0.  1.
         13    1    1    2    0    0  0.76952850152E+01 -0.18639908138E+02  0.49555717878E+02  0.53501812434E+02  0.10570000000E+00 0. -1.
<mgrwt>
<rscale>  0 0.40333469E+02</rscale>
<asrwt>0</asrwt>
<pdfrwt beam="2">  1        2 0.61163263E-03 0.40333469E+02</pdfrwt>
<pdfrwt beam="1">  1       -2 0.15738154E-01 0.40333469E+02</pdfrwt>
<totfact> 0.59013793E+05</totfact>
</mgrwt>
</event>
<event>
 4    1  0.3704929E-001  0.2105480E+02  0.7818608E-02  0.1725131E+00
          2   -1    0    0  501    0  0.00000000000E+00  0.00000000000E+00  0.93461941123E+02  0.93461941159E+02  0.26000000000E-02 0. -1.
         -2   -1    0    0    0  501 -0.00000000000E+00 -0.00000000000E+00 -0.11857876475E+01  0.11857904979E+01  0.26000000000E-02 0.  1.
        -13    1    1    2    0    0  0.95926834187E+01  0.42945842162E+01  0.43471218257E+02  0.44723830538E+02  0.10570000000E+00 0. -1.
         13    1    1    2    0    0 -0.95926834187E+01 -0.42945842162E+01  0.48804935219E+02  0.49923901119E+02  0.10570000000E+00 0.  1.
<mgrwt>
<rscale>  0 0.21054800E+02</rscale>
<asrwt>0</asrwt>
<pdfrwt beam="1">  1        2 0.14378766E-01 0.21054800E+02</pdfrwt>
<pdfrwt beam="2">  1       -2 0.18242902E-03 0.21054800E+02</pdfrwt>
<totfact> 0.46367045E+06</totfact>
</mgrwt>
</event>
<event>
 4    1  0.3704929E-001  0.4886983E+02  0.7818608E-02  0.1451534E+00
         -2   -1    0    0    0  501 -0.00000000000E+00  0.00000000000E+00  0.58254070355E+01  0.58254076157E+01  0.26000000000E-02 0. -1.
          2   -1    0    0  501    0  0.00000000000E+00 -0.00000000000E+00 -0.10249325751E+03  0.10249325755E+03  0.26000000000E-02 0.  1.
        -13    1    1    2    0    0  0.15960453424E+02  0.95056373845E+00 -0.73792704407E+01  0.17609782783E+02  0.10570000000E+00 0. -1.
         13    1    1    2    0    0 -0.15960453424E+02 -0.95056373845E+00 -0.89288580039E+02  0.90708882381E+02  0.10570000000E+00 0.  1.
<mgrwt>
<rscale>  0 0.48869826E+02</rscale>
<asrwt>0</asrwt>
<pdfrwt beam="2">  1        2 0.15768192E-01 0.48869826E+02</pdfrwt>
<pdfrwt beam="1">  1       -2 0.89621659E-03 0.48869826E+02</pdfrwt>
<totfact> 0.63844234E+05</totfact>
</mgrwt>
</event>
<event>
 4    1  0.3704929E-001  0.2250015E+02  0.7818608E-02  0.1699743E+00
          2   -1    0    0  501    0  0.00000000000E+00  0.00000000000E+00  0.17194464769E+01  0.17194484426E+01  0.26000000000E-02 0.  1.
         -2   -1    0    0    0  501 -0.00000000000E+00 -0.00000000000E+00 -0.73607449706E+02  0.73607449752E+02  0.26000000000E-02 0. -1.
        -13    1    1    2    0    0  0.10020106854E+02  0.48653179885E+01 -0.41215242836E+02  0.42694042617E+02  0.10570000000E+00 0.  1.
         13    1    1    2    0    0 -0.10020106854E+02 -0.48653179885E+01 -0.30672760394E+02  0.32632855578E+02  0.10570000000E+00 0. -1.
<mgrwt>
<rscale>  0 0.22500146E+02</rscale>
<asrwt>0</asrwt>
<pdfrwt beam="1">  1        2 0.26453044E-03 0.22500146E+02</pdfrwt>
<pdfrwt beam="2">  1       -2 0.11324221E-01 0.22500146E+02</pdfrwt>
<totfact> 0.24507680E+06</totfact>
</mgrwt>
</event>
<event>
 4    1  0.3704929E-001  0.3181999E+02  0.7818608E-02  0.1578801E+00
         -2   -1    0    0    0  501 -0.00000000000E+00  0.00000000000E+00  0.23603266243E+01  0.23603280563E+01  0.26000000000E-02 0.  1.
          2   -1    0    0  501    0  0.00000000000E+00 -0.00000000000E+00 -0.10724272718E+03  0.10724272722E+03  0.26000000000E-02 0. -1.
        -13    1    1    2    0    0  0.14194583985E+02  0.66835995401E+01 -0.43354024215E+02  0.46105740483E+02  0.10570000000E+00 0.  1.
         13    1    1    2    0    0 -0.14194583985E+02 -0.66835995401E+01 -0.61528376344E+02  0.63497314789E+02  0.10570000000E+00 0. -1.
<mgrwt>
<rscale>  0 0.31819990E+02</rscale>
<asrwt>0</asrwt>
<pdfrwt beam="2">  1        2 0.16498877E-01 0.31819990E+02</pdfrwt>
<pdfrwt beam="1">  1       -2 0.36312737E-03 0.31819990E+02</pdfrwt>
<totfact> 0.18488180E+06</totfact>
</mgrwt>
</event>
<event>
 4    1  0.3704929E-001  0.2528715E+02  0.7818608E-02  0.1656911E+00
          2   -1    0    0  501    0  0.00000000000E+00  0.00000000000E+00  0.82684989435E+01  0.82684993523E+01  0.26000000000E-02 0. -1.
         -2   -1    0    0    0  501 -0.00000000000E+00 -0.00000000000E+00 -0.19333615238E+02  0.19333615413E+02  0.26000000000E-02 0.  1.
        -13    1    1    2    0    0  0.78531949176E+01 -0.67121259422E+01  0.24232783436E+01  0.10611727263E+02  0.10570000000E+00 0. -1.
         13    1    1    2    0    0 -0.78531949176E+01  0.67121259422E+01 -0.13488394638E+02  0.16990387502E+02  0.10570000000E+00 0.  1.
<mgrwt>
<rscale>  0 0.25287150E+02</rscale>
<asrwt>0</asrwt>
<pdfrwt beam="1">  1        2 0.12720768E-02 0.25287150E+02</pdfrwt>
<pdfrwt beam="2">  1       -2 0.29744024E-02 0.25287150E+02</pdfrwt>
<totfact> 0.22395402E+06</totfact>
</mgrwt>
</event>
<event>
 4    1  0.3704929E-001  0.5941161E+02  0.7818608E-02  0.1400318E+00
         -2   -1    0    0    0  501 -0.00000000000E+00  0.00000000000E+00  0.19624382079E+02  0.19624382251E+02  0.26000000000E-02 0. -1.
          2   -1    0    0  501    0  0.00000000000E+00 -0.00000000000E+00 -0.44966251609E+02  0.44966251684E+02  0.26000000000E-02 0.  1.
        -13    1    1    2    0    0 -0.25746357770E+02 -0.83840525020E+00  0.34120775445E+01  0.25985213246E+02  0.10570000000E+00 0.  1.
         13    1    1    2    0    0  0.25746357770E+02  0.83840525020E+00 -0.28753947075E+02  0.38605420690E+02  0.10570000000E+00 0. -1.
<mgrwt>
<rscale>  0 0.59411612E+02</rscale>
<asrwt>0</asrwt>
<pdfrwt beam="2">  1        2 0.69178849E-02 0.59411612E+02</pdfrwt>
<pdfrwt beam="1">  1       -2 0.30191357E-02 0.59411612E+02</pdfrwt>
<totfact> 0.32025249E+05</totfact>
</mgrwt>
</event>
<event>
 4    1  0.3704929E-001  0.2554994E+02  0.7818608E-02  0.1653226E+00
          2   -1    0    0  501    0  0.00000000000E+00  0.00000000000E+00  0.56051775277E+01  0.56051781307E+01  0.26000000000E-02 0.  1.
         -2   -1    0    0    0  501 -0.00000000000E+00 -0.00000000000E+00 -0.29115919423E+02  0.29115919539E+02  0.26000000000E-02 0. -1.
        -13    1    1    2    0    0 -0.94726240097E+01 -0.32417999759E+01 -0.97341770671E+00  0.10059750854E+02  0.10570000000E+00 0.  1.
         13    1    1    2    0    0  0.94726240097E+01  0.32417999759E+01 -0.22537324188E+02  0.24661346816E+02  0.10570000000E+00 0. -1.
<mgrwt>
<rscale>  0 0.25549944E+02</rscale>
<asrwt>0</asrwt>
<pdfrwt beam="1">  1        2 0.86233508E-03 0.25549944E+02</pdfrwt>
<pdfrwt beam="2">  1       -2 0.44793722E-02 0.25549944E+02</pdfrwt>
<totfact> 0.21016084E+06</totfact>
</mgrwt>
</event>
<event>
 4    1  0.3704929E-001  0.4688870E+02  0.7818608E-02  0.1462884E+00
          2   -1    0    0  501    0  0.00000000000E+00  0.00000000000E+00  0.94459422931E+02  0.94459422967E+02  0.26000000000E-02 0.  1.
         -2   -1    0    0    0  501 -0.00000000000E+00 -0.00000000000E+00 -0.58187684075E+01  0.58187689883E+01  0.26000000000E-02 0. -1.
        -13    1    1    2    0    0 -0.27071057949E+01 -0.22585616402E+02  0.56453781467E+02  0.60864432179E+02  0.10570000000E+00 0. -1.
         13    1    1    2    0    0  0.27071057949E+01  0.22585616402E+02  0.32186873058E+02  0.39413759777E+02  0.10570000000E+00 0.  1.
<mgrwt>
<rscale>  0 0.46888700E+02</rscale>
<asrwt>0</asrwt>
<pdfrwt beam="1">  1        2 0.14532219E-01 0.46888700E+02</pdfrwt>
<pdfrwt beam="2">  1       -2 0.89519519E-03 0.46888700E+02</pdfrwt>
<totfact> 0.69390665E+05</totfact>
</mgrwt>
</event>
<event>
 4    1  0.3704929E-001  0.4355535E+02  0.7818608E-02  0.1483567E+00
          2   -1    0    0  501    0  0.00000000000E+00  0.00000000000E+00  0.29061628755E+02  0.29061628872E+02  0.26000000000E-02 0. -1.
         -2   -1    0    0    0  501 -0.00000000000E+00 -0.00000000000E+00 -0.16319360258E+02  0.16319360465E+02  0.26000000000E-02 0.  1.
        -13    1    1    2    0    0 -0.36755496779E+01  0.20579273243E+02  0.12900242500E-01  0.20905202499E+02  0.10570000000E+00 0.  1.
         13    1    1    2    0    0  0.36755496779E+01 -0.20579273243E+02  0.12729368255E+02  0.24475786837E+02  0.10570000000E+00 0. -1.
<mgrwt>
<rscale>  0 0.43555353E+02</rscale>
<asrwt>0</asrwt>
<pdfrwt beam="1">  1        2 0.44710198E-02 0.43555353E+02</pdfrwt>
<pdfrwt beam="2">  1       -2 0.25106708E-02 0.43555353E+02</pdfrwt>
<totfact> 0.66770925E+05</totfact>
</mgrwt>
</event>
<event>
 4    1  0.3704929E-001  0.4337743E+02  0.7818608E-02  0.1484733E+00
          2   -1    0    0  501    0  0.00000000000E+00  0.00000000000E+00  0.11261005160E+02  0.11261005460E+02  0.26000000000E-02 0.  1.
         -2   -1    0    0    0  501 -0.00000000000E+00 -0.00000000000E+00 -0.41772502558E+02  0.41772502639E+02  0.26000000000E-02 0. -1.
        -13    1    1    2    0    0 -0.20985611643E+02 -0.42165374820E+01 -0.10982898941E+02  0.24058477217E+02  0.10570000000E+00 0.  1.
         13    1    1    2    0    0  0.20985611643E+02  0.42165374820E+01 -0.19528598457E+02  0.28975030882E+02  0.10570000000E+00 0. -1.
<mgrwt>
<rscale>  0 0.43377431E+02</rscale>
<asrwt>0</asrwt>
<pdfrwt beam="1">  1        2 0.17324624E-02 0.43377431E+02</pdfrwt>
<pdfrwt beam="2">  1       -2 0.64265388E-02 0.43377431E+02</pdfrwt>
<totfact> 0.58930669E+05</totfact>
</mgrwt>
</event>
<event>
 4    1  0.3704929E-001  0.2029470E+02  0.7818608E-02  0.1739530E+00
          2   -1    0    0  501    0  0.00000000000E+00  0.00000000000E+00  0.46556611127E+02  0.46556611200E+02  0.26000000000E-02 0.  1.
         -2   -1    0    0    0  501 -0.00000000000E+00 -0.00000000000E+00 -0.22116873951E+01  0.22116889234E+01  0.26000000000E-02 0. -1.
        -13    1    1    2    0    0 -0.69008217361E+01 -0.74164589864E+01  0.23557753056E+02  0.25643792740E+02  0.10570000000E+00 0. -1.
         13    1    1    2    0    0  0.69008217361E+01  0.74164589864E+01  0.20787170676E+02  0.23124507384E+02  0.10570000000E+00 0.  1.
<mgrwt>
<rscale>  0 0.20294700E+02</rscale>
<asrwt>0</asrwt>
<pdfrwt beam="1">  1        2 0.71625553E-02 0.20294700E+02</pdfrwt>
<pdfrwt beam="2">  1       -2 0.34025974E-03 0.20294700E+02</pdfrwt>
<totfact> 0.44370232E+06</totfact>
</mgrwt>
</event>
<event>
 4    1  0.3704929E-001  0.2887596E+02  0.7818608E-02  0.1610856E+00
          2   -1    0    0  501    0  0.00000000000E+00  0.00000000000E+00  0.27438650164E+02  0.27438650288E+02  0.26000000000E-02 0.  1.
         -2   -1    0    0    0  501 -0.00000000000E+00 -0.00000000000E+00 -0.75971372448E+01  0.75971376897E+01  0.26000000000E-02 0. -1.
        -13    1    1    2    0    0 -0.11298810952E+02 -0.63373292266E+01  0.17653631353E+02  0.21897185735E+02  0.10570000000E+00 0.  1.
         13    1    1    2    0    0  0.11298810952E+02  0.63373292266E+01  0.21878815666E+01  0.13138602243E+02  0.10570000000E+00 0. -1.
<mgrwt>
<rscale>  0 0.28875955E+02</rscale>
<asrwt>0</asrwt>
<pdfrwt beam="1">  1        2 0.42213307E-02 0.28875955E+02</pdfrwt>
<pdfrwt beam="2">  1       -2 0.11687904E-02 0.28875955E+02</pdfrwt>
<totfact> 0.18326538E+06</totfact>
</mgrwt>
</event>
<event>
 4    1  0.3704929E-001  0.2416135E+02  0.7818608E-02  0.1673348E+00
          2   -1    0    0  501    0  0.00000000000E+00  0.00000000000E+00  0.34682316470E+01  0.34682326216E+01  0.26000000000E-02 0.  1.
         -2   -1    0    0    0  501 -0.00000000000E+00 -0.00000000000E+00 -0.42079848647E+02  0.42079848728E+02  0.26000000000E-02 0. -1.
        -13    1    1    2    0    0 -0.92476211507E+01  0.57552187735E+01 -0.94576628136E+01  0.14425657644E+02  0.10570000000E+00 0.  1.
         13    1    1    2    0    0  0.92476211507E+01 -0.57552187735E+01 -0.29153954187E+02  0.31122423705E+02  0.10570000000E+00 0. -1.
<mgrwt>
<rscale>  0 0.24161348E+02</rscale>
<asrwt>0</asrwt>
<pdfrwt beam="1">  1        2 0.53357421E-03 0.24161348E+02</pdfrwt>
<pdfrwt beam="2">  1       -2 0.64738226E-02 0.24161348E+02</pdfrwt>
<totfact> 0.22825149E+06</totfact>
</mgrwt>
</event>
<event>
 4    1  0.3704929E-001  0.2424472E+02  0.7818608E-02  0.1672093E+00
         -2   -1    0    0    0  501 -0.00000000000E+00  0.00000000000E+00  0.35946499991E+02  0.35946500085E+02  0.26000000000E-02 0.  1.
          2   -1    0    0  501    0  0.00000000000E+00 -0.00000000000E+00 -0.40880652725E+01  0.40880660993E+01  0.26000000000E-02 0. -1.
        -13    1    1    2    0    0 -0.10716390280E+02 -0.17592703029E+00  0.25280201081E+02  0.27458545302E+02  0.10570000000E+00 0.  1.
         13    1    1    2    0    0  0.10716390280E+02  0.17592703029E+00  0.65782336383E+01  0.12576020882E+02  0.10570000000E+00 0. -1.
<mgrwt>
<rscale>  0 0.24244724E+02</rscale>
<asrwt>0</asrwt>
<pdfrwt beam="2">  1        2 0.62893319E-03 0.24244724E+02</pdfrwt>
<pdfrwt beam="1">  1       -2 0.55302308E-02 0.24244724E+02</pdfrwt>
<totfact> 0.23094430E+06</totfact>
</mgrwt>
</event>
<event>
 4    1  0.3704929E-001  0.2531274E+02  0.7818608E-02  0.1656550E+00
         -2   -1    0    0    0  501 -0.00000000000E+00  0.00000000000E+00  0.84674290113E+01  0.84674294105E+01  0.26000000000E-02 0. -1.
          2   -1    0    0  501    0  0.00000000000E+00 -0.00000000000E+00 -0.18917636280E+02  0.18917636459E+02  0.26000000000E-02 0.  1.
        -13    1    1    2    0    0  0.60285817961E+01 -0.10415852299E+02 -0.98798855551E+00  0.12075639588E+02  0.10570000000E+00 0. -1.
         13    1    1    2    0    0 -0.60285817961E+01  0.10415852299E+02 -0.94622187137E+01  0.15309426281E+02  0.10570000000E+00 0.  1.
<mgrwt>
<rscale>  0 0.25312744E+02</rscale>
<asrwt>0</asrwt>
<pdfrwt beam="2">  1        2 0.29104056E-02 0.25312744E+02</pdfrwt>
<pdfrwt beam="1">  1       -2 0.13026814E-02 0.25312744E+02</pdfrwt>
<totfact> 0.24082712E+06</totfact>
</mgrwt>
</event>
<event>
 4    1  0.3704929E-001  0.2365792E+02  0.7818608E-02  0.1681062E+00
         -2   -1    0    0    0  501 -0.00000000000E+00  0.00000000000E+00  0.29751815761E+02  0.29751815875E+02  0.26000000000E-02 0. -1.
          2   -1    0    0  501    0  0.00000000000E+00 -0.00000000000E+00 -0.47030491677E+01  0.47030498864E+01  0.26000000000E-02 0.  1.
        -13    1    1    2    0    0  0.96255987417E+01 -0.34958125685E+01  0.39033848343E+01  0.10959947185E+02  0.10570000000E+00 0.  1.
         13    1    1    2    0    0 -0.96255987417E+01  0.34958125685E+01  0.21145381759E+02  0.23494918576E+02  0.10570000000E+00 0. -1.
<mgrwt>
<rscale>  0 0.23657918E+02</rscale>
<asrwt>0</asrwt>
<pdfrwt beam="2">  1        2 0.72354609E-03 0.23657918E+02</pdfrwt>
<pdfrwt beam="1">  1       -2 0.45772025E-02 0.23657918E+02</pdfrwt>
<totfact> 0.24914027E+06</totfact>
</mgrwt>
</event>
<event>
 4    1  0.3704929E-001  0.3030774E+02  0.7818608E-02  0.1594712E+00
         -2   -1    0    0    0  501 -0.00000000000E+00  0.00000000000E+00  0.62475645814E+01  0.62475651224E+01  0.26000000000E-02 0. -1.
          2   -1    0    0  501    0  0.00000000000E+00 -0.00000000000E+00 -0.36756696451E+02  0.36756696543E+02  0.26000000000E-02 0.  1.
        -13    1    1    2    0    0  0.14886688189E+02  0.84497943958E+00 -0.11420540302E+02  0.18782102885E+02  0.10570000000E+00 0.  1.
         13    1    1    2    0    0 -0.14886688189E+02 -0.84497943958E+00 -0.19088591567E+02  0.24222158781E+02  0.10570000000E+00 0. -1.
<mgrwt>
<rscale>  0 0.30307745E+02</rscale>
<asrwt>0</asrwt>
<pdfrwt beam="2">  1        2 0.56548763E-02 0.30307745E+02</pdfrwt>
<pdfrwt beam="1">  1       -2 0.96116385E-03 0.30307745E+02</pdfrwt>
<totfact> 0.16941042E+06</totfact>
</mgrwt>
</event>
<event>
 4    1  0.3704929E-001  0.2396327E+02  0.7818608E-02  0.1676355E+00
          2   -1    0    0  501    0  0.00000000000E+00  0.00000000000E+00  0.16121631326E+01  0.16121652292E+01  0.26000000000E-02 0. -1.
         -2   -1    0    0    0  501 -0.00000000000E+00 -0.00000000000E+00 -0.89047702256E+02  0.89047702294E+02  0.26000000000E-02 0.  1.
        -13    1    1    2    0    0  0.94595211078E+01 -0.70117535987E+01 -0.35342154677E+02  0.37252198563E+02  0.10570000000E+00 0. -1.
         13    1    1    2    0    0 -0.94595211078E+01  0.70117535987E+01 -0.52093384447E+02  0.53407668960E+02  0.10570000000E+00 0.  1.
<mgrwt>
<rscale>  0 0.23963265E+02</rscale>
<asrwt>0</asrwt>
<pdfrwt beam="1">  1        2 0.24802533E-03 0.23963265E+02</pdfrwt>
<pdfrwt beam="2">  1       -2 0.13699643E-01 0.23963265E+02</pdfrwt>
<totfact> 0.20466817E+06</totfact>
</mgrwt>
</event>
<event>
 4    1  0.3704929E-001  0.6283214E+02  0.7818608E-02  0.1386317E+00
         -2   -1    0    0    0  501 -0.00000000000E+00  0.00000000000E+00  0.50256853421E+01  0.50256860147E+01  0.26000000000E-02 0.  1.
          2   -1    0    0  501    0  0.00000000000E+00 -0.00000000000E+00 -0.19638502592E+03  0.19638502593E+03  0.26000000000E-02 0. -1.
        -13    1    1    2    0    0 -0.26035485189E+02 -0.17351089400E+02 -0.86583935441E+02  0.92063542412E+02  0.10570000000E+00 0. -1.
         13    1    1    2    0    0  0.26035485189E+02  0.17351089400E+02 -0.10477540513E+03  0.10934716954E+03  0.10570000000E+00 0.  1.
<mgrwt>
<rscale>  0 0.62832139E+02</rscale>
<asrwt>0</asrwt>
<pdfrwt beam="2">  1        2 0.30213075E-01 0.62832139E+02</pdfrwt>
<pdfrwt beam="1">  1       -2 0.77318256E-03 0.62832139E+02</pdfrwt>
<totfact> 0.40964748E+05</totfact>
</mgrwt>
</event>
<event>
 4    1  0.3704929E-001  0.2174462E+02  0.7818608E-02  0.1712706E+00
         -2   -1    0    0    0  501 -0.00000000000E+00  0.00000000000E+00  0.36601559883E+02  0.36601559976E+02  0.26000000000E-02 0.  1.
          2   -1    0    0  501    0  0.00000000000E+00 -0.00000000000E+00 -0.32295637105E+01  0.32295647571E+01  0.26000000000E-02 0. -1.
        -13    1    1    2    0    0  0.14006715704E+01  0.10605057476E+02  0.20241138757E+02  0.22894191307E+02  0.10570000000E+00 0.  1.
         13    1    1    2    0    0 -0.14006715704E+01 -0.10605057476E+02  0.13130857416E+02  0.16936933426E+02  0.10570000000E+00 0. -1.
<mgrwt>
<rscale>  0 0.21744617E+02</rscale>
<asrwt>0</asrwt>
<pdfrwt beam="2">  1        2 0.49685602E-03 0.21744617E+02</pdfrwt>
<pdfrwt beam="1">  1       -2 0.56310095E-02 0.21744617E+02</pdfrwt>
<totfact> 0.29364014E+06</totfact>
</mgrwt>
</event>
<event>
 4    1  0.3704929E-001  0.3167498E+02  0.7818608E-02  0.1580279E+00
         -2   -1    0    0    0  501 -0.00000000000E+00  0.00000000000E+00  0.13562411214E+03  0.13562411217E+03  0.26000000000E-02 0. -1.
          2   -1    0    0  501    0  0.00000000000E+00 -0.00000000000E+00 -0.18494200898E+01  0.18494219174E+01  0.26000000000E-02 0.  1.
        -13    1    1    2    0    0 -0.11052157396E+02 -0.11204084250E+02  0.74569775451E+02  0.76212494188E+02  0.10570000000E+00 0.  1.
         13    1    1    2    0    0  0.11052157396E+02  0.11204084250E+02  0.59204916604E+02  0.61261039900E+02  0.10570000000E+00 0. -1.
<mgrwt>
<rscale>  0 0.31674980E+02</rscale>
<asrwt>0</asrwt>
<pdfrwt beam="2">  1        2 0.28452630E-03 0.31674980E+02</pdfrwt>
<pdfrwt beam="1">  1       -2 0.20865249E-01 0.31674980E+02</pdfrwt>
<totfact> 0.96738072E+05</totfact>
</mgrwt>
</event>
<event>
 4    1  0.3704929E-001  0.2308371E+02  0.7818608E-02  0.1690157E+00
         -2   -1    0    0    0  501 -0.00000000000E+00  0.00000000000E+00  0.51822243961E+02  0.51822244026E+02  0.26000000000E-02 0. -1.
          2   -1    0    0  501    0  0.00000000000E+00 -0.00000000000E+00 -0.25706019701E+01  0.25706032850E+01  0.26000000000E-02 0.  1.
        -13    1    1    2    0    0  0.67394639533E+01  0.89108830689E+01  0.31446580263E+02  0.33372485586E+02  0.10570000000E+00 0. -1.
         13    1    1    2    0    0 -0.67394639533E+01 -0.89108830689E+01  0.17805061728E+02  0.21020361725E+02  0.10570000000E+00 0.  1.
<mgrwt>
<rscale>  0 0.23083709E+02</rscale>
<asrwt>0</asrwt>
<pdfrwt beam="2">  1        2 0.39547735E-03 0.23083709E+02</pdfrwt>
<pdfrwt beam="1">  1       -2 0.79726526E-02 0.23083709E+02</pdfrwt>
<totfact> 0.24560544E+06</totfact>
</mgrwt>
</event>
<event>
 4    1  0.3704929E-001  0.2598250E+02  0.7818608E-02  0.1647278E+00
         -2   -1    0    0    0  501 -0.00000000000E+00  0.00000000000E+00  0.21181416701E+02  0.21181416861E+02  0.26000000000E-02 0. -1.
          2   -1    0    0  501    0  0.00000000000E+00 -0.00000000000E+00 -0.79679569494E+01  0.79679573736E+01  0.26000000000E-02 0.  1.
        -13    1    1    2    0    0  0.56605969267E+01  0.11340724752E+02  0.98010603892E+01  0.16022682444E+02  0.10570000000E+00 0.  1.
         13    1    1    2    0    0 -0.56605969267E+01 -0.11340724752E+02  0.34123993627E+01  0.13126691790E+02  0.10570000000E+00 0. -1.
<mgrwt>
<rscale>  0 0.25982504E+02</rscale>
<asrwt>0</asrwt>
<pdfrwt beam="2">  1        2 0.12258396E-02 0.25982504E+02</pdfrwt>
<pdfrwt beam="1">  1       -2 0.32586795E-02 0.25982504E+02</pdfrwt>
<totfact> 0.20896725E+06</totfact>
</mgrwt>
</event>
<event>
 4    1  0.3704929E-001  0.3866497E+02  0.7818608E-02  0.1518272E+00
          2   -1    0    0  501    0  0.00000000000E+00  0.00000000000E+00  0.21014862414E+02  0.21014862575E+02  0.26000000000E-02 0.  1.
         -2   -1    0    0    0  501 -0.00000000000E+00 -0.00000000000E+00 -0.17784789456E+02  0.17784789646E+02  0.26000000000E-02 0. -1.
        -13    1    1    2    0    0  0.27708296205E+01 -0.13516337043E+02 -0.11973361741E+02  0.18268591290E+02  0.10570000000E+00 0. -1.
         13    1    1    2    0    0 -0.27708296205E+01  0.13516337043E+02  0.15203434699E+02  0.20531060932E+02  0.10570000000E+00 0.  1.
<mgrwt>
<rscale>  0 0.38664967E+02</rscale>
<asrwt>0</asrwt>
<pdfrwt beam="1">  1        2 0.32330558E-02 0.38664967E+02</pdfrwt>
<pdfrwt beam="2">  1       -2 0.27361215E-02 0.38664967E+02</pdfrwt>
<totfact> 0.86491869E+05</totfact>
</mgrwt>
</event>
<event>
 4    1  0.3704929E-001  0.8274128E+02  0.7818608E-02  0.1321447E+00
         -2   -1    0    0    0  501 -0.00000000000E+00  0.00000000000E+00  0.20927762094E+02  0.20927762255E+02  0.26000000000E-02 0. -1.
          2   -1    0    0  501    0  0.00000000000E+00 -0.00000000000E+00 -0.81782747472E+02  0.81782747514E+02  0.26000000000E-02 0.  1.
        -13    1    1    2    0    0  0.30639088021E+02  0.35652746462E+01  0.37952505057E+01  0.31078609958E+02  0.10570000000E+00 0. -1.
         13    1    1    2    0    0 -0.30639088021E+02 -0.35652746462E+01 -0.64650235884E+02  0.71631899810E+02  0.10570000000E+00 0.  1.
<mgrwt>
<rscale>  0 0.82741281E+02</rscale>
<asrwt>0</asrwt>
<pdfrwt beam="2">  1        2 0.12581961E-01 0.82741281E+02</pdfrwt>
<pdfrwt beam="1">  1       -2 0.32196558E-02 0.82741281E+02</pdfrwt>
<totfact> 0.15100874E+05</totfact>
</mgrwt>
</event>
<event>
 4    1  0.3704929E-001  0.3467387E+02  0.7818608E-02  0.1551516E+00
          2   -1    0    0  501    0  0.00000000000E+00  0.00000000000E+00  0.13333249489E+02  0.13333249743E+02  0.26000000000E-02 0.  1.
         -2   -1    0    0    0  501 -0.00000000000E+00 -0.00000000000E+00 -0.22542837489E+02  0.22542837639E+02  0.26000000000E-02 0. -1.
        -13    1    1    2    0    0  0.15043877577E+02  0.62380108962E+01 -0.10754532404E+02  0.19516715200E+02  0.10570000000E+00 0. -1.
         13    1    1    2    0    0 -0.15043877577E+02 -0.62380108962E+01  0.15449444040E+01  0.16359372182E+02  0.10570000000E+00 0.  1.
<mgrwt>
<rscale>  0 0.34673868E+02</rscale>
<asrwt>0</asrwt>
<pdfrwt beam="1">  1        2 0.20512692E-02 0.34673868E+02</pdfrwt>
<pdfrwt beam="2">  1       -2 0.34681289E-02 0.34673868E+02</pdfrwt>
<totfact> 0.10784805E+06</totfact>
</mgrwt>
</event>
<event>
 4    1  0.3704929E-001  0.3027614E+02  0.7818608E-02  0.1595056E+00
         -2   -1    0    0    0  501 -0.00000000000E+00  0.00000000000E+00  0.62561114176E+01  0.62561119579E+01  0.26000000000E-02 0. -1.
          2   -1    0    0  501    0  0.00000000000E+00 -0.00000000000E+00 -0.36629965303E+02  0.36629965395E+02  0.26000000000E-02 0.  1.
        -13    1    1    2    0    0  0.10178917173E+02  0.83236976900E+01 -0.25811195550E+02  0.28967624795E+02  0.10570000000E+00 0.  1.
         13    1    1    2    0    0 -0.10178917173E+02 -0.83236976900E+01 -0.45626583353E+01  0.13918452558E+02  0.10570000000E+00 0. -1.
<mgrwt>
<rscale>  0 0.30276140E+02</rscale>
<asrwt>0</asrwt>
<pdfrwt beam="2">  1        2 0.56353792E-02 0.30276140E+02</pdfrwt>
<pdfrwt beam="1">  1       -2 0.96247875E-03 0.30276140E+02</pdfrwt>
<totfact> 0.16975418E+06</totfact>
</mgrwt>
</event>
<event>
 4    1  0.3704929E-001  0.3215114E+02  0.7818608E-02  0.1575459E+00
          2   -1    0    0  501    0  0.00000000000E+00  0.00000000000E+00  0.78812145985E+01  0.78812150274E+01  0.26000000000E-02 0.  1.
         -2   -1    0    0    0  501 -0.00000000000E+00 -0.00000000000E+00 -0.32789861820E+02  0.32789861923E+02  0.26000000000E-02 0. -1.
        -13    1    1    2    0    0 -0.14165960493E+02  0.11492013058E+01 -0.21955926878E+02  0.26154712728E+02  0.10570000000E+00 0. -1.
         13    1    1    2    0    0  0.14165960493E+02 -0.11492013058E+01 -0.29527203434E+01  0.14516364222E+02  0.10570000000E+00 0.  1.
<mgrwt>
<rscale>  0 0.32151140E+02</rscale>
<asrwt>0</asrwt>
<pdfrwt beam="1">  1        2 0.12124946E-02 0.32151140E+02</pdfrwt>
<pdfrwt beam="2">  1       -2 0.50445941E-02 0.32151140E+02</pdfrwt>
<totfact> 0.12276882E+06</totfact>
</mgrwt>
</event>
<event>
 4    1  0.3704929E-001  0.2848680E+02  0.7818608E-02  0.1615444E+00
          2   -1    0    0  501    0  0.00000000000E+00  0.00000000000E+00  0.39456844186E+02  0.39456844272E+02  0.26000000000E-02 0. -1.
         -2   -1    0    0    0  501 -0.00000000000E+00 -0.00000000000E+00 -0.51416806958E+01  0.51416813532E+01  0.26000000000E-02 0.  1.
        -13    1    1    2    0    0 -0.85325661721E+01 -0.70950080742E+01  0.31136033830E+02  0.33054615415E+02  0.10570000000E+00 0. -1.
         13    1    1    2    0    0  0.85325661721E+01  0.70950080742E+01  0.31791296602E+01  0.11543910210E+02  0.10570000000E+00 0.  1.
<mgrwt>
<rscale>  0 0.28486805E+02</rscale>
<asrwt>0</asrwt>
<pdfrwt beam="1">  1        2 0.60702835E-02 0.28486805E+02</pdfrwt>
<pdfrwt beam="2">  1       -2 0.79102789E-03 0.28486805E+02</pdfrwt>
<totfact> 0.19834815E+06</totfact>
</mgrwt>
</event>
<event>
 4    1  0.3704929E-001  0.3166216E+02  0.7818608E-02  0.1580410E+00
         -2   -1    0    0    0  501 -0.00000000000E+00  0.00000000000E+00  0.31129234718E+02  0.31129234827E+02  0.26000000000E-02 0. -1.
          2   -1    0    0  501    0  0.00000000000E+00 -0.00000000000E+00 -0.80510505622E+01  0.80510509820E+01  0.26000000000E-02 0.  1.
        -13    1    1    2    0    0 -0.98702641194E+01 -0.71710759016E+01 -0.94414582485E+00  0.12237198503E+02  0.10570000000E+00 0.  1.
         13    1    1    2    0    0  0.98702641194E+01  0.71710759016E+01  0.24022329981E+02  0.26943087306E+02  0.10570000000E+00 0. -1.
<mgrwt>
<rscale>  0 0.31662157E+02</rscale>
<asrwt>0</asrwt>
<pdfrwt beam="2">  1        2 0.12386232E-02 0.31662157E+02</pdfrwt>
<pdfrwt beam="1">  1       -2 0.47891130E-02 0.31662157E+02</pdfrwt>
<totfact> 0.12798534E+06</totfact>
</mgrwt>
</event>
<event>
 4    1  0.3704929E-001  0.3140350E+02  0.7818608E-02  0.1583074E+00
          2   -1    0    0  501    0  0.00000000000E+00  0.00000000000E+00  0.44722056266E+01  0.44722063823E+01  0.26000000000E-02 0.  1.
         -2   -1    0    0    0  501 -0.00000000000E+00 -0.00000000000E+00 -0.55128261267E+02  0.55128261328E+02  0.26000000000E-02 0. -1.
        -13    1    1    2    0    0 -0.61201686553E+01 -0.14419009094E+02 -0.23275595481E+02  0.28055815888E+02  0.10570000000E+00 0.  1.
         13    1    1    2    0    0  0.61201686553E+01  0.14419009094E+02 -0.27380460159E+02  0.31544651823E+02  0.10570000000E+00 0. -1.
<mgrwt>
<rscale>  0 0.31403499E+02</rscale>
<asrwt>0</asrwt>
<pdfrwt beam="1">  1        2 0.68803174E-03 0.31403499E+02</pdfrwt>
<pdfrwt beam="2">  1       -2 0.84812706E-02 0.31403499E+02</pdfrwt>
<totfact> 0.12061695E+06</totfact>
</mgrwt>
</event>
<event>
 4    1  0.3704929E-001  0.4536681E+02  0.7818608E-02  0.1472065E+00
          2   -1    0    0  501    0  0.00000000000E+00  0.00000000000E+00  0.93830298539E+02  0.93830298575E+02  0.26000000000E-02 0.  1.
         -2   -1    0    0    0  501 -0.00000000000E+00 -0.00000000000E+00 -0.54836961160E+01  0.54836967324E+01  0.26000000000E-02 0. -1.
        -13    1    1    2    0    0  0.73016455074E+01  0.19029471303E+02  0.65964899684E+02  0.69042117348E+02  0.10570000000E+00 0.  1.
         13    1    1    2    0    0 -0.73016455074E+01 -0.19029471303E+02  0.22381702740E+02  0.30271877959E+02  0.10570000000E+00 0. -1.
<mgrwt>
<rscale>  0 0.45366811E+02</rscale>
<asrwt>0</asrwt>
<pdfrwt beam="1">  1        2 0.14435429E-01 0.45366811E+02</pdfrwt>
<pdfrwt beam="2">  1       -2 0.84364568E-03 0.45366811E+02</pdfrwt>
<totfact> 0.75254001E+05</totfact>
</mgrwt>
</event>
<event>
 4    1  0.3704929E-001  0.4397985E+02  0.7818608E-02  0.1480813E+00
         -2   -1    0    0    0  501 -0.00000000000E+00  0.00000000000E+00  0.51024036257E+01  0.51024042882E+01  0.26000000000E-02 0.  1.
          2   -1    0    0  501    0  0.00000000000E+00 -0.00000000000E+00 -0.94770373092E+02  0.94770373128E+02  0.26000000000E-02 0. -1.
        -13    1    1    2    0    0 -0.69961115748E+01 -0.20522661731E+02 -0.36514908389E+02  0.42467339554E+02  0.10570000000E+00 0.  1.
         13    1    1    2    0    0  0.69961115748E+01  0.20522661731E+02 -0.53153061078E+02  0.57405437862E+02  0.10570000000E+00 0. -1.
<mgrwt>
<rscale>  0 0.43979847E+02</rscale>
<asrwt>0</asrwt>
<pdfrwt beam="2">  1        2 0.14580056E-01 0.43979847E+02</pdfrwt>
<pdfrwt beam="1">  1       -2 0.78498529E-03 0.43979847E+02</pdfrwt>
<totfact> 0.81526945E+05</totfact>
</mgrwt>
</event>
<event>
 4    1  0.3704929E-001  0.2465084E+02  0.7818608E-02  0.1666068E+00
          2   -1    0    0  501    0  0.00000000000E+00  0.00000000000E+00  0.96245694458E+01  0.96245697970E+01  0.26000000000E-02 0.  1.
         -2   -1    0    0    0  501 -0.00000000000E+00 -0.00000000000E+00 -0.15784182473E+02  0.15784182687E+02  0.26000000000E-02 0. -1.
        -13    1    1    2    0    0  0.78471318219E+01  0.91498758577E+01 -0.57292625265E+01  0.13346659793E+02  0.10570000000E+00 0. -1.
         13    1    1    2    0    0 -0.78471318219E+01 -0.91498758577E+01 -0.43035050047E+00  0.12062092691E+02  0.10570000000E+00 0.  1.
<mgrwt>
<rscale>  0 0.24650839E+02</rscale>
<asrwt>0</asrwt>
<pdfrwt beam="1">  1        2 0.14807030E-02 0.24650839E+02</pdfrwt>
<pdfrwt beam="2">  1       -2 0.24283358E-02 0.24650839E+02</pdfrwt>
<totfact> 0.24136705E+06</totfact>
</mgrwt>
</event>
<event>
 4    1  0.3704929E-001  0.2114895E+02  0.7818608E-02  0.1723400E+00
         -2   -1    0    0    0  501 -0.00000000000E+00  0.00000000000E+00  0.25823139695E+01  0.25823152784E+01  0.26000000000E-02 0. -1.
          2   -1    0    0  501    0  0.00000000000E+00 -0.00000000000E+00 -0.43302030296E+02  0.43302030374E+02  0.26000000000E-02 0.  1.
        -13    1    1    2    0    0  0.10291717772E+02  0.21738800506E+01 -0.22699676296E+02  0.25018626773E+02  0.10570000000E+00 0. -1.
         13    1    1    2    0    0 -0.10291717772E+02 -0.21738800506E+01 -0.18020040031E+02  0.20865718880E+02  0.10570000000E+00 0.  1.
<mgrwt>
<rscale>  0 0.21148945E+02</rscale>
<asrwt>0</asrwt>
<pdfrwt beam="2">  1        2 0.66618504E-02 0.21148945E+02</pdfrwt>
<pdfrwt beam="1">  1       -2 0.39727921E-03 0.21148945E+02</pdfrwt>
<totfact> 0.40030398E+06</totfact>
</mgrwt>
</event>
<event>
 4    1  0.3704929E-001  0.4002748E+02  0.7818608E-02  0.1508009E+00
          2   -1    0    0  501    0  0.00000000000E+00  0.00000000000E+00  0.25352527516E+02  0.25352527649E+02  0.26000000000E-02 0.  1.
         -2   -1    0    0    0  501 -0.00000000000E+00 -0.00000000000E+00 -0.15799208673E+02  0.15799208886E+02  0.26000000000E-02 0. -1.
        -13    1    1    2    0    0 -0.19052581629E+02  0.61264635284E+01  0.47093596235E+01  0.20560244713E+02  0.10570000000E+00 0. -1.
         13    1    1    2    0    0  0.19052581629E+02 -0.61264635284E+01  0.48439592201E+01  0.20591491823E+02  0.10570000000E+00 0.  1.
<mgrwt>
<rscale>  0 0.40027485E+02</rscale>
<asrwt>0</asrwt>
<pdfrwt beam="1">  1        2 0.39003889E-02 0.40027485E+02</pdfrwt>
<pdfrwt beam="2">  1       -2 0.24306475E-02 0.40027485E+02</pdfrwt>
<totfact> 0.81203899E+05</totfact>
</mgrwt>
</event>
<event>
 4    1  0.3704929E-001  0.3872931E+02  0.7818608E-02  0.1517776E+00
          2   -1    0    0  501    0  0.00000000000E+00  0.00000000000E+00  0.28830408087E+02  0.28830408204E+02  0.26000000000E-02 0.  1.
         -2   -1    0    0    0  501 -0.00000000000E+00 -0.00000000000E+00 -0.13006744784E+02  0.13006745044E+02  0.26000000000E-02 0. -1.
        -13    1    1    2    0    0 -0.39648258817E+01 -0.14868996221E+02  0.20609733796E+02  0.25721181787E+02  0.10570000000E+00 0.  1.
         13    1    1    2    0    0  0.39648258817E+01  0.14868996221E+02 -0.47860704932E+01  0.16115971461E+02  0.10570000000E+00 0. -1.
<mgrwt>
<rscale>  0 0.38729305E+02</rscale>
<asrwt>0</asrwt>
<pdfrwt beam="1">  1        2 0.44354474E-02 0.38729305E+02</pdfrwt>
<pdfrwt beam="2">  1       -2 0.20010377E-02 0.38729305E+02</pdfrwt>
<totfact> 0.89803081E+05</totfact>
</mgrwt>
</event>
<event>
 4    1  0.3704929E-001  0.2835165E+02  0.7818608E-02  0.1617058E+00
          2   -1    0    0  501    0  0.00000000000E+00  0.00000000000E+00  0.93052913176E+01  0.93052916809E+01  0.26000000000E-02 0. -1.
         -2   -1    0    0    0  501 -0.00000000000E+00 -0.00000000000E+00 -0.21595664784E+02  0.21595664940E+02  0.26000000000E-02 0.  1.
        -13    1    1    2    0    0  0.78689348367E+00  0.11953620740E+02  0.21148163221E+01  0.12165190945E+02  0.10570000000E+00 0. -1.
         13    1    1    2    0    0 -0.78689348367E+00 -0.11953620740E+02 -0.14405189788E+02  0.18735765676E+02  0.10570000000E+00 0.  1.
<mgrwt>
<rscale>  0 0.28351646E+02</rscale>
<asrwt>0</asrwt>
<pdfrwt beam="1">  1        2 0.14315833E-02 0.28351646E+02</pdfrwt>
<pdfrwt beam="2">  1       -2 0.33224100E-02 0.28351646E+02</pdfrwt>
<totfact> 0.17138912E+06</totfact>
</mgrwt>
</event>
<event>
 4    1  0.3704929E-001  0.2113142E+02  0.7818608E-02  0.1723721E+00
         -2   -1    0    0    0  501 -0.00000000000E+00  0.00000000000E+00  0.19320345037E+01  0.19320362532E+01  0.26000000000E-02 0. -1.
          2   -1    0    0  501    0  0.00000000000E+00 -0.00000000000E+00 -0.57780632955E+02  0.57780633014E+02  0.26000000000E-02 0.  1.
        -13    1    1    2    0    0 -0.11695267736E+01 -0.10134599731E+02 -0.35686267013E+02  0.37116017167E+02  0.10570000000E+00 0.  1.
         13    1    1    2    0    0  0.11695267736E+01  0.10134599731E+02 -0.20162331439E+02  0.22596652100E+02  0.10570000000E+00 0. -1.
<mgrwt>
<rscale>  0 0.21131420E+02</rscale>
<asrwt>0</asrwt>
<pdfrwt beam="2">  1        2 0.88893270E-02 0.21131420E+02</pdfrwt>
<pdfrwt beam="1">  1       -2 0.29723626E-03 0.21131420E+02</pdfrwt>
<totfact> 0.41911709E+06</totfact>
</mgrwt>
</event>
<event>
 4    1  0.3704929E-001  0.2454660E+02  0.7818608E-02  0.1667601E+00
          2   -1    0    0  501    0  0.00000000000E+00  0.00000000000E+00  0.22817708492E+01  0.22817723305E+01  0.26000000000E-02 0.  1.
         -2   -1    0    0    0  501 -0.00000000000E+00 -0.00000000000E+00 -0.66016206015E+02  0.66016206066E+02  0.26000000000E-02 0. -1.
        -13    1    1    2    0    0  0.57022770496E+01  0.10442303056E+02 -0.40244482453E+02  0.41966500891E+02  0.10570000000E+00 0. -1.
         13    1    1    2    0    0 -0.57022770496E+01 -0.10442303056E+02 -0.23489952713E+02  0.26331477505E+02  0.10570000000E+00 0.  1.
<mgrwt>
<rscale>  0 0.24546601E+02</rscale>
<asrwt>0</asrwt>
<pdfrwt beam="1">  1        2 0.35104184E-03 0.24546601E+02</pdfrwt>
<pdfrwt beam="2">  1       -2 0.10156338E-01 0.24546601E+02</pdfrwt>
<totfact> 0.20574274E+06</totfact>
</mgrwt>
</event>
<event>
 4    1  0.3704929E-001  0.2360338E+02  0.7818608E-02  0.1681912E+00
         -2   -1    0    0    0  501 -0.00000000000E+00  0.00000000000E+00  0.14757936416E+01  0.14757959319E+01  0.26000000000E-02 0. -1.
          2   -1    0    0  501    0  0.00000000000E+00 -0.00000000000E+00 -0.94376160490E+02  0.94376160526E+02  0.26000000000E-02 0.  1.
        -13    1    1    2    0    0 -0.43411648189E+01 -0.10972512464E+02 -0.47116658419E+02  0.48571930318E+02  0.10570000000E+00 0. -1.
         13    1    1    2    0    0  0.43411648189E+01  0.10972512464E+02 -0.45783708429E+02  0.47280026140E+02  0.10570000000E+00 0.  1.
<mgrwt>
<rscale>  0 0.23603377E+02</rscale>
<asrwt>0</asrwt>
<pdfrwt beam="2">  1        2 0.14519405E-01 0.23603377E+02</pdfrwt>
<pdfrwt beam="1">  1       -2 0.22704543E-03 0.23603377E+02</pdfrwt>
<totfact> 0.35929337E+06</totfact>
</mgrwt>
</event>
<event>
 4    1  0.3704929E-001  0.2722985E+02  0.7818608E-02  0.1630896E+00
         -2   -1    0    0    0  501 -0.00000000000E+00  0.00000000000E+00  0.38486688644E+02  0.38486688732E+02  0.26000000000E-02 0.  1.
          2   -1    0    0  501    0  0.00000000000E+00 -0.00000000000E+00 -0.48163691801E+01  0.48163698818E+01  0.26000000000E-02 0. -1.
        -13    1    1    2    0    0  0.87186395383E+01 -0.98738968099E+01  0.22308685701E+02  0.25907472741E+02  0.10570000000E+00 0.  1.
         13    1    1    2    0    0 -0.87186395383E+01  0.98738968099E+01  0.11361633763E+02  0.17395585873E+02  0.10570000000E+00 0. -1.
<mgrwt>
<rscale>  0 0.27229845E+02</rscale>
<asrwt>0</asrwt>
<pdfrwt beam="2">  1        2 0.74097991E-03 0.27229845E+02</pdfrwt>
<pdfrwt beam="1">  1       -2 0.59210293E-02 0.27229845E+02</pdfrwt>
<totfact> 0.17616319E+06</totfact>
</mgrwt>
</event>
<event>
 4    1  0.3704929E-001  0.2209742E+02  0.7818608E-02  0.1706573E+00
          2   -1    0    0  501    0  0.00000000000E+00  0.00000000000E+00  0.21506597768E+01  0.21506613484E+01  0.26000000000E-02 0.  1.
         -2   -1    0    0    0  501 -0.00000000000E+00 -0.00000000000E+00 -0.56761165653E+02  0.56761165713E+02  0.26000000000E-02 0. -1.
        -13    1    1    2    0    0 -0.61149492061E+01 -0.80282075701E+01 -0.15317682057E+02  0.18343589526E+02  0.10570000000E+00 0.  1.
         13    1    1    2    0    0  0.61149492061E+01  0.80282075701E+01 -0.39292823819E+02  0.40568237536E+02  0.10570000000E+00 0. -1.
<mgrwt>
<rscale>  0 0.22097421E+02</rscale>
<asrwt>0</asrwt>
<pdfrwt beam="1">  1        2 0.33087090E-03 0.22097421E+02</pdfrwt>
<pdfrwt beam="2">  1       -2 0.87324860E-02 0.22097421E+02</pdfrwt>
<totfact> 0.26694556E+06</totfact>
</mgrwt>
</event>
<event>
 4    1  0.3704929E-001  0.3915069E+02  0.7818608E-02  0.1514556E+00
          2   -1    0    0  501    0  0.00000000000E+00  0.00000000000E+00  0.16195724792E+02  0.16195725000E+02  0.26000000000E-02 0. -1.
         -2   -1    0    0    0  501 -0.00000000000E+00 -0.00000000000E+00 -0.23660202433E+02  0.23660202576E+02  0.26000000000E-02 0.  1.
        -13    1    1    2    0    0  0.11602307893E+02  0.54716766247E+01  0.11320257979E+02  0.17108834172E+02  0.10570000000E+00 0. -1.
         13    1    1    2    0    0 -0.11602307893E+02 -0.54716766247E+01 -0.18784735620E+02  0.22747093404E+02  0.10570000000E+00 0.  1.
<mgrwt>
<rscale>  0 0.39150690E+02</rscale>
<asrwt>0</asrwt>
<pdfrwt beam="1">  1        2 0.24916500E-02 0.39150690E+02</pdfrwt>
<pdfrwt beam="2">  1       -2 0.36400312E-02 0.39150690E+02</pdfrwt>
<totfact> 0.81048626E+05</totfact>
</mgrwt>
</event>
<event>
 4    1  0.3704929E-001  0.2486919E+02  0.7818608E-02  0.1662888E+00
          2   -1    0    0  501    0  0.00000000000E+00  0.00000000000E+00  0.71889234450E+02  0.71889234497E+02  0.26000000000E-02 0.  1.
         -2   -1    0    0    0  501 -0.00000000000E+00 -0.00000000000E+00 -0.21507963864E+01  0.21507979579E+01  0.26000000000E-02 0. -1.
        -13    1    1    2    0    0  0.96612604639E+01 -0.48104192876E+01  0.53252643591E+02  0.54335396468E+02  0.10570000000E+00 0.  1.
         13    1    1    2    0    0 -0.96612604639E+01  0.48104192876E+01  0.16485794473E+02  0.19704635987E+02  0.10570000000E+00 0. -1.
<mgrwt>
<rscale>  0 0.24869191E+02</rscale>
<asrwt>0</asrwt>
<pdfrwt beam="1">  1        2 0.11059881E-01 0.24869191E+02</pdfrwt>
<pdfrwt beam="2">  1       -2 0.33089190E-03 0.24869191E+02</pdfrwt>
<totfact> 0.30108023E+06</totfact>
</mgrwt>
</event>
<event>
 4    1  0.3704929E-001  0.8013099E+02  0.7818608E-02  0.1328680E+00
         -2   -1    0    0    0  501 -0.00000000000E+00  0.00000000000E+00  0.12930924104E+02  0.12930924365E+02  0.26000000000E-02 0.  1.
          2   -1    0    0  501    0  0.00000000000E+00 -0.00000000000E+00 -0.12413991816E+03  0.12413991819E+03  0.26000000000E-02 0. -1.
        -13    1    1    2    0    0  0.64535080627E+01  0.35989923575E+02 -0.83624184161E+02  0.91268492452E+02  0.10570000000E+00 0. -1.
         13    1    1    2    0    0 -0.64535080627E+01 -0.35989923575E+02 -0.27584809895E+02  0.45802350100E+02  0.10570000000E+00 0.  1.
<mgrwt>
<rscale>  0 0.80130990E+02</rscale>
<asrwt>0</asrwt>
<pdfrwt beam="2">  1        2 0.19098448E-01 0.80130990E+02</pdfrwt>
<pdfrwt beam="1">  1       -2 0.19893730E-02 0.80130990E+02</pdfrwt>
<totfact> 0.18620145E+05</totfact>
</mgrwt>
</event>
<event>
 4    1  0.3704929E-001  0.3601201E+02  0.7818608E-02  0.1539793E+00
          2   -1    0    0  501    0  0.00000000000E+00  0.00000000000E+00  0.11008192723E+02  0.11008193030E+02  0.26000000000E-02 0.  1.
         -2   -1    0    0    0  501 -0.00000000000E+00 -0.00000000000E+00 -0.29452264163E+02  0.29452264277E+02  0.26000000000E-02 0. -1.
        -13    1    1    2    0    0 -0.14033710105E+02 -0.59056426351E+01 -0.20020957742E+02  0.25152963158E+02  0.10570000000E+00 0.  1.
         13    1    1    2    0    0  0.14033710105E+02  0.59056426351E+01  0.15768863021E+01  0.15307494150E+02  0.10570000000E+00 0. -1.
<mgrwt>
<rscale>  0 0.36012010E+02</rscale>
<asrwt>0</asrwt>
<pdfrwt beam="1">  1        2 0.16935682E-02 0.36012010E+02</pdfrwt>
<pdfrwt beam="2">  1       -2 0.45311175E-02 0.36012010E+02</pdfrwt>
<totfact> 0.95701256E+05</totfact>
</mgrwt>
</event>
<event>
 4    1  0.3704929E-001  0.2617304E+02  0.7818608E-02  0.1644703E+00
          2   -1    0    0  501    0  0.00000000000E+00  0.00000000000E+00  0.40023269421E+02  0.40023269505E+02  0.26000000000E-02 0. -1.
         -2   -1    0    0    0  501 -0.00000000000E+00 -0.00000000000E+00 -0.42789347679E+01  0.42789355578E+01  0.26000000000E-02 0.  1.
        -13    1    1    2    0    0  0.11942658289E+02 -0.53020243840E+00  0.26882747899E+02  0.29421106518E+02  0.10570000000E+00 0.  1.
         13    1    1    2    0    0 -0.11942658289E+02  0.53020243840E+00  0.88615867536E+01  0.14881098545E+02  0.10570000000E+00 0. -1.
<mgrwt>
<rscale>  0 0.26173038E+02</rscale>
<asrwt>0</asrwt>
<pdfrwt beam="1">  1        2 0.61574258E-02 0.26173038E+02</pdfrwt>
<pdfrwt beam="2">  1       -2 0.65829776E-03 0.26173038E+02</pdfrwt>
<totfact> 0.24263332E+06</totfact>
</mgrwt>
</event>
<event>
 4    1  0.3704929E-001  0.2302095E+02  0.7818608E-02  0.1691171E+00
         -2   -1    0    0    0  501 -0.00000000000E+00  0.00000000000E+00  0.62146238918E+02  0.62146238973E+02  0.26000000000E-02 0. -1.
          2   -1    0    0  501    0  0.00000000000E+00 -0.00000000000E+00 -0.21319222242E+01  0.21319238096E+01  0.26000000000E-02 0.  1.
        -13    1    1    2    0    0  0.71304323299E+01  0.88292492897E+01  0.24650052219E+02  0.27137335078E+02  0.10570000000E+00 0.  1.
         13    1    1    2    0    0 -0.71304323299E+01 -0.88292492897E+01  0.35364264475E+02  0.37140827704E+02  0.10570000000E+00 0. -1.
<mgrwt>
<rscale>  0 0.23020947E+02</rscale>
<asrwt>0</asrwt>
<pdfrwt beam="2">  1        2 0.32798816E-03 0.23020947E+02</pdfrwt>
<pdfrwt beam="1">  1       -2 0.95609601E-02 0.23020947E+02</pdfrwt>
<totfact> 0.24009688E+06</totfact>
</mgrwt>
</event>
<event>
 4    1  0.3704929E-001  0.2363750E+03  0.7818608E-02  0.1122232E+00
         -2   -1    0    0    0  501 -0.00000000000E+00  0.00000000000E+00  0.28455613647E+02  0.28455613766E+02  0.26000000000E-02 0.  1.
          2   -1    0    0  501    0  0.00000000000E+00 -0.00000000000E+00 -0.49087968935E+03  0.49087968936E+03  0.26000000000E-02 0. -1.
        -13    1    1    2    0    0  0.90249904647E+02  0.57473569403E+02 -0.12091904577E+03  0.16146108903E+03  0.10570000000E+00 0.  1.
         13    1    1    2    0    0 -0.90249904647E+02 -0.57473569403E+02 -0.34150502994E+03  0.35787421410E+03  0.10570000000E+00 0. -1.
<mgrwt>
<rscale>  0 0.23637498E+03</rscale>
<asrwt>0</asrwt>
<pdfrwt beam="2">  1        2 0.75519946E-01 0.23637498E+03</pdfrwt>
<pdfrwt beam="1">  1       -2 0.43777871E-02 0.23637498E+03</pdfrwt>
<totfact> 0.14997893E+04</totfact>
</mgrwt>
</event>
<event>
 4    1  0.3704929E-001  0.2738489E+02  0.7818608E-02  0.1628935E+00
         -2   -1    0    0    0  501 -0.00000000000E+00  0.00000000000E+00  0.12313160959E+02  0.12313161234E+02  0.26000000000E-02 0. -1.
          2   -1    0    0  501    0  0.00000000000E+00 -0.00000000000E+00 -0.15226237198E+02  0.15226237420E+02  0.26000000000E-02 0.  1.
        -13    1    1    2    0    0 -0.51784787721E+01 -0.12045693012E+02  0.25098979262E+01  0.13350135678E+02  0.10570000000E+00 0. -1.
         13    1    1    2    0    0  0.51784787721E+01  0.12045693012E+02 -0.54229741651E+01  0.14189262976E+02  0.10570000000E+00 0.  1.
<mgrwt>
<rscale>  0 0.27384895E+02</rscale>
<asrwt>0</asrwt>
<pdfrwt beam="2">  1        2 0.23424981E-02 0.27384895E+02</pdfrwt>
<pdfrwt beam="1">  1       -2 0.18943325E-02 0.27384895E+02</pdfrwt>
<totfact> 0.19558348E+06</totfact>
</mgrwt>
</event>
<event>
 4    1  0.3704929E-001  0.2136232E+02  0.7818608E-02  0.1719519E+00
         -2   -1    0    0    0  501 -0.00000000000E+00  0.00000000000E+00  0.59908866405E+02  0.59908866462E+02  0.26000000000E-02 0.  1.
          2   -1    0    0  501    0  0.00000000000E+00 -0.00000000000E+00 -0.19043447042E+01  0.19043464791E+01  0.26000000000E-02 0. -1.
        -13    1    1    2    0    0 -0.12559657261E+01 -0.10434126084E+02  0.34513399721E+02  0.36078170267E+02  0.10570000000E+00 0. -1.
         13    1    1    2    0    0  0.12559657261E+01  0.10434126084E+02  0.23491121980E+02  0.25735042674E+02  0.10570000000E+00 0.  1.
<mgrwt>
<rscale>  0 0.21362321E+02</rscale>
<asrwt>0</asrwt>
<pdfrwt beam="2">  1        2 0.29297627E-03 0.21362321E+02</pdfrwt>
<pdfrwt beam="1">  1       -2 0.92167483E-02 0.21362321E+02</pdfrwt>
<totfact> 0.28522661E+06</totfact>
</mgrwt>
</event>
<event>
 4    1  0.3704929E-001  0.2397063E+02  0.7818608E-02  0.1676243E+00
          2   -1    0    0  501    0  0.00000000000E+00  0.00000000000E+00  0.15347900363E+01  0.15347922385E+01  0.26000000000E-02 0. -1.
         -2   -1    0    0    0  501 -0.00000000000E+00 -0.00000000000E+00 -0.93594367246E+02  0.93594367282E+02  0.26000000000E-02 0.  1.
        -13    1    1    2    0    0 -0.81380659069E+01  0.77893189578E+01 -0.62264605904E+02  0.63275539724E+02  0.10570000000E+00 0.  1.
         13    1    1    2    0    0  0.81380659069E+01 -0.77893189578E+01 -0.29794971306E+02  0.31853619796E+02  0.10570000000E+00 0. -1.
<mgrwt>
<rscale>  0 0.23970633E+02</rscale>
<asrwt>0</asrwt>
<pdfrwt beam="1">  1        2 0.23612179E-03 0.23970633E+02</pdfrwt>
<pdfrwt beam="2">  1       -2 0.14399129E-01 0.23970633E+02</pdfrwt>
<totfact> 0.20223474E+06</totfact>
</mgrwt>
</event>
<event>
 4    1  0.3704929E-001  0.6247189E+02  0.7818608E-02  0.1387742E+00
         -2   -1    0    0    0  501 -0.00000000000E+00  0.00000000000E+00  0.87297436312E+01  0.87297440184E+01  0.26000000000E-02 0.  1.
          2   -1    0    0  501    0  0.00000000000E+00 -0.00000000000E+00 -0.11176551225E+03  0.11176551228E+03  0.26000000000E-02 0. -1.
        -13    1    1    2    0    0 -0.12922426565E+02 -0.28193677045E+02 -0.58683179531E+02  0.66374688444E+02  0.10570000000E+00 0. -1.
         13    1    1    2    0    0  0.12922426565E+02  0.28193677045E+02 -0.44352589087E+02  0.54120567854E+02  0.10570000000E+00 0.  1.
<mgrwt>
<rscale>  0 0.62471891E+02</rscale>
<asrwt>0</asrwt>
<pdfrwt beam="2">  1        2 0.17194693E-01 0.62471891E+02</pdfrwt>
<pdfrwt beam="1">  1       -2 0.13430376E-02 0.62471891E+02</pdfrwt>
<totfact> 0.34841497E+05</totfact>
</mgrwt>
</event>
<event>
 4    1  0.3704929E-001  0.3210658E+02  0.7818608E-02  0.1575906E+00
         -2   -1    0    0    0  501 -0.00000000000E+00  0.00000000000E+00  0.45454261593E+01  0.45454269029E+01  0.26000000000E-02 0.  1.
          2   -1    0    0  501    0  0.00000000000E+00 -0.00000000000E+00 -0.56696144074E+02  0.56696144133E+02  0.26000000000E-02 0. -1.
        -13    1    1    2    0    0 -0.93933931871E+01 -0.10898003742E+02 -0.39656409973E+02  0.42185831099E+02  0.10570000000E+00 0. -1.
         13    1    1    2    0    0  0.93933931871E+01  0.10898003742E+02 -0.12494307942E+02  0.19055739937E+02  0.10570000000E+00 0.  1.
<mgrwt>
<rscale>  0 0.32106583E+02</rscale>
<asrwt>0</asrwt>
<pdfrwt beam="2">  1        2 0.87224833E-02 0.32106583E+02</pdfrwt>
<pdfrwt beam="1">  1       -2 0.69929643E-03 0.32106583E+02</pdfrwt>
<totfact> 0.15791960E+06</totfact>
</mgrwt>
</event>
<event>
 4    1  0.3704929E-001  0.2473678E+02  0.7818608E-02  0.1664812E+00
         -2   -1    0    0    0  501 -0.00000000000E+00  0.00000000000E+00  0.17753206521E+02  0.17753206712E+02  0.26000000000E-02 0. -1.
          2   -1    0    0  501    0  0.00000000000E+00 -0.00000000000E+00 -0.86168723208E+01  0.86168727130E+01  0.26000000000E-02 0.  1.
        -13    1    1    2    0    0 -0.73797857446E+01  0.76767584664E+01  0.11274153968E+02  0.15508435717E+02  0.10570000000E+00 0. -1.
         13    1    1    2    0    0  0.73797857446E+01 -0.76767584664E+01 -0.21378197678E+01  0.10861643708E+02  0.10570000000E+00 0.  1.
<mgrwt>
<rscale>  0 0.24736784E+02</rscale>
<asrwt>0</asrwt>
<pdfrwt beam="2">  1        2 0.13256727E-02 0.24736784E+02</pdfrwt>
<pdfrwt beam="1">  1       -2 0.27312626E-02 0.24736784E+02</pdfrwt>
<totfact> 0.23703370E+06</totfact>
</mgrwt>
</event>
<event>
 4    1  0.3704929E-001  0.2883254E+02  0.7818608E-02  0.1611364E+00
         -2   -1    0    0    0  501 -0.00000000000E+00  0.00000000000E+00  0.53948322971E+02  0.53948323034E+02  0.26000000000E-02 0. -1.
          2   -1    0    0  501    0  0.00000000000E+00 -0.00000000000E+00 -0.38523691050E+01  0.38523699823E+01  0.26000000000E-02 0.  1.
        -13    1    1    2    0    0 -0.58468812096E+01  0.10048488110E+02  0.79597687788E+01  0.14089968938E+02  0.10570000000E+00 0.  1.
         13    1    1    2    0    0  0.58468812096E+01 -0.10048488110E+02  0.42136185087E+02  0.43710724078E+02  0.10570000000E+00 0. -1.
<mgrwt>
<rscale>  0 0.28832543E+02</rscale>
<asrwt>0</asrwt>
<pdfrwt beam="2">  1        2 0.59267227E-03 0.28832543E+02</pdfrwt>
<pdfrwt beam="1">  1       -2 0.82997417E-02 0.28832543E+02</pdfrwt>
<totfact> 0.14744397E+06</totfact>
</mgrwt>
</event>
<event>
 4    1  0.3704929E-001  0.1006805E+03  0.7818608E-02  0.1278871E+00
         -2   -1    0    0    0  501 -0.00000000000E+00  0.00000000000E+00  0.23068456562E+02  0.23068456709E+02  0.26000000000E-02 0.  1.
          2   -1    0    0  501    0  0.00000000000E+00 -0.00000000000E+00 -0.10985301564E+03  0.10985301567E+03  0.26000000000E-02 0. -1.
        -13    1    1    2    0    0  0.36681312165E+02  0.14596878884E+02 -0.84627907236E+02  0.93383517769E+02  0.10570000000E+00 0. -1.
         13    1    1    2    0    0 -0.36681312165E+02 -0.14596878884E+02 -0.21566518435E+01  0.39537954613E+02  0.10570000000E+00 0.  1.
<mgrwt>
<rscale>  0 0.10068048E+03</rscale>
<asrwt>0</asrwt>
<pdfrwt beam="2">  1        2 0.16900464E-01 0.10068048E+03</pdfrwt>
<pdfrwt beam="1">  1       -2 0.35489934E-02 0.10068048E+03</pdfrwt>
<totfact> 0.96007752E+04</totfact>
</mgrwt>
</event>
<event>
 4    1  0.3704929E-001  0.2219867E+02  0.7818608E-02  0.1704839E+00
         -2   -1    0    0    0  501 -0.00000000000E+00  0.00000000000E+00  0.63291206978E+01  0.63291212319E+01  0.26000000000E-02 0. -1.
          2   -1    0    0  501    0  0.00000000000E+00 -0.00000000000E+00 -0.19464830474E+02  0.19464830647E+02  0.26000000000E-02 0.  1.
        -13    1    1    2    0    0 -0.78905351764E+01  0.68861075657E+01 -0.22977418020E+01  0.10722397710E+02  0.10570000000E+00 0. -1.
         13    1    1    2    0    0  0.78905351764E+01 -0.68861075657E+01 -0.10837967974E+02  0.15071554169E+02  0.10570000000E+00 0.  1.
<mgrwt>
<rscale>  0 0.22198673E+02</rscale>
<asrwt>0</asrwt>
<pdfrwt beam="2">  1        2 0.29945893E-02 0.22198673E+02</pdfrwt>
<pdfrwt beam="1">  1       -2 0.97371094E-03 0.22198673E+02</pdfrwt>
<totfact> 0.32779682E+06</totfact>
</mgrwt>
</event>
<event>
 4    1  0.3704929E-001  0.2342852E+02  0.7818608E-02  0.1684657E+00
          2   -1    0    0  501    0  0.00000000000E+00  0.00000000000E+00  0.21525610510E+02  0.21525610667E+02  0.26000000000E-02 0.  1.
         -2   -1    0    0    0  501 -0.00000000000E+00 -0.00000000000E+00 -0.63749145805E+01  0.63749151107E+01  0.26000000000E-02 0. -1.
        -13    1    1    2    0    0 -0.73810839614E+01  0.75217699073E+01  0.14849221470E+01  0.10643006589E+02  0.10570000000E+00 0. -1.
         13    1    1    2    0    0  0.73810839614E+01 -0.75217699073E+01  0.13665773783E+02  0.17257519189E+02  0.10570000000E+00 0.  1.
<mgrwt>
<rscale>  0 0.23428524E+02</rscale>
<asrwt>0</asrwt>
<pdfrwt beam="1">  1        2 0.33116324E-02 0.23428524E+02</pdfrwt>
<pdfrwt beam="2">  1       -2 0.98075616E-03 0.23428524E+02</pdfrwt>
<totfact> 0.29218366E+06</totfact>
</mgrwt>
</event>
<event>
 4    1  0.3704929E-001  0.2235072E+02  0.7818608E-02  0.1702256E+00
         -2   -1    0    0    0  501 -0.00000000000E+00  0.00000000000E+00  0.19765497530E+01  0.19765514630E+01  0.26000000000E-02 0.  1.
          2   -1    0    0  501    0  0.00000000000E+00 -0.00000000000E+00 -0.63185175532E+02  0.63185175585E+02  0.26000000000E-02 0. -1.
        -13    1    1    2    0    0 -0.24351840216E+01 -0.10613177011E+02 -0.23282093316E+02  0.25702853716E+02  0.10570000000E+00 0.  1.
         13    1    1    2    0    0  0.24351840216E+01  0.10613177011E+02 -0.37926532463E+02  0.39458873332E+02  0.10570000000E+00 0. -1.
<mgrwt>
<rscale>  0 0.22350723E+02</rscale>
<asrwt>0</asrwt>
<pdfrwt beam="2">  1        2 0.97207948E-02 0.22350723E+02</pdfrwt>
<pdfrwt beam="1">  1       -2 0.30408476E-03 0.22350723E+02</pdfrwt>
<totfact> 0.37503964E+06</totfact>
</mgrwt>
</event>
<event>
 4    1  0.3704929E-001  0.6392206E+02  0.7818608E-02  0.1382073E+00
          2   -1    0    0  501    0  0.00000000000E+00  0.00000000000E+00  0.91495994005E+02  0.91495994042E+02  0.26000000000E-02 0. -1.
         -2   -1    0    0    0  501 -0.00000000000E+00 -0.00000000000E+00 -0.11164503217E+02  0.11164503520E+02  0.26000000000E-02 0.  1.
        -13    1    1    2    0    0 -0.66528831560E+01  0.26697485092E+02  0.66284274386E+02  0.71767909040E+02  0.10570000000E+00 0. -1.
         13    1    1    2    0    0  0.66528831560E+01 -0.26697485092E+02  0.14047216402E+02  0.30892588523E+02  0.10570000000E+00 0.  1.
<mgrwt>
<rscale>  0 0.63922057E+02</rscale>
<asrwt>0</asrwt>
<pdfrwt beam="1">  1        2 0.14076306E-01 0.63922057E+02</pdfrwt>
<pdfrwt beam="2">  1       -2 0.17176160E-02 0.63922057E+02</pdfrwt>
<totfact> 0.31058754E+05</totfact>
</mgrwt>
</event>
<event>
 4    1  0.3704929E-001  0.5317847E+02  0.7818608E-02  0.1428915E+00
         -2   -1    0    0    0  501 -0.00000000000E+00  0.00000000000E+00  0.63698363075E+02  0.63698363128E+02  0.26000000000E-02 0.  1.
          2   -1    0    0  501    0  0.00000000000E+00 -0.00000000000E+00 -0.11098987806E+02  0.11098988111E+02  0.26000000000E-02 0. -1.
        -13    1    1    2    0    0  0.20366226297E+02  0.13232742034E+02  0.11079998751E+02  0.26695808288E+02  0.10570000000E+00 0. -1.
         13    1    1    2    0    0 -0.20366226297E+02 -0.13232742034E+02  0.41519376518E+02  0.48101542951E+02  0.10570000000E+00 0.  1.
<mgrwt>
<rscale>  0 0.53178468E+02</rscale>
<asrwt>0</asrwt>
<pdfrwt beam="2">  1        2 0.17075367E-02 0.53178468E+02</pdfrwt>
<pdfrwt beam="1">  1       -2 0.97997479E-02 0.53178468E+02</pdfrwt>
<totfact> 0.33590608E+05</totfact>
</mgrwt>
</event>
<event>
 4    1  0.3704929E-001  0.3369622E+02  0.7818608E-02  0.1560493E+00
         -2   -1    0    0    0  501 -0.00000000000E+00  0.00000000000E+00  0.10456834591E+03  0.10456834595E+03  0.26000000000E-02 0.  1.
          2   -1    0    0  501    0  0.00000000000E+00 -0.00000000000E+00 -0.27145758212E+01  0.27145770663E+01  0.26000000000E-02 0. -1.
        -13    1    1    2    0    0 -0.36507916995E+01  0.15771747933E+02  0.65782529273E+02  0.67745321927E+02  0.10570000000E+00 0.  1.
         13    1    1    2    0    0  0.36507916995E+01 -0.15771747933E+02  0.36071240820E+02  0.39537601087E+02  0.10570000000E+00 0. -1.
<mgrwt>
<rscale>  0 0.33696218E+02</rscale>
<asrwt>0</asrwt>
<pdfrwt beam="2">  1        2 0.41762715E-03 0.33696218E+02</pdfrwt>
<pdfrwt beam="1">  1       -2 0.16087438E-01 0.33696218E+02</pdfrwt>
<totfact> 0.89943549E+05</totfact>
</mgrwt>
</event>
<event>
 4    1  0.3704929E-001  0.2169363E+02  0.7818608E-02  0.1713605E+00
          2   -1    0    0  501    0  0.00000000000E+00  0.00000000000E+00  0.32733398721E+02  0.32733398824E+02  0.26000000000E-02 0. -1.
         -2   -1    0    0    0  501 -0.00000000000E+00 -0.00000000000E+00 -0.35942925503E+01  0.35942934906E+01  0.26000000000E-02 0.  1.
        -13    1    1    2    0    0 -0.68264692714E+01  0.84240317092E+01  0.14104078441E+02  0.17790480435E+02  0.10570000000E+00 0.  1.
         13    1    1    2    0    0  0.68264692714E+01 -0.84240317092E+01  0.15035027730E+02  0.18537211880E+02  0.10570000000E+00 0. -1.
<mgrwt>
<rscale>  0 0.21693633E+02</rscale>
<asrwt>0</asrwt>
<pdfrwt beam="1">  1        2 0.50359074E-02 0.21693633E+02</pdfrwt>
<pdfrwt beam="2">  1       -2 0.55296818E-03 0.21693633E+02</pdfrwt>
<totfact> 0.36456788E+06</totfact>
</mgrwt>
</event>
<event>
 4    1  0.3704929E-001  0.5738328E+02  0.7818608E-02  0.1409153E+00
          2   -1    0    0  501    0  0.00000000000E+00  0.00000000000E+00  0.33283161263E+01  0.33283171419E+01  0.26000000000E-02 0. -1.
         -2   -1    0    0    0  501 -0.00000000000E+00 -0.00000000000E+00 -0.24733531282E+03  0.24733531283E+03  0.26000000000E-02 0.  1.
        -13    1    1    2    0    0 -0.79603706417E+01  0.27393634837E+02 -0.13541073125E+03  0.13838300489E+03  0.10570000000E+00 0. -1.
         13    1    1    2    0    0  0.79603706417E+01 -0.27393634837E+02 -0.10859626544E+03  0.11228062509E+03  0.10570000000E+00 0.  1.
<mgrwt>
<rscale>  0 0.57383281E+02</rscale>
<asrwt>0</asrwt>
<pdfrwt beam="1">  1        2 0.51204891E-03 0.57383281E+02</pdfrwt>
<pdfrwt beam="2">  1       -2 0.38051572E-01 0.57383281E+02</pdfrwt>
<totfact> 0.18241561E+05</totfact>
</mgrwt>
</event>
<event>
 4    1  0.3704929E-001  0.2839816E+02  0.7818608E-02  0.1616501E+00
          2   -1    0    0  501    0  0.00000000000E+00  0.00000000000E+00  0.65390469578E+02  0.65390469630E+02  0.26000000000E-02 0.  1.
         -2   -1    0    0    0  501 -0.00000000000E+00 -0.00000000000E+00 -0.30832298508E+01  0.30832309471E+01  0.26000000000E-02 0. -1.
        -13    1    1    2    0    0 -0.66491305560E+01  0.12420078831E+02  0.26885438790E+02  0.30353044110E+02  0.10570000000E+00 0.  1.
         13    1    1    2    0    0  0.66491305560E+01 -0.12420078831E+02  0.35421800937E+02  0.38120656467E+02  0.10570000000E+00 0. -1.
<mgrwt>
<rscale>  0 0.28398161E+02</rscale>
<asrwt>0</asrwt>
<pdfrwt beam="1">  1        2 0.10060072E-01 0.28398161E+02</pdfrwt>
<pdfrwt beam="2">  1       -2 0.47434316E-03 0.28398161E+02</pdfrwt>
<totfact> 0.21707594E+06</totfact>
</mgrwt>
</event>
<event>
 4    1  0.3704929E-001  0.7942177E+02  0.7818608E-02  0.1330700E+00
          2   -1    0    0  501    0  0.00000000000E+00  0.00000000000E+00  0.12800492311E+03  0.12800492314E+03  0.26000000000E-02 0.  1.
         -2   -1    0    0    0  501 -0.00000000000E+00 -0.00000000000E+00 -0.12319483153E+02  0.12319483427E+02  0.26000000000E-02 0. -1.
        -13    1    1    2    0    0  0.18690699945E+02 -0.34464856305E+02  0.68985598801E+02  0.79348551335E+02  0.10570000000E+00 0.  1.
         13    1    1    2    0    0 -0.18690699945E+02  0.34464856305E+02  0.46699841159E+02  0.60975855232E+02  0.10570000000E+00 0. -1.
<mgrwt>
<rscale>  0 0.79421773E+02</rscale>
<asrwt>0</asrwt>
<pdfrwt beam="1">  1        2 0.19693065E-01 0.79421773E+02</pdfrwt>
<pdfrwt beam="2">  1       -2 0.18953051E-02 0.79421773E+02</pdfrwt>
<totfact> 0.19253691E+05</totfact>
</mgrwt>
</event>
<event>
 4    1  0.3704929E-001  0.2688481E+02  0.7818608E-02  0.1635318E+00
          2   -1    0    0  501    0  0.00000000000E+00  0.00000000000E+00  0.47082428430E+02  0.47082428502E+02  0.26000000000E-02 0. -1.
         -2   -1    0    0    0  501 -0.00000000000E+00 -0.00000000000E+00 -0.38379108952E+01  0.38379117759E+01  0.26000000000E-02 0.  1.
        -13    1    1    2    0    0 -0.93574718319E+00 -0.12037849245E+02  0.32811662455E+02  0.34962863195E+02  0.10570000000E+00 0.  1.
         13    1    1    2    0    0  0.93574718319E+00  0.12037849245E+02  0.10432855080E+02  0.15957477083E+02  0.10570000000E+00 0. -1.
<mgrwt>
<rscale>  0 0.26884805E+02</rscale>
<asrwt>0</asrwt>
<pdfrwt beam="1">  1        2 0.72434500E-02 0.26884805E+02</pdfrwt>
<pdfrwt beam="2">  1       -2 0.59044795E-03 0.26884805E+02</pdfrwt>
<totfact> 0.23335184E+06</totfact>
</mgrwt>
</event>
<event>
 4    1  0.3704929E-001  0.3350439E+02  0.7818608E-02  0.1562298E+00
         -2   -1    0    0    0  501 -0.00000000000E+00  0.00000000000E+00  0.19081240713E+01  0.19081258427E+01  0.26000000000E-02 0. -1.
          2   -1    0    0  501    0  0.00000000000E+00 -0.00000000000E+00 -0.14707422283E+03  0.14707422286E+03  0.26000000000E-02 0.  1.
        -13    1    1    2    0    0 -0.45217164096E+01 -0.15454359023E+02 -0.93125278785E+02  0.94507205299E+02  0.10570000000E+00 0.  1.
         13    1    1    2    0    0  0.45217164096E+01  0.15454359023E+02 -0.52040819977E+02  0.54475143400E+02  0.10570000000E+00 0. -1.
<mgrwt>
<rscale>  0 0.33504388E+02</rscale>
<asrwt>0</asrwt>
<pdfrwt beam="2">  1        2 0.22626795E-01 0.33504388E+02</pdfrwt>
<pdfrwt beam="1">  1       -2 0.29355780E-03 0.33504388E+02</pdfrwt>
<totfact> 0.17807557E+06</totfact>
</mgrwt>
</event>
<event>
 4    1  0.3704929E-001  0.6952231E+02  0.7818608E-02  0.1361725E+00
         -2   -1    0    0    0  501 -0.00000000000E+00  0.00000000000E+00  0.34543474378E+02  0.34543474476E+02  0.26000000000E-02 0.  1.
          2   -1    0    0  501    0  0.00000000000E+00 -0.00000000000E+00 -0.34980209692E+02  0.34980209789E+02  0.26000000000E-02 0. -1.
        -13    1    1    2    0    0 -0.31280636341E+02  0.40167895553E+01  0.14400881196E+02  0.34670006633E+02  0.10570000000E+00 0. -1.
         13    1    1    2    0    0  0.31280636341E+02 -0.40167895553E+01 -0.14837616510E+02  0.34853677631E+02  0.10570000000E+00 0.  1.
<mgrwt>
<rscale>  0 0.69522313E+02</rscale>
<asrwt>0</asrwt>
<pdfrwt beam="2">  1        2 0.53815708E-02 0.69522313E+02</pdfrwt>
<pdfrwt beam="1">  1       -2 0.53143807E-02 0.69522313E+02</pdfrwt>
<totfact> 0.19902805E+05</totfact>
</mgrwt>
</event>
<event>
 4    1  0.3704929E-001  0.4149212E+02  0.7818608E-02  0.1497510E+00
          2   -1    0    0  501    0  0.00000000000E+00  0.00000000000E+00  0.23617859409E+01  0.23617873721E+01  0.26000000000E-02 0.  1.
         -2   -1    0    0    0  501 -0.00000000000E+00 -0.00000000000E+00 -0.18223451827E+03  0.18223451829E+03  0.26000000000E-02 0. -1.
        -13    1    1    2    0    0 -0.17715507530E+02  0.95715294635E+01 -0.67720784104E+02  0.70651037893E+02  0.10570000000E+00 0.  1.
         13    1    1    2    0    0  0.17715507530E+02 -0.95715294635E+01 -0.11215194822E+03  0.11394526777E+03  0.10570000000E+00 0. -1.
<mgrwt>
<rscale>  0 0.41492122E+02</rscale>
<asrwt>0</asrwt>
<pdfrwt beam="1">  1        2 0.36335194E-03 0.41492122E+02</pdfrwt>
<pdfrwt beam="2">  1       -2 0.28036069E-01 0.41492122E+02</pdfrwt>
<totfact> 0.46066836E+05</totfact>
</mgrwt>
</event>
<event>
 4    1  0.3704929E-001  0.2605963E+02  0.7818608E-02  0.1646232E+00
          2   -1    0    0  501    0  0.00000000000E+00  0.00000000000E+00  0.22464556540E+02  0.22464556690E+02  0.26000000000E-02 0. -1.
         -2   -1    0    0    0  501 -0.00000000000E+00 -0.00000000000E+00 -0.75575110431E+01  0.75575114903E+01  0.26000000000E-02 0.  1.
        -13    1    1    2    0    0  0.10675447226E+02  0.58300696303E+01  0.12833754227E+02  0.17682514115E+02  0.10570000000E+00 0.  1.
         13    1    1    2    0    0 -0.10675447226E+02 -0.58300696303E+01  0.20732912692E+01  0.12339554066E+02  0.10570000000E+00 0. -1.
<mgrwt>
<rscale>  0 0.26059635E+02</rscale>
<asrwt>0</asrwt>
<pdfrwt beam="1">  1        2 0.34560856E-02 0.26059635E+02</pdfrwt>
<pdfrwt beam="2">  1       -2 0.11626941E-02 0.26059635E+02</pdfrwt>
<totfact> 0.22874594E+06</totfact>
</mgrwt>
</event>
<event>
 4    1  0.3704929E-001  0.5233513E+02  0.7818608E-02  0.1433139E+00
         -2   -1    0    0    0  501 -0.00000000000E+00  0.00000000000E+00  0.62966278965E+02  0.62966279019E+02  0.26000000000E-02 0. -1.
          2   -1    0    0  501    0  0.00000000000E+00 -0.00000000000E+00 -0.10874731098E+02  0.10874731408E+02  0.26000000000E-02 0.  1.
        -13    1    1    2    0    0  0.12360133569E+02 -0.12775707396E+02  0.53139182692E+02  0.56033699779E+02  0.10570000000E+00 0. -1.
         13    1    1    2    0    0 -0.12360133569E+02  0.12775707396E+02 -0.10476348242E+01  0.17807310648E+02  0.10570000000E+00 0.  1.
<mgrwt>
<rscale>  0 0.52335126E+02</rscale>
<asrwt>0</asrwt>
<pdfrwt beam="2">  1        2 0.16730356E-02 0.52335126E+02</pdfrwt>
<pdfrwt beam="1">  1       -2 0.96871196E-02 0.52335126E+02</pdfrwt>
<totfact> 0.34998498E+05</totfact>
</mgrwt>
</event>
<event>
 4    1  0.3704929E-001  0.2757108E+02  0.7818608E-02  0.1626601E+00
         -2   -1    0    0    0  501 -0.00000000000E+00  0.00000000000E+00  0.58487862740E+01  0.58487868519E+01  0.26000000000E-02 0.  1.
          2   -1    0    0  501    0  0.00000000000E+00 -0.00000000000E+00 -0.32492394499E+02  0.32492394603E+02  0.26000000000E-02 0. -1.
        -13    1    1    2    0    0 -0.31593338622E+01 -0.99931062324E+01 -0.86914883837E+00  0.10517136246E+02  0.10570000000E+00 0.  1.
         13    1    1    2    0    0  0.31593338622E+01  0.99931062324E+01 -0.25774459387E+02  0.27824045209E+02  0.10570000000E+00 0. -1.
<mgrwt>
<rscale>  0 0.27571078E+02</rscale>
<asrwt>0</asrwt>
<pdfrwt beam="2">  1        2 0.49988299E-02 0.27571078E+02</pdfrwt>
<pdfrwt beam="1">  1       -2 0.89981334E-03 0.27571078E+02</pdfrwt>
<totfact> 0.20882436E+06</totfact>
</mgrwt>
</event>
<event>
 4    1  0.3704929E-001  0.2699354E+02  0.7818608E-02  0.1633916E+00
          2   -1    0    0  501    0  0.00000000000E+00  0.00000000000E+00  0.10739310847E+03  0.10739310850E+03  0.26000000000E-02 0.  1.
         -2   -1    0    0    0  501 -0.00000000000E+00 -0.00000000000E+00 -0.16962231433E+01  0.16962251360E+01  0.26000000000E-02 0. -1.
        -13    1    1    2    0    0  0.36704024303E+01  0.12683878001E+02  0.64134490570E+02  0.65479742427E+02  0.10570000000E+00 0.  1.
         13    1    1    2    0    0 -0.36704024303E+01 -0.12683878001E+02  0.41562394758E+02  0.43609591212E+02  0.10570000000E+00 0. -1.
<mgrwt>
<rscale>  0 0.26993539E+02</rscale>
<asrwt>0</asrwt>
<pdfrwt beam="1">  1        2 0.16522018E-01 0.26993539E+02</pdfrwt>
<pdfrwt beam="2">  1       -2 0.26095754E-03 0.26993539E+02</pdfrwt>
<totfact> 0.27215539E+06</totfact>
</mgrwt>
</event>
<event>
 4    1  0.3704929E-001  0.2834376E+02  0.7818608E-02  0.1617152E+00
         -2   -1    0    0    0  501 -0.00000000000E+00  0.00000000000E+00  0.79730433083E+01  0.79730437322E+01  0.26000000000E-02 0. -1.
          2   -1    0    0  501    0  0.00000000000E+00 -0.00000000000E+00 -0.25190154676E+02  0.25190154811E+02  0.26000000000E-02 0.  1.
        -13    1    1    2    0    0 -0.66295805589E+01 -0.11970959150E+02 -0.42975150584E+01  0.14343465743E+02  0.10570000000E+00 0. -1.
         13    1    1    2    0    0  0.66295805589E+01  0.11970959150E+02 -0.12919596310E+02  0.18819732800E+02  0.10570000000E+00 0.  1.
<mgrwt>
<rscale>  0 0.28343761E+02</rscale>
<asrwt>0</asrwt>
<pdfrwt beam="2">  1        2 0.38754084E-02 0.28343761E+02</pdfrwt>
<pdfrwt beam="1">  1       -2 0.12266221E-02 0.28343761E+02</pdfrwt>
<totfact> 0.18971088E+06</totfact>
</mgrwt>
</event>
<event>
 4    1  0.3704929E-001  0.3896166E+02  0.7818608E-02  0.1515995E+00
         -2   -1    0    0    0  501 -0.00000000000E+00  0.00000000000E+00  0.32291085794E+02  0.32291085898E+02  0.26000000000E-02 0. -1.
          2   -1    0    0  501    0  0.00000000000E+00 -0.00000000000E+00 -0.11752551309E+02  0.11752551596E+02  0.26000000000E-02 0.  1.
        -13    1    1    2    0    0  0.19445950877E+01  0.13396549027E+02 -0.55666168291E+01  0.14637191373E+02  0.10570000000E+00 0.  1.
         13    1    1    2    0    0 -0.19445950877E+01 -0.13396549027E+02  0.26105151314E+02  0.29406446122E+02  0.10570000000E+00 0. -1.
<mgrwt>
<rscale>  0 0.38961656E+02</rscale>
<asrwt>0</asrwt>
<pdfrwt beam="2">  1        2 0.18080849E-02 0.38961656E+02</pdfrwt>
<pdfrwt beam="1">  1       -2 0.49678592E-02 0.38961656E+02</pdfrwt>
<totfact> 0.78715568E+05</totfact>
</mgrwt>
</event>
<event>
 4    1  0.3704929E-001  0.8566256E+02  0.7818608E-02  0.1313709E+00
         -2   -1    0    0    0  501 -0.00000000000E+00  0.00000000000E+00  0.57998483692E+02  0.57998483750E+02  0.26000000000E-02 0.  1.
          2   -1    0    0  501    0  0.00000000000E+00 -0.00000000000E+00 -0.31630456372E+02  0.31630456479E+02  0.26000000000E-02 0. -1.
        -13    1    1    2    0    0 -0.28678431041E+02  0.20388580931E+02  0.38735238597E+02  0.52331410463E+02  0.10570000000E+00 0. -1.
         13    1    1    2    0    0  0.28678431041E+02 -0.20388580931E+02 -0.12367211277E+02  0.37297529766E+02  0.10570000000E+00 0.  1.
<mgrwt>
<rscale>  0 0.85662559E+02</rscale>
<asrwt>0</asrwt>
<pdfrwt beam="2">  1        2 0.48662240E-02 0.85662559E+02</pdfrwt>
<pdfrwt beam="1">  1       -2 0.89228437E-02 0.85662559E+02</pdfrwt>
<totfact> 0.10770917E+05</totfact>
</mgrwt>
</event>
<event>
 4    1  0.3704929E-001  0.3098386E+02  0.7818608E-02  0.1587461E+00
         -2   -1    0    0    0  501 -0.00000000000E+00  0.00000000000E+00  0.82708964515E+01  0.82708968602E+01  0.26000000000E-02 0. -1.
          2   -1    0    0  501    0  0.00000000000E+00 -0.00000000000E+00 -0.29017396016E+02  0.29017396133E+02  0.26000000000E-02 0.  1.
        -13    1    1    2    0    0 -0.22793183965E+00 -0.10416649479E+02 -0.24170245579E+02  0.26320533488E+02  0.10570000000E+00 0.  1.
         13    1    1    2    0    0  0.22793183965E+00  0.10416649479E+02  0.34237460139E+01  0.10967759505E+02  0.10570000000E+00 0. -1.
<mgrwt>
<rscale>  0 0.30983860E+02</rscale>
<asrwt>0</asrwt>
<pdfrwt beam="2">  1        2 0.44642148E-02 0.30983860E+02</pdfrwt>
<pdfrwt beam="1">  1       -2 0.12724457E-02 0.30983860E+02</pdfrwt>
<totfact> 0.15573676E+06</totfact>
</mgrwt>
</event>
<event>
 4    1  0.3704929E-001  0.2122260E+02  0.7818608E-02  0.1722054E+00
         -2   -1    0    0    0  501 -0.00000000000E+00  0.00000000000E+00  0.95276052323E+01  0.95276055871E+01  0.26000000000E-02 0. -1.
          2   -1    0    0  501    0  0.00000000000E+00 -0.00000000000E+00 -0.11818260361E+02  0.11818260647E+02  0.26000000000E-02 0.  1.
        -13    1    1    2    0    0  0.42613899067E+01  0.94302615221E+01  0.12133464914E+01  0.10419820464E+02  0.10570000000E+00 0. -1.
         13    1    1    2    0    0 -0.42613899067E+01 -0.94302615221E+01 -0.35040016196E+01  0.10926045769E+02  0.10570000000E+00 0.  1.
<mgrwt>
<rscale>  0 0.21222604E+02</rscale>
<asrwt>0</asrwt>
<pdfrwt beam="2">  1        2 0.18181940E-02 0.21222604E+02</pdfrwt>
<pdfrwt beam="1">  1       -2 0.14657855E-02 0.21222604E+02</pdfrwt>
<totfact> 0.34872404E+06</totfact>
</mgrwt>
</event>
<event>
 4    1  0.3704929E-001  0.4414297E+02  0.7818608E-02  0.1479764E+00
          2   -1    0    0  501    0  0.00000000000E+00  0.00000000000E+00  0.58377452189E+01  0.58377457979E+01  0.26000000000E-02 0.  1.
         -2   -1    0    0    0  501 -0.00000000000E+00 -0.00000000000E+00 -0.83448405569E+02  0.83448405609E+02  0.26000000000E-02 0. -1.
        -13    1    1    2    0    0 -0.13809532857E+02 -0.15137126931E+02 -0.22211693506E+02  0.30219303605E+02  0.10570000000E+00 0.  1.
         13    1    1    2    0    0  0.13809532857E+02  0.15137126931E+02 -0.55398966844E+02  0.59066847802E+02  0.10570000000E+00 0. -1.
<mgrwt>
<rscale>  0 0.44142975E+02</rscale>
<asrwt>0</asrwt>
<pdfrwt beam="1">  1        2 0.89811476E-03 0.44142975E+02</pdfrwt>
<pdfrwt beam="2">  1       -2 0.12838215E-01 0.44142975E+02</pdfrwt>
<totfact> 0.49832702E+05</totfact>
</mgrwt>
</event>
<event>
 4    1  0.3704929E-001  0.3550640E+02  0.7818608E-02  0.1544149E+00
         -2   -1    0    0    0  501 -0.00000000000E+00  0.00000000000E+00  0.25282516641E+02  0.25282516775E+02  0.26000000000E-02 0.  1.
          2   -1    0    0  501    0  0.00000000000E+00 -0.00000000000E+00 -0.12466170003E+02  0.12466170274E+02  0.26000000000E-02 0. -1.
        -13    1    1    2    0    0  0.11230714041E+02  0.12848880403E+02  0.11610268498E+02  0.20640546809E+02  0.10570000000E+00 0.  1.
         13    1    1    2    0    0 -0.11230714041E+02 -0.12848880403E+02  0.12060781402E+01  0.17108140239E+02  0.10570000000E+00 0. -1.
<mgrwt>
<rscale>  0 0.35506403E+02</rscale>
<asrwt>0</asrwt>
<pdfrwt beam="2">  1        2 0.19178723E-02 0.35506403E+02</pdfrwt>
<pdfrwt beam="1">  1       -2 0.38896180E-02 0.35506403E+02</pdfrwt>
<totfact> 0.10075271E+06</totfact>
</mgrwt>
</event>
<event>
 4    1  0.3704929E-001  0.2652142E+02  0.7818608E-02  0.1640064E+00
         -2   -1    0    0    0  501 -0.00000000000E+00  0.00000000000E+00  0.28875455153E+02  0.28875455271E+02  0.26000000000E-02 0. -1.
          2   -1    0    0  501    0  0.00000000000E+00 -0.00000000000E+00 -0.60898234421E+01  0.60898239971E+01  0.26000000000E-02 0.  1.
        -13    1    1    2    0    0 -0.70326773308E+01  0.86943564774E+01  0.20788046100E+02  0.23605177782E+02  0.10570000000E+00 0. -1.
         13    1    1    2    0    0  0.70326773308E+01 -0.86943564774E+01  0.19975856119E+01  0.11360101486E+02  0.10570000000E+00 0.  1.
<mgrwt>
<rscale>  0 0.26521420E+02</rscale>
<asrwt>0</asrwt>
<pdfrwt beam="2">  1        2 0.93689597E-03 0.26521420E+02</pdfrwt>
<pdfrwt beam="1">  1       -2 0.44423778E-02 0.26521420E+02</pdfrwt>
<totfact> 0.19336441E+06</totfact>
</mgrwt>
</event>
<event>
 4    1  0.3704929E-001  0.2486833E+02  0.7818608E-02  0.1662900E+00
         -2   -1    0    0    0  501 -0.00000000000E+00  0.00000000000E+00  0.74200173480E+02  0.74200173525E+02  0.26000000000E-02 0.  1.
          2   -1    0    0  501    0  0.00000000000E+00 -0.00000000000E+00 -0.20836670535E+01  0.20836686756E+01  0.26000000000E-02 0. -1.
        -13    1    1    2    0    0 -0.61279605685E+01  0.10005319143E+02  0.48683218650E+02  0.50077193037E+02  0.10570000000E+00 0.  1.
         13    1    1    2    0    0  0.61279605685E+01 -0.10005319143E+02  0.23433287776E+02  0.26206649164E+02  0.10570000000E+00 0. -1.
<mgrwt>
<rscale>  0 0.24868335E+02</rscale>
<asrwt>0</asrwt>
<pdfrwt beam="2">  1        2 0.32056422E-03 0.24868335E+02</pdfrwt>
<pdfrwt beam="1">  1       -2 0.11415414E-01 0.24868335E+02</pdfrwt>
<totfact> 0.19550888E+06</totfact>
</mgrwt>
</event>
<event>
 4    1  0.3704929E-001  0.2398917E+02  0.7818608E-02  0.1675960E+00
         -2   -1    0    0    0  501 -0.00000000000E+00  0.00000000000E+00  0.12459734238E+02  0.12459734510E+02  0.26000000000E-02 0. -1.
          2   -1    0    0  501    0  0.00000000000E+00 -0.00000000000E+00 -0.11546796298E+02  0.11546796591E+02  0.26000000000E-02 0.  1.
        -13    1    1    2    0    0 -0.10860331595E+02  0.34442678119E+01 -0.32944524238E+01  0.11860622765E+02  0.10570000000E+00 0.  1.
         13    1    1    2    0    0  0.10860331595E+02 -0.34442678119E+01  0.42073903643E+01  0.12145908335E+02  0.10570000000E+00 0. -1.
<mgrwt>
<rscale>  0 0.23989166E+02</rscale>
<asrwt>0</asrwt>
<pdfrwt beam="2">  1        2 0.17764302E-02 0.23989166E+02</pdfrwt>
<pdfrwt beam="1">  1       -2 0.19168822E-02 0.23989166E+02</pdfrwt>
<totfact> 0.26153886E+06</totfact>
</mgrwt>
</event>
<event>
 4    1  0.3704929E-001  0.2825726E+02  0.7818608E-02  0.1618192E+00
          2   -1    0    0  501    0  0.00000000000E+00  0.00000000000E+00  0.86226988709E+01  0.86226992629E+01  0.26000000000E-02 0. -1.
         -2   -1    0    0    0  501 -0.00000000000E+00 -0.00000000000E+00 -0.23150314508E+02  0.23150314654E+02  0.26000000000E-02 0.  1.
        -13    1    1    2    0    0 -0.22906188777E+01 -0.12584900585E+02 -0.51913078449E+00  0.12802629684E+02  0.10570000000E+00 0.  1.
         13    1    1    2    0    0  0.22906188777E+01  0.12584900585E+02 -0.14008484852E+02  0.18970384232E+02  0.10570000000E+00 0. -1.
<mgrwt>
<rscale>  0 0.28257261E+02</rscale>
<asrwt>0</asrwt>
<pdfrwt beam="1">  1        2 0.13265691E-02 0.28257261E+02</pdfrwt>
<pdfrwt beam="2">  1       -2 0.35615869E-02 0.28257261E+02</pdfrwt>
<totfact> 0.17146712E+06</totfact>
</mgrwt>
</event>
<event>
 4    1  0.3704929E-001  0.9426323E+02  0.7818608E-02  0.1292844E+00
          2   -1    0    0  501    0  0.00000000000E+00  0.00000000000E+00  0.46565538220E+02  0.46565538293E+02  0.26000000000E-02 0. -1.
         -2   -1    0    0    0  501 -0.00000000000E+00 -0.00000000000E+00 -0.47704577167E+02  0.47704577238E+02  0.26000000000E-02 0.  1.
        -13    1    1    2    0    0 -0.10001387590E+02 -0.41724811581E+02  0.18935506353E+02  0.46899384096E+02  0.10570000000E+00 0.  1.
         13    1    1    2    0    0  0.10001387590E+02  0.41724811581E+02 -0.20074545300E+02  0.47370731435E+02  0.10570000000E+00 0. -1.
<mgrwt>
<rscale>  0 0.94263234E+02</rscale>
<asrwt>0</asrwt>
<pdfrwt beam="1">  1        2 0.71639290E-02 0.94263234E+02</pdfrwt>
<pdfrwt beam="2">  1       -2 0.73391657E-02 0.94263234E+02</pdfrwt>
<totfact> 0.90154912E+04</totfact>
</mgrwt>
</event>
<event>
 4    1  0.3704929E-001  0.2240458E+02  0.7818608E-02  0.1701347E+00
          2   -1    0    0  501    0  0.00000000000E+00  0.00000000000E+00  0.12369914587E+01  0.12369941911E+01  0.26000000000E-02 0.  1.
         -2   -1    0    0    0  501 -0.00000000000E+00 -0.00000000000E+00 -0.10144870084E+03  0.10144870088E+03  0.26000000000E-02 0. -1.
        -13    1    1    2    0    0 -0.12227262107E+01  0.11020494797E+02 -0.42810311257E+02  0.44223074151E+02  0.10570000000E+00 0. -1.
         13    1    1    2    0    0  0.12227262107E+01 -0.11020494797E+02 -0.57401398127E+02  0.58462620916E+02  0.10570000000E+00 0.  1.
<mgrwt>
<rscale>  0 0.22404582E+02</rscale>
<asrwt>0</asrwt>
<pdfrwt beam="1">  1        2 0.19030667E-03 0.22404582E+02</pdfrwt>
<pdfrwt beam="2">  1       -2 0.15607486E-01 0.22404582E+02</pdfrwt>
<totfact> 0.23071739E+06</totfact>
</mgrwt>
</event>
<event>
 4    1  0.3704929E-001  0.2949953E+02  0.7818608E-02  0.1603687E+00
          2   -1    0    0  501    0  0.00000000000E+00  0.00000000000E+00  0.61983075167E+01  0.61983080620E+01  0.26000000000E-02 0. -1.
         -2   -1    0    0    0  501 -0.00000000000E+00 -0.00000000000E+00 -0.35099184312E+02  0.35099184409E+02  0.26000000000E-02 0.  1.
        -13    1    1    2    0    0  0.55432181601E+01 -0.13499165762E+02 -0.17449584830E+02  0.22747613656E+02  0.10570000000E+00 0. -1.
         13    1    1    2    0    0 -0.55432181601E+01  0.13499165762E+02 -0.11451291966E+02  0.18549878814E+02  0.10570000000E+00 0.  1.
<mgrwt>
<rscale>  0 0.29499529E+02</rscale>
<asrwt>0</asrwt>
<pdfrwt beam="1">  1        2 0.95358584E-03 0.29499529E+02</pdfrwt>
<pdfrwt beam="2">  1       -2 0.53998744E-02 0.29499529E+02</pdfrwt>
<totfact> 0.14842592E+06</totfact>
</mgrwt>
</event>
<event>
 4    1  0.3704929E-001  0.3264696E+02  0.7818608E-02  0.1570547E+00
          2   -1    0    0  501    0  0.00000000000E+00  0.00000000000E+00  0.16883439835E+03  0.16883439837E+03  0.26000000000E-02 0. -1.
         -2   -1    0    0    0  501 -0.00000000000E+00 -0.00000000000E+00 -0.15782079683E+01  0.15782101100E+01  0.26000000000E-02 0.  1.
        -13    1    1    2    0    0  0.35396234931E+01 -0.15918124173E+02  0.79830873251E+02  0.81479415242E+02  0.10570000000E+00 0.  1.
         13    1    1    2    0    0 -0.35396234931E+01  0.15918124173E+02  0.87425317133E+02  0.88933193240E+02  0.10570000000E+00 0. -1.
<mgrwt>
<rscale>  0 0.32646959E+02</rscale>
<asrwt>0</asrwt>
<pdfrwt beam="1">  1        2 0.25974496E-01 0.32646959E+02</pdfrwt>
<pdfrwt beam="2">  1       -2 0.24280164E-03 0.32646959E+02</pdfrwt>
<totfact> 0.19726917E+06</totfact>
</mgrwt>
</event>
<event>
 4    1  0.3704929E-001  0.2567498E+02  0.7818608E-02  0.1651492E+00
          2   -1    0    0  501    0  0.00000000000E+00  0.00000000000E+00  0.29390110890E+02  0.29390111005E+02  0.26000000000E-02 0.  1.
         -2   -1    0    0    0  501 -0.00000000000E+00 -0.00000000000E+00 -0.56073687707E+01  0.56073693735E+01  0.26000000000E-02 0. -1.
        -13    1    1    2    0    0  0.48264038163E+00 -0.12823537975E+02  0.12351528915E+02  0.17811443147E+02  0.10570000000E+00 0.  1.
         13    1    1    2    0    0 -0.48264038163E+00  0.12823537975E+02  0.11431213204E+02  0.17186037232E+02  0.10570000000E+00 0. -1.
<mgrwt>
<rscale>  0 0.25674984E+02</rscale>
<asrwt>0</asrwt>
<pdfrwt beam="1">  1        2 0.45215556E-02 0.25674984E+02</pdfrwt>
<pdfrwt beam="2">  1       -2 0.86267217E-03 0.25674984E+02</pdfrwt>
<totfact> 0.24399626E+06</totfact>
</mgrwt>
</event>
<event>
 4    1  0.3704929E-001  0.2178164E+02  0.7818608E-02  0.1712056E+00
         -2   -1    0    0    0  501 -0.00000000000E+00  0.00000000000E+00  0.13923665364E+02  0.13923665607E+02  0.26000000000E-02 0. -1.
          2   -1    0    0  501    0  0.00000000000E+00 -0.00000000000E+00 -0.85185833170E+01  0.85185837138E+01  0.26000000000E-02 0.  1.
        -13    1    1    2    0    0 -0.10069295578E+02 -0.24971477496E+01  0.61154467805E+01  0.12043102679E+02  0.10570000000E+00 0.  1.
         13    1    1    2    0    0  0.10069295578E+02  0.24971477496E+01 -0.71036473325E+00  0.10399146642E+02  0.10570000000E+00 0. -1.
<mgrwt>
<rscale>  0 0.21781635E+02</rscale>
<asrwt>0</asrwt>
<pdfrwt beam="2">  1        2 0.13105513E-02 0.21781635E+02</pdfrwt>
<pdfrwt beam="1">  1       -2 0.21421024E-02 0.21781635E+02</pdfrwt>
<totfact> 0.32003365E+06</totfact>
</mgrwt>
</event>
<event>
 4    1  0.3704929E-001  0.2445470E+02  0.7818608E-02  0.1668960E+00
          2   -1    0    0  501    0  0.00000000000E+00  0.00000000000E+00  0.11633041154E+02  0.11633041445E+02  0.26000000000E-02 0. -1.
         -2   -1    0    0    0  501 -0.00000000000E+00 -0.00000000000E+00 -0.12852024799E+02  0.12852025062E+02  0.26000000000E-02 0.  1.
        -13    1    1    2    0    0  0.63862642639E+01 -0.96029777882E+01  0.34570054312E+01  0.12040083583E+02  0.10570000000E+00 0. -1.
         13    1    1    2    0    0 -0.63862642639E+01  0.96029777882E+01 -0.46759890759E+01  0.12444982924E+02  0.10570000000E+00 0.  1.
<mgrwt>
<rscale>  0 0.24454704E+02</rscale>
<asrwt>0</asrwt>
<pdfrwt beam="1">  1        2 0.17896987E-02 0.24454704E+02</pdfrwt>
<pdfrwt beam="2">  1       -2 0.19772346E-02 0.24454704E+02</pdfrwt>
<totfact> 0.25008306E+06</totfact>
</mgrwt>
</event>
<event>
 4    1  0.3704929E-001  0.4098084E+02  0.7818608E-02  0.1501115E+00
         -2   -1    0    0    0  501 -0.00000000000E+00  0.00000000000E+00  0.41058068312E+02  0.41058068394E+02  0.26000000000E-02 0. -1.
          2   -1    0    0  501    0  0.00000000000E+00 -0.00000000000E+00 -0.10225938446E+02  0.10225938777E+02  0.26000000000E-02 0.  1.
        -13    1    1    2    0    0  0.17580075471E+02  0.10018660594E+02  0.19454373921E+02  0.28069849497E+02  0.10570000000E+00 0. -1.
         13    1    1    2    0    0 -0.17580075471E+02 -0.10018660594E+02  0.11377755945E+02  0.23214157674E+02  0.10570000000E+00 0.  1.
<mgrwt>
<rscale>  0 0.40980839E+02</rscale>
<asrwt>0</asrwt>
<pdfrwt beam="2">  1        2 0.15732213E-02 0.40980839E+02</pdfrwt>
<pdfrwt beam="1">  1       -2 0.63166259E-02 0.40980839E+02</pdfrwt>
<totfact> 0.67582422E+05</totfact>
</mgrwt>
</event>
<event>
 4    1  0.3704929E-001  0.8993151E+02  0.7818608E-02  0.1303018E+00
          2   -1    0    0  501    0  0.00000000000E+00  0.00000000000E+00  0.25447702185E+03  0.25447702187E+03  0.26000000000E-02 0. -1.
         -2   -1    0    0    0  501 -0.00000000000E+00 -0.00000000000E+00 -0.79453892615E+01  0.79453896869E+01  0.26000000000E-02 0.  1.
        -13    1    1    2    0    0 -0.99579222026E+01 -0.43165024685E+02  0.14577972106E+03  0.15236179907E+03  0.10570000000E+00 0.  1.
         13    1    1    2    0    0  0.99579222026E+01  0.43165024685E+02  0.10075191153E+03  0.11006061248E+03  0.10570000000E+00 0. -1.
<mgrwt>
<rscale>  0 0.89931508E+02</rscale>
<asrwt>0</asrwt>
<pdfrwt beam="1">  1        2 0.39150310E-01 0.89931508E+02</pdfrwt>
<pdfrwt beam="2">  1       -2 0.12223676E-02 0.89931508E+02</pdfrwt>
<totfact> 0.17529523E+05</totfact>
</mgrwt>
</event>
<event>
 4    1  0.3704929E-001  0.2578453E+02  0.7818608E-02  0.1649983E+00
          2   -1    0    0  501    0  0.00000000000E+00  0.00000000000E+00  0.28141783516E+02  0.28141783636E+02  0.26000000000E-02 0.  1.
         -2   -1    0    0    0  501 -0.00000000000E+00 -0.00000000000E+00 -0.59061796919E+01  0.59061802642E+01  0.26000000000E-02 0. -1.
        -13    1    1    2    0    0 -0.12021267717E+02 -0.45750696052E+01  0.99688091887E+01  0.16273612646E+02  0.10570000000E+00 0. -1.
         13    1    1    2    0    0  0.12021267717E+02  0.45750696052E+01  0.12266794635E+02  0.17774351254E+02  0.10570000000E+00 0.  1.
<mgrwt>
<rscale>  0 0.25784526E+02</rscale>
<asrwt>0</asrwt>
<pdfrwt beam="1">  1        2 0.43295052E-02 0.25784526E+02</pdfrwt>
<pdfrwt beam="2">  1       -2 0.90864309E-03 0.25784526E+02</pdfrwt>
<totfact> 0.24036185E+06</totfact>
</mgrwt>
</event>
<event>
 4    1  0.3704929E-001  0.2345584E+02  0.7818608E-02  0.1684226E+00
         -2   -1    0    0    0  501 -0.00000000000E+00  0.00000000000E+00  0.10049382001E+02  0.10049382337E+02  0.26000000000E-02 0. -1.
          2   -1    0    0  501    0  0.00000000000E+00 -0.00000000000E+00 -0.13686826509E+02  0.13686826756E+02  0.26000000000E-02 0.  1.
        -13    1    1    2    0    0  0.11417946739E+02  0.18268579007E+01 -0.37981354390E+01  0.12171438815E+02  0.10570000000E+00 0.  1.
         13    1    1    2    0    0 -0.11417946739E+02 -0.18268579007E+01  0.16069093080E+00  0.11564770278E+02  0.10570000000E+00 0. -1.
<mgrwt>
<rscale>  0 0.23455844E+02</rscale>
<asrwt>0</asrwt>
<pdfrwt beam="2">  1        2 0.21056657E-02 0.23455844E+02</pdfrwt>
<pdfrwt beam="1">  1       -2 0.15460588E-02 0.23455844E+02</pdfrwt>
<totfact> 0.27972867E+06</totfact>
</mgrwt>
</event>
<event>
 4    1  0.3704929E-001  0.1253433E+03  0.7818608E-02  0.1234534E+00
         -2   -1    0    0    0  501 -0.00000000000E+00  0.00000000000E+00  0.81970749417E+01  0.81970753541E+01  0.26000000000E-02 0. -1.
          2   -1    0    0  501    0  0.00000000000E+00 -0.00000000000E+00 -0.47916326349E+03  0.47916326350E+03  0.26000000000E-02 0.  1.
        -13    1    1    2    0    0 -0.46720912542E+02  0.38514817099E+02 -0.17260815211E+03  0.18292025627E+03  0.10570000000E+00 0. -1.
         13    1    1    2    0    0  0.46720912542E+02 -0.38514817099E+02 -0.29835803644E+03  0.30444008259E+03  0.10570000000E+00 0.  1.
<mgrwt>
<rscale>  0 0.12534333E+03</rscale>
<asrwt>0</asrwt>
<pdfrwt beam="2">  1        2 0.73717403E-01 0.12534333E+03</pdfrwt>
<pdfrwt beam="1">  1       -2 0.12610889E-02 0.12534333E+03</pdfrwt>
<totfact> 0.90179529E+04</totfact>
</mgrwt>
</event>
<event>
 4    1  0.3704929E-001  0.2154228E+02  0.7818608E-02  0.1716290E+00
         -2   -1    0    0    0  501 -0.00000000000E+00  0.00000000000E+00  0.80223584476E+01  0.80223588690E+01  0.26000000000E-02 0.  1.
          2   -1    0    0  501    0  0.00000000000E+00 -0.00000000000E+00 -0.14461761302E+02  0.14461761536E+02  0.26000000000E-02 0. -1.
        -13    1    1    2    0    0 -0.76530369420E+01  0.72792631305E+01 -0.54213389073E+01  0.11872604356E+02  0.10570000000E+00 0.  1.
         13    1    1    2    0    0  0.76530369420E+01 -0.72792631305E+01 -0.10180639470E+01  0.10611516049E+02  0.10570000000E+00 0. -1.
<mgrwt>
<rscale>  0 0.21542278E+02</rscale>
<asrwt>0</asrwt>
<pdfrwt beam="2">  1        2 0.22248864E-02 0.21542278E+02</pdfrwt>
<pdfrwt beam="1">  1       -2 0.12342090E-02 0.21542278E+02</pdfrwt>
<totfact> 0.34236612E+06</totfact>
</mgrwt>
</event>
<event>
 4    1  0.3704929E-001  0.4166534E+02  0.7818608E-02  0.1496302E+00
          2   -1    0    0  501    0  0.00000000000E+00  0.00000000000E+00  0.22281071875E+01  0.22281087045E+01  0.26000000000E-02 0.  1.
         -2   -1    0    0    0  501 -0.00000000000E+00 -0.00000000000E+00 -0.19478417564E+03  0.19478417566E+03  0.26000000000E-02 0. -1.
        -13    1    1    2    0    0 -0.78701253924E+00 -0.20473135507E+02 -0.78447134358E+02  0.81078558989E+02  0.10570000000E+00 0.  1.
         13    1    1    2    0    0  0.78701253924E+00  0.20473135507E+02 -0.11410893410E+03  0.11593372537E+03  0.10570000000E+00 0. -1.
<mgrwt>
<rscale>  0 0.41665342E+02</rscale>
<asrwt>0</asrwt>
<pdfrwt beam="1">  1        2 0.34278599E-03 0.41665342E+02</pdfrwt>
<pdfrwt beam="2">  1       -2 0.29966783E-01 0.41665342E+02</pdfrwt>
<totfact> 0.44428979E+05</totfact>
</mgrwt>
</event>
<event>
 4    1  0.3704929E-001  0.3332455E+02  0.7818608E-02  0.1564003E+00
         -2   -1    0    0    0  501 -0.00000000000E+00  0.00000000000E+00  0.46332500776E+01  0.46332508071E+01  0.26000000000E-02 0. -1.
          2   -1    0    0  501    0  0.00000000000E+00 -0.00000000000E+00 -0.59921507340E+02  0.59921507396E+02  0.26000000000E-02 0.  1.
        -13    1    1    2    0    0  0.10457000398E+02  0.12544255948E+02 -0.34043472166E+02  0.37758130041E+02  0.10570000000E+00 0.  1.
         13    1    1    2    0    0 -0.10457000398E+02 -0.12544255948E+02 -0.21244785097E+02  0.26796628163E+02  0.10570000000E+00 0. -1.
<mgrwt>
<rscale>  0 0.33324547E+02</rscale>
<asrwt>0</asrwt>
<pdfrwt beam="2">  1        2 0.92186929E-02 0.33324547E+02</pdfrwt>
<pdfrwt beam="1">  1       -2 0.71280781E-03 0.33324547E+02</pdfrwt>
<totfact> 0.14583814E+06</totfact>
</mgrwt>
</event>
<event>
 4    1  0.3704929E-001  0.2495133E+02  0.7818608E-02  0.1661702E+00
          2   -1    0    0  501    0  0.00000000000E+00  0.00000000000E+00  0.26717826458E+01  0.26717839108E+01  0.26000000000E-02 0. -1.
         -2   -1    0    0    0  501 -0.00000000000E+00 -0.00000000000E+00 -0.58254041444E+02  0.58254041502E+02  0.26000000000E-02 0.  1.
        -13    1    1    2    0    0 -0.82749435029E+01  0.65762168156E+01 -0.11610778011E+02  0.15701676856E+02  0.10570000000E+00 0. -1.
         13    1    1    2    0    0  0.82749435029E+01 -0.65762168156E+01 -0.43971480787E+02  0.45224148557E+02  0.10570000000E+00 0.  1.
<mgrwt>
<rscale>  0 0.24951327E+02</rscale>
<asrwt>0</asrwt>
<pdfrwt beam="1">  1        2 0.41104363E-03 0.24951327E+02</pdfrwt>
<pdfrwt beam="2">  1       -2 0.89621594E-02 0.24951327E+02</pdfrwt>
<totfact> 0.20252665E+06</totfact>
</mgrwt>
</event>
<event>
 4    1  0.3704929E-001  0.2102294E+02  0.7818608E-02  0.1725719E+00
          2   -1    0    0  501    0  0.00000000000E+00  0.00000000000E+00  0.49799946950E+02  0.49799947018E+02  0.26000000000E-02 0.  1.
         -2   -1    0    0    0  501 -0.00000000000E+00 -0.00000000000E+00 -0.22186967769E+01  0.22186983003E+01  0.26000000000E-02 0. -1.
        -13    1    1    2    0    0  0.35810925923E+01 -0.98580614065E+01  0.22086623262E+02  0.24450678896E+02  0.10570000000E+00 0.  1.
         13    1    1    2    0    0 -0.35810925923E+01  0.98580614065E+01  0.25494626911E+02  0.27567966422E+02  0.10570000000E+00 0. -1.
<mgrwt>
<rscale>  0 0.21022942E+02</rscale>
<asrwt>0</asrwt>
<pdfrwt beam="1">  1        2 0.76615300E-02 0.21022942E+02</pdfrwt>
<pdfrwt beam="2">  1       -2 0.34133811E-03 0.21022942E+02</pdfrwt>
<totfact> 0.41407308E+06</totfact>
</mgrwt>
</event>
<event>
 4    1  0.3704929E-001  0.3378941E+02  0.7818608E-02  0.1559621E+00
          2   -1    0    0  501    0  0.00000000000E+00  0.00000000000E+00  0.41009164385E+01  0.41009172627E+01  0.26000000000E-02 0. -1.
         -2   -1    0    0    0  501 -0.00000000000E+00 -0.00000000000E+00 -0.69601780003E+02  0.69601780051E+02  0.26000000000E-02 0.  1.
        -13    1    1    2    0    0 -0.11561925878E+02 -0.11003891315E+02 -0.20673355381E+02  0.26118241696E+02  0.10570000000E+00 0.  1.
         13    1    1    2    0    0  0.11561925878E+02  0.11003891315E+02 -0.44827508183E+02  0.47584455618E+02  0.10570000000E+00 0. -1.
<mgrwt>
<rscale>  0 0.33789413E+02</rscale>
<asrwt>0</asrwt>
<pdfrwt beam="1">  1        2 0.63091034E-03 0.33789413E+02</pdfrwt>
<pdfrwt beam="2">  1       -2 0.10707965E-01 0.33789413E+02</pdfrwt>
<totfact> 0.97639706E+05</totfact>
</mgrwt>
</event>
<event>
 4    1  0.3704929E-001  0.2977808E+02  0.7818608E-02  0.1600555E+00
         -2   -1    0    0    0  501 -0.00000000000E+00  0.00000000000E+00  0.14102860125E+02  0.14102860364E+02  0.26000000000E-02 0. -1.
          2   -1    0    0  501    0  0.00000000000E+00 -0.00000000000E+00 -0.15719043681E+02  0.15719043896E+02  0.26000000000E-02 0.  1.
        -13    1    1    2    0    0  0.19969238709E+01 -0.98983423146E+01 -0.11765283246E+02  0.15504771778E+02  0.10570000000E+00 0.  1.
         13    1    1    2    0    0 -0.19969238709E+01  0.98983423146E+01  0.10149099690E+02  0.14317132483E+02  0.10570000000E+00 0. -1.
<mgrwt>
<rscale>  0 0.29778078E+02</rscale>
<asrwt>0</asrwt>
<pdfrwt beam="2">  1        2 0.24183144E-02 0.29778078E+02</pdfrwt>
<pdfrwt beam="1">  1       -2 0.21696708E-02 0.29778078E+02</pdfrwt>
<totfact> 0.16019665E+06</totfact>
</mgrwt>
</event>
<event>
 4    1  0.3704929E-001  0.3375356E+02  0.7818608E-02  0.1559956E+00
         -2   -1    0    0    0  501 -0.00000000000E+00  0.00000000000E+00  0.53173091726E+01  0.53173098082E+01  0.26000000000E-02 0. -1.
          2   -1    0    0  501    0  0.00000000000E+00 -0.00000000000E+00 -0.53565742145E+02  0.53565742208E+02  0.26000000000E-02 0.  1.
        -13    1    1    2    0    0 -0.95200038161E+01  0.12005270110E+02 -0.36466776843E+02  0.39554948728E+02  0.10570000000E+00 0.  1.
         13    1    1    2    0    0  0.95200038161E+01 -0.12005270110E+02 -0.11781656129E+02  0.19328103288E+02  0.10570000000E+00 0. -1.
<mgrwt>
<rscale>  0 0.33753556E+02</rscale>
<asrwt>0</asrwt>
<pdfrwt beam="2">  1        2 0.82408831E-02 0.33753556E+02</pdfrwt>
<pdfrwt beam="1">  1       -2 0.81804766E-03 0.33753556E+02</pdfrwt>
<totfact> 0.13856932E+06</totfact>
</mgrwt>
</event>
<event>
 4    1  0.3704929E-001  0.3702755E+02  0.7818608E-02  0.1531299E+00
          2   -1    0    0  501    0  0.00000000000E+00  0.00000000000E+00  0.42534077922E+01  0.42534085868E+01  0.26000000000E-02 0.  1.
         -2   -1    0    0    0  501 -0.00000000000E+00 -0.00000000000E+00 -0.80584774574E+02  0.80584774616E+02  0.26000000000E-02 0. -1.
        -13    1    1    2    0    0  0.46353951330E+01 -0.12309449518E+02 -0.83147729440E+01  0.15561364242E+02  0.10570000000E+00 0.  1.
         13    1    1    2    0    0 -0.46353951330E+01  0.12309449518E+02 -0.68016593838E+02  0.69276818961E+02  0.10570000000E+00 0. -1.
<mgrwt>
<rscale>  0 0.37027554E+02</rscale>
<asrwt>0</asrwt>
<pdfrwt beam="1">  1        2 0.65437055E-03 0.37027554E+02</pdfrwt>
<pdfrwt beam="2">  1       -2 0.12397657E-01 0.37027554E+02</pdfrwt>
<totfact> 0.76430089E+05</totfact>
</mgrwt>
</event>
<event>
 4    1  0.3704929E-001  0.2029731E+02  0.7818608E-02  0.1739479E+00
          2   -1    0    0  501    0  0.00000000000E+00  0.00000000000E+00  0.21688421828E+02  0.21688421983E+02  0.26000000000E-02 0. -1.
         -2   -1    0    0    0  501 -0.00000000000E+00 -0.00000000000E+00 -0.47488572419E+01  0.47488579536E+01  0.26000000000E-02 0.  1.
        -13    1    1    2    0    0 -0.89024350221E+01  0.46294006439E+01  0.10444848014E+02  0.14484154175E+02  0.10570000000E+00 0.  1.
         13    1    1    2    0    0  0.89024350221E+01 -0.46294006439E+01  0.64947165717E+01  0.11953125762E+02  0.10570000000E+00 0. -1.
<mgrwt>
<rscale>  0 0.20297313E+02</rscale>
<asrwt>0</asrwt>
<pdfrwt beam="1">  1        2 0.33366804E-02 0.20297313E+02</pdfrwt>
<pdfrwt beam="2">  1       -2 0.73059348E-03 0.20297313E+02</pdfrwt>
<totfact> 0.40609552E+06</totfact>
</mgrwt>
</event>
<event>
 4    1  0.3704929E-001  0.2095670E+02  0.7818608E-02  0.1726946E+00
          2   -1    0    0  501    0  0.00000000000E+00  0.00000000000E+00  0.29887527958E+01  0.29887539267E+01  0.26000000000E-02 0. -1.
         -2   -1    0    0    0  501 -0.00000000000E+00 -0.00000000000E+00 -0.36736318804E+02  0.36736318896E+02  0.26000000000E-02 0.  1.
        -13    1    1    2    0    0  0.38770968320E+01  0.94164437108E+01 -0.12198448148E+02  0.15890708031E+02  0.10570000000E+00 0. -1.
         13    1    1    2    0    0 -0.38770968320E+01 -0.94164437108E+01 -0.21549117861E+02  0.23834364792E+02  0.10570000000E+00 0.  1.
<mgrwt>
<rscale>  0 0.20956698E+02</rscale>
<asrwt>0</asrwt>
<pdfrwt beam="1">  1        2 0.45980824E-03 0.20956698E+02</pdfrwt>
<pdfrwt beam="2">  1       -2 0.56517412E-02 0.20956698E+02</pdfrwt>
<totfact> 0.31841572E+06</totfact>
</mgrwt>
</event>
<event>
 4    1  0.3704929E-001  0.4695149E+02  0.7818608E-02  0.1462514E+00
         -2   -1    0    0    0  501 -0.00000000000E+00  0.00000000000E+00  0.25447190601E+02  0.25447190734E+02  0.26000000000E-02 0. -1.
          2   -1    0    0  501    0  0.00000000000E+00 -0.00000000000E+00 -0.21657031455E+02  0.21657031611E+02  0.26000000000E-02 0.  1.
        -13    1    1    2    0    0 -0.21053273396E+02  0.95511684518E+01  0.59868640226E+01  0.23881349476E+02  0.10570000000E+00 0.  1.
         13    1    1    2    0    0  0.21053273396E+02 -0.95511684518E+01 -0.21967048761E+01  0.23222872869E+02  0.10570000000E+00 0. -1.
<mgrwt>
<rscale>  0 0.46951490E+02</rscale>
<asrwt>0</asrwt>
<pdfrwt beam="2">  1        2 0.33318510E-02 0.46951490E+02</pdfrwt>
<pdfrwt beam="1">  1       -2 0.39149524E-02 0.46951490E+02</pdfrwt>
<totfact> 0.52639806E+05</totfact>
</mgrwt>
</event>
<event>
 4    1  0.3704929E-001  0.2265633E+02  0.7818608E-02  0.1697142E+00
         -2   -1    0    0    0  501 -0.00000000000E+00  0.00000000000E+00  0.23330388140E+02  0.23330388285E+02  0.26000000000E-02 0.  1.
          2   -1    0    0  501    0  0.00000000000E+00 -0.00000000000E+00 -0.55004367309E+01  0.55004373454E+01  0.26000000000E-02 0. -1.
        -13    1    1    2    0    0 -0.91632574818E+01  0.50660847621E+01  0.14415723276E+02  0.17817259962E+02  0.10570000000E+00 0.  1.
         13    1    1    2    0    0  0.91632574818E+01 -0.50660847621E+01  0.34142281333E+01  0.11013565668E+02  0.10570000000E+00 0. -1.
<mgrwt>
<rscale>  0 0.22656331E+02</rscale>
<asrwt>0</asrwt>
<pdfrwt beam="2">  1        2 0.84622109E-03 0.22656331E+02</pdfrwt>
<pdfrwt beam="1">  1       -2 0.35892905E-02 0.22656331E+02</pdfrwt>
<totfact> 0.28093751E+06</totfact>
</mgrwt>
</event>
<event>
 4    1  0.3704929E-001  0.3191290E+02  0.7818608E-02  0.1577858E+00
         -2   -1    0    0    0  501 -0.00000000000E+00  0.00000000000E+00  0.11302621129E+03  0.11302621132E+03  0.26000000000E-02 0. -1.
          2   -1    0    0  501    0  0.00000000000E+00 -0.00000000000E+00 -0.22526468242E+01  0.22526483246E+01  0.26000000000E-02 0.  1.
        -13    1    1    2    0    0 -0.10012451217E+02  0.11579313950E+02  0.39124478781E+02  0.42012685029E+02  0.10570000000E+00 0.  1.
         13    1    1    2    0    0  0.10012451217E+02 -0.11579313950E+02  0.71649085682E+02  0.73266174613E+02  0.10570000000E+00 0. -1.
<mgrwt>
<rscale>  0 0.31912895E+02</rscale>
<asrwt>0</asrwt>
<pdfrwt beam="2">  1        2 0.34656126E-03 0.31912895E+02</pdfrwt>
<pdfrwt beam="1">  1       -2 0.17388643E-01 0.31912895E+02</pdfrwt>
<totfact> 0.10013638E+06</totfact>
</mgrwt>
</event>
<event>
 4    1  0.3704929E-001  0.6718484E+02  0.7818608E-02  0.1369937E+00
         -2   -1    0    0    0  501 -0.00000000000E+00  0.00000000000E+00  0.17928389491E+03  0.17928389493E+03  0.26000000000E-02 0.  1.
          2   -1    0    0  501    0  0.00000000000E+00 -0.00000000000E+00 -0.62942102338E+01  0.62942107708E+01  0.26000000000E-02 0. -1.
        -13    1    1    2    0    0 -0.32968998666E+02  0.51680539592E+01  0.75877147400E+02  0.82891593813E+02  0.10570000000E+00 0. -1.
         13    1    1    2    0    0  0.32968998666E+02 -0.51680539592E+01  0.97112537280E+02  0.10268651189E+03  0.10570000000E+00 0.  1.
<mgrwt>
<rscale>  0 0.67184837E+02</rscale>
<asrwt>0</asrwt>
<pdfrwt beam="2">  1        2 0.96834010E-03 0.67184837E+02</pdfrwt>
<pdfrwt beam="1">  1       -2 0.27582137E-01 0.67184837E+02</pdfrwt>
<totfact> 0.14129066E+05</totfact>
</mgrwt>
</event>
<event>
 4    1  0.3704929E-001  0.2158438E+02  0.7818608E-02  0.1715541E+00
         -2   -1    0    0    0  501 -0.00000000000E+00  0.00000000000E+00  0.77313170932E+01  0.77313175304E+01  0.26000000000E-02 0.  1.
          2   -1    0    0  501    0  0.00000000000E+00 -0.00000000000E+00 -0.15064876814E+02  0.15064877038E+02  0.26000000000E-02 0. -1.
        -13    1    1    2    0    0  0.46735611851E+01  0.97003529562E+01 -0.44292194678E+01  0.11643374906E+02  0.10570000000E+00 0. -1.
         13    1    1    2    0    0 -0.46735611851E+01 -0.97003529562E+01 -0.29043402528E+01  0.11152819662E+02  0.10570000000E+00 0.  1.
<mgrwt>
<rscale>  0 0.21584378E+02</rscale>
<asrwt>0</asrwt>
<pdfrwt beam="2">  1        2 0.23176734E-02 0.21584378E+02</pdfrwt>
<pdfrwt beam="1">  1       -2 0.11894335E-02 0.21584378E+02</pdfrwt>
<totfact> 0.34197540E+06</totfact>
</mgrwt>
</event>
<event>
 4    1  0.3704929E-001  0.3080672E+02  0.7818608E-02  0.1589339E+00
         -2   -1    0    0    0  501 -0.00000000000E+00  0.00000000000E+00  0.16829249775E+02  0.16829249976E+02  0.26000000000E-02 0.  1.
          2   -1    0    0  501    0  0.00000000000E+00 -0.00000000000E+00 -0.14098281555E+02  0.14098281795E+02  0.26000000000E-02 0. -1.
        -13    1    1    2    0    0  0.13040786399E+02  0.73653204680E+01 -0.22461620607E+01  0.15144849685E+02  0.10570000000E+00 0. -1.
         13    1    1    2    0    0 -0.13040786399E+02 -0.73653204680E+01  0.49771302811E+01  0.15782682086E+02  0.10570000000E+00 0.  1.
<mgrwt>
<rscale>  0 0.30806721E+02</rscale>
<asrwt>0</asrwt>
<pdfrwt beam="2">  1        2 0.21689664E-02 0.30806721E+02</pdfrwt>
<pdfrwt beam="1">  1       -2 0.25891154E-02 0.30806721E+02</pdfrwt>
<totfact> 0.14574200E+06</totfact>
</mgrwt>
</event>
<event>
 4    1  0.3704929E-001  0.5975336E+02  0.7818608E-02  0.1398870E+00
         -2   -1    0    0    0  501 -0.00000000000E+00  0.00000000000E+00  0.36405987019E+02  0.36405987112E+02  0.26000000000E-02 0.  1.
          2   -1    0    0  501    0  0.00000000000E+00 -0.00000000000E+00 -0.24518382632E+02  0.24518382770E+02  0.26000000000E-02 0. -1.
        -13    1    1    2    0    0  0.18017372257E+02  0.30907207169E+01 -0.18150355205E+02  0.25760916602E+02  0.10570000000E+00 0. -1.
         13    1    1    2    0    0 -0.18017372257E+02 -0.30907207169E+01  0.30037959593E+02  0.35163453280E+02  0.10570000000E+00 0.  1.
<mgrwt>
<rscale>  0 0.59753357E+02</rscale>
<asrwt>0</asrwt>
<pdfrwt beam="2">  1        2 0.37720589E-02 0.59753357E+02</pdfrwt>
<pdfrwt beam="1">  1       -2 0.56009211E-02 0.59753357E+02</pdfrwt>
<totfact> 0.28165041E+05</totfact>
</mgrwt>
</event>
<event>
 4    1  0.3704929E-001  0.2395803E+02  0.7818608E-02  0.1676435E+00
         -2   -1    0    0    0  501 -0.00000000000E+00  0.00000000000E+00  0.71028658418E+01  0.71028663176E+01  0.26000000000E-02 0. -1.
          2   -1    0    0  501    0  0.00000000000E+00 -0.00000000000E+00 -0.20202654990E+02  0.20202655157E+02  0.26000000000E-02 0.  1.
        -13    1    1    2    0    0  0.11388308339E+02 -0.25785743933E+01 -0.95959576927E+01  0.15114105639E+02  0.10570000000E+00 0.  1.
         13    1    1    2    0    0 -0.11388308339E+02  0.25785743933E+01 -0.35038314558E+01  0.12191415836E+02  0.10570000000E+00 0. -1.
<mgrwt>
<rscale>  0 0.23958026E+02</rscale>
<asrwt>0</asrwt>
<pdfrwt beam="2">  1        2 0.31081008E-02 0.23958026E+02</pdfrwt>
<pdfrwt beam="1">  1       -2 0.10927487E-02 0.23958026E+02</pdfrwt>
<totfact> 0.27570765E+06</totfact>
</mgrwt>
</event>
<event>
 4    1  0.3704929E-001  0.3058391E+02  0.7818608E-02  0.1591723E+00
         -2   -1    0    0    0  501 -0.00000000000E+00  0.00000000000E+00  0.22517958736E+02  0.22517958886E+02  0.26000000000E-02 0.  1.
          2   -1    0    0  501    0  0.00000000000E+00 -0.00000000000E+00 -0.10384772519E+02  0.10384772844E+02  0.26000000000E-02 0. -1.
        -13    1    1    2    0    0 -0.18787838636E+01  0.11637271199E+02  0.16545572230E+02  0.20315586200E+02  0.10570000000E+00 0.  1.
         13    1    1    2    0    0  0.18787838636E+01 -0.11637271199E+02 -0.44123860124E+01  0.12587145530E+02  0.10570000000E+00 0. -1.
<mgrwt>
<rscale>  0 0.30583910E+02</rscale>
<asrwt>0</asrwt>
<pdfrwt beam="2">  1        2 0.15976574E-02 0.30583910E+02</pdfrwt>
<pdfrwt beam="1">  1       -2 0.34643014E-02 0.30583910E+02</pdfrwt>
<totfact> 0.14369653E+06</totfact>
</mgrwt>
</event>
<event>
 4    1  0.3704929E-001  0.2780962E+02  0.7818608E-02  0.1623644E+00
         -2   -1    0    0    0  501 -0.00000000000E+00  0.00000000000E+00  0.60684508744E+01  0.60684514314E+01  0.26000000000E-02 0. -1.
          2   -1    0    0  501    0  0.00000000000E+00 -0.00000000000E+00 -0.31860485344E+02  0.31860485450E+02  0.26000000000E-02 0.  1.
        -13    1    1    2    0    0  0.11289188521E+02  0.66477560690E+01 -0.19248555447E+02  0.23284254283E+02  0.10570000000E+00 0.  1.
         13    1    1    2    0    0 -0.11289188521E+02 -0.66477560690E+01 -0.65434790221E+01  0.14644682598E+02  0.10570000000E+00 0. -1.
<mgrwt>
<rscale>  0 0.27809624E+02</rscale>
<asrwt>0</asrwt>
<pdfrwt beam="2">  1        2 0.49016131E-02 0.27809624E+02</pdfrwt>
<pdfrwt beam="1">  1       -2 0.93360789E-03 0.27809624E+02</pdfrwt>
<totfact> 0.20410334E+06</totfact>
</mgrwt>
</event>
<event>
 4    1  0.3704929E-001  0.4406370E+02  0.7818608E-02  0.1480273E+00
         -2   -1    0    0    0  501 -0.00000000000E+00  0.00000000000E+00  0.13351843405E+02  0.13351843658E+02  0.26000000000E-02 0.  1.
          2   -1    0    0  501    0  0.00000000000E+00 -0.00000000000E+00 -0.36354712406E+02  0.36354712498E+02  0.26000000000E-02 0. -1.
        -13    1    1    2    0    0  0.55014131972E+01  0.16822919316E+02 -0.26300769205E+02  0.31702015625E+02  0.10570000000E+00 0. -1.
         13    1    1    2    0    0 -0.55014131972E+01 -0.16822919316E+02  0.32979002035E+01  0.18004540531E+02  0.10570000000E+00 0.  1.
<mgrwt>
<rscale>  0 0.44063701E+02</rscale>
<asrwt>0</asrwt>
<pdfrwt beam="2">  1        2 0.55930327E-02 0.44063701E+02</pdfrwt>
<pdfrwt beam="1">  1       -2 0.20541298E-02 0.44063701E+02</pdfrwt>
<totfact> 0.67074788E+05</totfact>
</mgrwt>
</event>
<event>
 4    1  0.3704929E-001  0.3229257E+02  0.7818608E-02  0.1574047E+00
          2   -1    0    0  501    0  0.00000000000E+00  0.00000000000E+00  0.78571322314E+02  0.78571322357E+02  0.26000000000E-02 0.  1.
         -2   -1    0    0    0  501 -0.00000000000E+00 -0.00000000000E+00 -0.33180350694E+01  0.33180360880E+01  0.26000000000E-02 0. -1.
        -13    1    1    2    0    0 -0.23751269447E+01  0.13401976129E+02  0.15601570475E+02  0.20704452804E+02  0.10570000000E+00 0. -1.
         13    1    1    2    0    0  0.23751269447E+01 -0.13401976129E+02  0.59651716770E+02  0.61184905640E+02  0.10570000000E+00 0.  1.
<mgrwt>
<rscale>  0 0.32292565E+02</rscale>
<asrwt>0</asrwt>
<pdfrwt beam="1">  1        2 0.12087895E-01 0.32292565E+02</pdfrwt>
<pdfrwt beam="2">  1       -2 0.51046703E-03 0.32292565E+02</pdfrwt>
<totfact> 0.16603797E+06</totfact>
</mgrwt>
</event>
<event>
 4    1  0.3704929E-001  0.2788537E+02  0.7818608E-02  0.1622713E+00
         -2   -1    0    0    0  501 -0.00000000000E+00  0.00000000000E+00  0.34346759660E+02  0.34346759759E+02  0.26000000000E-02 0.  1.
          2   -1    0    0  501    0  0.00000000000E+00 -0.00000000000E+00 -0.56598777592E+01  0.56598783564E+01  0.26000000000E-02 0. -1.
        -13    1    1    2    0    0  0.77385279747E+01  0.11464556657E+02  0.16855743963E+02  0.21804773596E+02  0.10570000000E+00 0. -1.
         13    1    1    2    0    0 -0.77385279747E+01 -0.11464556657E+02  0.11831137938E+02  0.18201864518E+02  0.10570000000E+00 0.  1.
<mgrwt>
<rscale>  0 0.27885371E+02</rscale>
<asrwt>0</asrwt>
<pdfrwt beam="2">  1        2 0.87075048E-03 0.27885371E+02</pdfrwt>
<pdfrwt beam="1">  1       -2 0.52841169E-02 0.27885371E+02</pdfrwt>
<totfact> 0.16921332E+06</totfact>
</mgrwt>
</event>
<event>
 4    1  0.3704929E-001  0.3933853E+02  0.7818608E-02  0.1513136E+00
         -2   -1    0    0    0  501 -0.00000000000E+00  0.00000000000E+00  0.31281603092E+01  0.31281613897E+01  0.26000000000E-02 0.  1.
          2   -1    0    0  501    0  0.00000000000E+00 -0.00000000000E+00 -0.12367647950E+03  0.12367647953E+03  0.26000000000E-02 0. -1.
        -13    1    1    2    0    0 -0.60293308736E+01  0.15094504602E+02 -0.95975910613E+02  0.97342608812E+02  0.10570000000E+00 0. -1.
         13    1    1    2    0    0  0.60293308736E+01 -0.15094504602E+02 -0.24572408582E+02  0.29462032108E+02  0.10570000000E+00 0.  1.
<mgrwt>
<rscale>  0 0.39338527E+02</rscale>
<asrwt>0</asrwt>
<pdfrwt beam="2">  1        2 0.19027147E-01 0.39338527E+02</pdfrwt>
<pdfrwt beam="1">  1       -2 0.48125561E-03 0.39338527E+02</pdfrwt>
<totfact> 0.11508790E+06</totfact>
</mgrwt>
</event>
<event>
 4    1  0.3704929E-001  0.2498257E+02  0.7818608E-02  0.1661252E+00
          2   -1    0    0  501    0  0.00000000000E+00  0.00000000000E+00  0.16856537343E+01  0.16856557395E+01  0.26000000000E-02 0. -1.
         -2   -1    0    0    0  501 -0.00000000000E+00 -0.00000000000E+00 -0.92564722736E+02  0.92564722773E+02  0.26000000000E-02 0.  1.
        -13    1    1    2    0    0 -0.12431710873E+02  0.28833745631E+00 -0.49888091183E+02  0.51414622318E+02  0.10570000000E+00 0.  1.
         13    1    1    2    0    0  0.12431710873E+02 -0.28833745631E+00 -0.40990977819E+02  0.42835756194E+02  0.10570000000E+00 0. -1.
<mgrwt>
<rscale>  0 0.24982567E+02</rscale>
<asrwt>0</asrwt>
<pdfrwt beam="1">  1        2 0.25933157E-03 0.24982567E+02</pdfrwt>
<pdfrwt beam="2">  1       -2 0.14240723E-01 0.24982567E+02</pdfrwt>
<totfact> 0.18470682E+06</totfact>
</mgrwt>
</event>
<event>
 4    1  0.3704929E-001  0.4119649E+02  0.7818608E-02  0.1499587E+00
         -2   -1    0    0    0  501 -0.00000000000E+00  0.00000000000E+00  0.55745758166E+01  0.55745764230E+01  0.26000000000E-02 0.  1.
          2   -1    0    0  501    0  0.00000000000E+00 -0.00000000000E+00 -0.76111205177E+02  0.76111205222E+02  0.26000000000E-02 0. -1.
        -13    1    1    2    0    0  0.19625407852E+02 -0.23723974018E+01 -0.46743360339E+02  0.50751727173E+02  0.10570000000E+00 0. -1.
         13    1    1    2    0    0 -0.19625407852E+02  0.23723974018E+01 -0.23793269022E+02  0.30934054471E+02  0.10570000000E+00 0.  1.
<mgrwt>
<rscale>  0 0.41196491E+02</rscale>
<asrwt>0</asrwt>
<pdfrwt beam="2">  1        2 0.11709416E-01 0.41196491E+02</pdfrwt>
<pdfrwt beam="1">  1       -2 0.85762715E-03 0.41196491E+02</pdfrwt>
<totfact> 0.91112259E+05</totfact>
</mgrwt>
</event>
<event>
 4    1  0.3704929E-001  0.2279632E+02  0.7818608E-02  0.1694833E+00
         -2   -1    0    0    0  501 -0.00000000000E+00  0.00000000000E+00  0.23803775086E+02  0.23803775228E+02  0.26000000000E-02 0.  1.
          2   -1    0    0  501    0  0.00000000000E+00 -0.00000000000E+00 -0.54578745259E+01  0.54578751451E+01  0.26000000000E-02 0. -1.
        -13    1    1    2    0    0 -0.81487787640E+01  0.68315123636E+01  0.14439628659E+02  0.17932824786E+02  0.10570000000E+00 0.  1.
         13    1    1    2    0    0  0.81487787640E+01 -0.68315123636E+01  0.39062719011E+01  0.11328825587E+02  0.10570000000E+00 0. -1.
<mgrwt>
<rscale>  0 0.22796318E+02</rscale>
<asrwt>0</asrwt>
<pdfrwt beam="2">  1        2 0.83967308E-03 0.22796318E+02</pdfrwt>
<pdfrwt beam="1">  1       -2 0.36621192E-02 0.22796318E+02</pdfrwt>
<totfact> 0.27661527E+06</totfact>
</mgrwt>
</event>
<event>
 4    1  0.3704929E-001  0.3390238E+02  0.7818608E-02  0.1558569E+00
         -2   -1    0    0    0  501 -0.00000000000E+00  0.00000000000E+00  0.38698260045E+01  0.38698268780E+01  0.26000000000E-02 0.  1.
          2   -1    0    0  501    0  0.00000000000E+00 -0.00000000000E+00 -0.74252117019E+02  0.74252117065E+02  0.26000000000E-02 0. -1.
        -13    1    1    2    0    0 -0.93118891913E+01  0.10284302651E+02 -0.12748734943E+02  0.18841963179E+02  0.10570000000E+00 0.  1.
         13    1    1    2    0    0  0.93118891913E+01 -0.10284302651E+02 -0.57633556072E+02  0.59279980764E+02  0.10570000000E+00 0. -1.
<mgrwt>
<rscale>  0 0.33902378E+02</rscale>
<asrwt>0</asrwt>
<pdfrwt beam="2">  1        2 0.11423402E-01 0.33902378E+02</pdfrwt>
<pdfrwt beam="1">  1       -2 0.59535797E-03 0.33902378E+02</pdfrwt>
<totfact> 0.14596613E+06</totfact>
</mgrwt>
</event>
<event>
 4    1  0.3704929E-001  0.2488090E+02  0.7818608E-02  0.1662718E+00
          2   -1    0    0  501    0  0.00000000000E+00  0.00000000000E+00  0.11763827342E+02  0.11763827629E+02  0.26000000000E-02 0.  1.
         -2   -1    0    0    0  501 -0.00000000000E+00 -0.00000000000E+00 -0.13155993633E+02  0.13155993890E+02  0.26000000000E-02 0. -1.
        -13    1    1    2    0    0 -0.12614173496E+01  0.12361229436E+02 -0.12991087786E+01  0.12493599282E+02  0.10570000000E+00 0.  1.
         13    1    1    2    0    0  0.12614173496E+01 -0.12361229436E+02 -0.93057513025E-01  0.12426222238E+02  0.10570000000E+00 0. -1.
<mgrwt>
<rscale>  0 0.24880904E+02</rscale>
<asrwt>0</asrwt>
<pdfrwt beam="1">  1        2 0.18098196E-02 0.24880904E+02</pdfrwt>
<pdfrwt beam="2">  1       -2 0.20239991E-02 0.24880904E+02</pdfrwt>
<totfact> 0.24025458E+06</totfact>
</mgrwt>
</event>
<event>
 4    1  0.3704929E-001  0.2805969E+02  0.7818608E-02  0.1620583E+00
         -2   -1    0    0    0  501 -0.00000000000E+00  0.00000000000E+00  0.63105876536E+01  0.63105881892E+01  0.26000000000E-02 0. -1.
          2   -1    0    0  501    0  0.00000000000E+00 -0.00000000000E+00 -0.31191469063E+02  0.31191469172E+02  0.26000000000E-02 0.  1.
        -13    1    1    2    0    0  0.10603552203E+02 -0.27285393065E+00 -0.16813514835E+00  0.10608921269E+02  0.10570000000E+00 0. -1.
         13    1    1    2    0    0 -0.10603552203E+02  0.27285393065E+00 -0.24712746261E+02  0.26893136092E+02  0.10570000000E+00 0.  1.
<mgrwt>
<rscale>  0 0.28059687E+02</rscale>
<asrwt>0</asrwt>
<pdfrwt beam="2">  1        2 0.47986875E-02 0.28059687E+02</pdfrwt>
<pdfrwt beam="1">  1       -2 0.97085970E-03 0.28059687E+02</pdfrwt>
<totfact> 0.19928722E+06</totfact>
</mgrwt>
</event>
<event>
 4    1  0.3704929E-001  0.9310586E+02  0.7818608E-02  0.1295500E+00
          2   -1    0    0  501    0  0.00000000000E+00  0.00000000000E+00  0.32703315848E+03  0.32703315849E+03  0.26000000000E-02 0. -1.
         -2   -1    0    0    0  501 -0.00000000000E+00 -0.00000000000E+00 -0.66267750892E+01  0.66267755992E+01  0.26000000000E-02 0.  1.
        -13    1    1    2    0    0  0.34824541693E+02 -0.25903879709E+02  0.99873604929E+02  0.10889677600E+03  0.10570000000E+00 0.  1.
         13    1    1    2    0    0 -0.34824541693E+02  0.25903879709E+02  0.22053277846E+03  0.22476315809E+03  0.10570000000E+00 0. -1.
<mgrwt>
<rscale>  0 0.93105860E+02</rscale>
<asrwt>0</asrwt>
<pdfrwt beam="1">  1        2 0.50312796E-01 0.93105860E+02</pdfrwt>
<pdfrwt beam="2">  1       -2 0.10195038E-02 0.93105860E+02</pdfrwt>
<totfact> 0.17542664E+05</totfact>
</mgrwt>
</event>
<event>
 4    1  0.3704929E-001  0.2701817E+02  0.7818608E-02  0.1633599E+00
          2   -1    0    0  501    0  0.00000000000E+00  0.00000000000E+00  0.30438786442E+02  0.30438786553E+02  0.26000000000E-02 0.  1.
         -2   -1    0    0    0  501 -0.00000000000E+00 -0.00000000000E+00 -0.59954865033E+01  0.59954870671E+01  0.26000000000E-02 0. -1.
        -13    1    1    2    0    0  0.63539370302E+00  0.12339681190E+02  0.48586466610E+01  0.13277389686E+02  0.10570000000E+00 0. -1.
         13    1    1    2    0    0 -0.63539370302E+00 -0.12339681190E+02  0.19584653278E+02  0.23156883934E+02  0.10570000000E+00 0.  1.
<mgrwt>
<rscale>  0 0.27018168E+02</rscale>
<asrwt>0</asrwt>
<pdfrwt beam="1">  1        2 0.46828903E-02 0.27018168E+02</pdfrwt>
<pdfrwt beam="2">  1       -2 0.92238258E-03 0.27018168E+02</pdfrwt>
<totfact> 0.21730984E+06</totfact>
</mgrwt>
</event>
<event>
 4    1  0.3704929E-001  0.2765800E+02  0.7818608E-02  0.1625519E+00
          2   -1    0    0  501    0  0.00000000000E+00  0.00000000000E+00  0.41486263989E+01  0.41486272136E+01  0.26000000000E-02 0. -1.
         -2   -1    0    0    0  501 -0.00000000000E+00 -0.00000000000E+00 -0.46097463422E+02  0.46097463496E+02  0.26000000000E-02 0.  1.
        -13    1    1    2    0    0 -0.64768603190E-01 -0.10766485702E+02 -0.52090600544E+01  0.11961057164E+02  0.10570000000E+00 0. -1.
         13    1    1    2    0    0  0.64768603190E-01  0.10766485702E+02 -0.36739776969E+02  0.38285033545E+02  0.10570000000E+00 0.  1.
<mgrwt>
<rscale>  0 0.27657995E+02</rscale>
<asrwt>0</asrwt>
<pdfrwt beam="1">  1        2 0.63825032E-03 0.27657995E+02</pdfrwt>
<pdfrwt beam="2">  1       -2 0.70919171E-02 0.27657995E+02</pdfrwt>
<totfact> 0.16598951E+06</totfact>
</mgrwt>
</event>
<event>
 4    1  0.3704929E-001  0.2450849E+02  0.7818608E-02  0.1668164E+00
          2   -1    0    0  501    0  0.00000000000E+00  0.00000000000E+00  0.47205403560E+02  0.47205403632E+02  0.26000000000E-02 0.  1.
         -2   -1    0    0    0  501 -0.00000000000E+00 -0.00000000000E+00 -0.31811288411E+01  0.31811299036E+01  0.26000000000E-02 0. -1.
        -13    1    1    2    0    0 -0.11337380160E+02 -0.58082345817E+00  0.31496364631E+02  0.33479929842E+02  0.10570000000E+00 0.  1.
         13    1    1    2    0    0  0.11337380160E+02  0.58082345817E+00  0.12527910088E+02  0.16906603693E+02  0.10570000000E+00 0. -1.
<mgrwt>
<rscale>  0 0.24508488E+02</rscale>
<asrwt>0</asrwt>
<pdfrwt beam="1">  1        2 0.72623692E-02 0.24508488E+02</pdfrwt>
<pdfrwt beam="2">  1       -2 0.48940457E-03 0.24508488E+02</pdfrwt>
<totfact> 0.28956278E+06</totfact>
</mgrwt>
</event>
<event>
 4    1  0.3704929E-001  0.2598197E+02  0.7818608E-02  0.1647285E+00
         -2   -1    0    0    0  501 -0.00000000000E+00  0.00000000000E+00  0.10195039606E+03  0.10195039609E+03  0.26000000000E-02 0.  1.
          2   -1    0    0  501    0  0.00000000000E+00 -0.00000000000E+00 -0.16553699908E+01  0.16553720326E+01  0.26000000000E-02 0. -1.
        -13    1    1    2    0    0  0.12129134830E+02 -0.24993818167E+01  0.34503230069E+02  0.36658517140E+02  0.10570000000E+00 0.  1.
         13    1    1    2    0    0 -0.12129134830E+02  0.24993818167E+01  0.65791795997E+02  0.66947250983E+02  0.10570000000E+00 0. -1.
<mgrwt>
<rscale>  0 0.25981973E+02</rscale>
<asrwt>0</asrwt>
<pdfrwt beam="2">  1        2 0.25467242E-03 0.25981973E+02</pdfrwt>
<pdfrwt beam="1">  1       -2 0.15684679E-01 0.25981973E+02</pdfrwt>
<totfact> 0.16516071E+06</totfact>
</mgrwt>
</event>
<event>
 4    1  0.3704929E-001  0.2484036E+02  0.7818608E-02  0.1663306E+00
          2   -1    0    0  501    0  0.00000000000E+00  0.00000000000E+00  0.58951326303E+01  0.58951332037E+01  0.26000000000E-02 0. -1.
         -2   -1    0    0    0  501 -0.00000000000E+00 -0.00000000000E+00 -0.26167491439E+02  0.26167491569E+02  0.26000000000E-02 0.  1.
        -13    1    1    2    0    0  0.15980945330E+01  0.11063566020E+02 -0.31502342946E+01  0.11614282062E+02  0.10570000000E+00 0. -1.
         13    1    1    2    0    0 -0.15980945330E+01 -0.11063566020E+02 -0.17122124515E+02  0.20448342710E+02  0.10570000000E+00 0.  1.
<mgrwt>
<rscale>  0 0.24840358E+02</rscale>
<asrwt>0</asrwt>
<pdfrwt beam="1">  1        2 0.90694355E-03 0.24840358E+02</pdfrwt>
<pdfrwt beam="2">  1       -2 0.40257679E-02 0.24840358E+02</pdfrwt>
<totfact> 0.22639049E+06</totfact>
</mgrwt>
</event>
<event>
 4    1  0.3704929E-001  0.7125917E+02  0.7818608E-02  0.1355863E+00
          2   -1    0    0  501    0  0.00000000000E+00  0.00000000000E+00  0.48420737318E+02  0.48420737388E+02  0.26000000000E-02 0.  1.
         -2   -1    0    0    0  501 -0.00000000000E+00 -0.00000000000E+00 -0.26217430657E+02  0.26217430786E+02  0.26000000000E-02 0. -1.
        -13    1    1    2    0    0  0.17464295214E+02  0.26965445159E+02  0.27237314210E+02  0.42119108464E+02  0.10570000000E+00 0.  1.
         13    1    1    2    0    0 -0.17464295214E+02 -0.26965445159E+02 -0.50340075491E+01  0.32519059710E+02  0.10570000000E+00 0. -1.
<mgrwt>
<rscale>  0 0.71259170E+02</rscale>
<asrwt>0</asrwt>
<pdfrwt beam="1">  1        2 0.74493441E-02 0.71259170E+02</pdfrwt>
<pdfrwt beam="2">  1       -2 0.40334509E-02 0.71259170E+02</pdfrwt>
<totfact> 0.19940270E+05</totfact>
</mgrwt>
</event>
<event>
 4    1  0.3704929E-001  0.4555487E+02  0.7818608E-02  0.1470907E+00
          2   -1    0    0  501    0  0.00000000000E+00  0.00000000000E+00  0.95178010502E+01  0.95178014053E+01  0.26000000000E-02 0. -1.
         -2   -1    0    0    0  501 -0.00000000000E+00 -0.00000000000E+00 -0.54509598651E+02  0.54509598713E+02  0.26000000000E-02 0.  1.
        -13    1    1    2    0    0  0.17241201441E+02 -0.12926418053E+02 -0.12124765953E+02  0.24725946549E+02  0.10570000000E+00 0. -1.
         13    1    1    2    0    0 -0.17241201441E+02  0.12926418053E+02 -0.32867031648E+02  0.39301453570E+02  0.10570000000E+00 0.  1.
<mgrwt>
<rscale>  0 0.45554869E+02</rscale>
<asrwt>0</asrwt>
<pdfrwt beam="1">  1        2 0.14642772E-02 0.45554869E+02</pdfrwt>
<pdfrwt beam="2">  1       -2 0.83860919E-02 0.45554869E+02</pdfrwt>
<totfact> 0.50203525E+05</totfact>
</mgrwt>
</event>
<event>
 4    1  0.3704929E-001  0.2339490E+02  0.7818608E-02  0.1685188E+00
          2   -1    0    0  501    0  0.00000000000E+00  0.00000000000E+00  0.10104564467E+01  0.10104597917E+01  0.26000000000E-02 0.  1.
         -2   -1    0    0    0  501 -0.00000000000E+00 -0.00000000000E+00 -0.13541415422E+03  0.13541415425E+03  0.26000000000E-02 0. -1.
        -13    1    1    2    0    0 -0.41707322147E+01 -0.10926657364E+02 -0.68250106160E+02  0.69245036008E+02  0.10570000000E+00 0.  1.
         13    1    1    2    0    0  0.41707322147E+01  0.10926657364E+02 -0.66153591616E+02  0.67179578032E+02  0.10570000000E+00 0. -1.
<mgrwt>
<rscale>  0 0.23394900E+02</rscale>
<asrwt>0</asrwt>
<pdfrwt beam="1">  1        2 0.15545520E-03 0.23394900E+02</pdfrwt>
<pdfrwt beam="2">  1       -2 0.20832933E-01 0.23394900E+02</pdfrwt>
<totfact> 0.19348745E+06</totfact>
</mgrwt>
</event>
<event>
 4    1  0.3704929E-001  0.2823354E+02  0.7818608E-02  0.1618478E+00
         -2   -1    0    0    0  501 -0.00000000000E+00  0.00000000000E+00  0.82987535496E+01  0.82987539569E+01  0.26000000000E-02 0.  1.
          2   -1    0    0  501    0  0.00000000000E+00 -0.00000000000E+00 -0.24013620779E+02  0.24013620920E+02  0.26000000000E-02 0. -1.
        -13    1    1    2    0    0  0.93417123743E+00  0.12803214710E+02 -0.11374504066E+01  0.12887976906E+02  0.10570000000E+00 0. -1.
         13    1    1    2    0    0 -0.93417123743E+00 -0.12803214710E+02 -0.14577416823E+02  0.19424397971E+02  0.10570000000E+00 0.  1.
<mgrwt>
<rscale>  0 0.28233535E+02</rscale>
<asrwt>0</asrwt>
<pdfrwt beam="2">  1        2 0.36944032E-02 0.28233535E+02</pdfrwt>
<pdfrwt beam="1">  1       -2 0.12767314E-02 0.28233535E+02</pdfrwt>
<totfact> 0.19046355E+06</totfact>
</mgrwt>
</event>
<event>
 4    1  0.3704929E-001  0.5117710E+02  0.7818608E-02  0.1439094E+00
         -2   -1    0    0    0  501 -0.00000000000E+00  0.00000000000E+00  0.64752219993E+02  0.64752220045E+02  0.26000000000E-02 0. -1.
          2   -1    0    0  501    0  0.00000000000E+00 -0.00000000000E+00 -0.10111992313E+02  0.10111992647E+02  0.26000000000E-02 0.  1.
        -13    1    1    2    0    0  0.25286120575E+02 -0.20722592369E+01  0.22450651616E+02  0.33878091483E+02  0.10570000000E+00 0.  1.
         13    1    1    2    0    0 -0.25286120575E+02  0.20722592369E+01  0.32189576064E+02  0.40986121209E+02  0.10570000000E+00 0. -1.
<mgrwt>
<rscale>  0 0.51177103E+02</rscale>
<asrwt>0</asrwt>
<pdfrwt beam="2">  1        2 0.15556911E-02 0.51177103E+02</pdfrwt>
<pdfrwt beam="1">  1       -2 0.99618802E-02 0.51177103E+02</pdfrwt>
<totfact> 0.36744030E+05</totfact>
</mgrwt>
</event>
<event>
 4    1  0.3704929E-001  0.2453013E+02  0.7818608E-02  0.1667844E+00
         -2   -1    0    0    0  501 -0.00000000000E+00  0.00000000000E+00  0.24166751577E+01  0.24166765563E+01  0.26000000000E-02 0. -1.
          2   -1    0    0  501    0  0.00000000000E+00 -0.00000000000E+00 -0.62247411979E+02  0.62247412033E+02  0.26000000000E-02 0.  1.
        -13    1    1    2    0    0 -0.11545968085E+02 -0.41251210685E+01 -0.30726355508E+02  0.33082413729E+02  0.10570000000E+00 0.  1.
         13    1    1    2    0    0  0.11545968085E+02  0.41251210685E+01 -0.29104381314E+02  0.31581674861E+02  0.10570000000E+00 0. -1.
<mgrwt>
<rscale>  0 0.24530130E+02</rscale>
<asrwt>0</asrwt>
<pdfrwt beam="2">  1        2 0.95765238E-02 0.24530130E+02</pdfrwt>
<pdfrwt beam="1">  1       -2 0.37179634E-03 0.24530130E+02</pdfrwt>
<totfact> 0.30247578E+06</totfact>
</mgrwt>
</event>
<event>
 4    1  0.3704929E-001  0.3593498E+02  0.7818608E-02  0.1540451E+00
          2   -1    0    0  501    0  0.00000000000E+00  0.00000000000E+00  0.26258953405E+01  0.26258966277E+01  0.26000000000E-02 0.  1.
         -2   -1    0    0    0  501 -0.00000000000E+00 -0.00000000000E+00 -0.12294116143E+03  0.12294116145E+03  0.26000000000E-02 0. -1.
        -13    1    1    2    0    0  0.13143803919E+02 -0.83824695369E+01 -0.28944033897E+02  0.32875426199E+02  0.10570000000E+00 0.  1.
         13    1    1    2    0    0 -0.13143803919E+02  0.83824695369E+01 -0.91371232190E+02  0.92691631884E+02  0.10570000000E+00 0. -1.
<mgrwt>
<rscale>  0 0.35934980E+02</rscale>
<asrwt>0</asrwt>
<pdfrwt beam="1">  1        2 0.40398410E-03 0.35934980E+02</pdfrwt>
<pdfrwt beam="2">  1       -2 0.18914020E-01 0.35934980E+02</pdfrwt>
<totfact> 0.74007238E+05</totfact>
</mgrwt>
</event>
<event>
 4    1  0.3704929E-001  0.3741577E+02  0.7818608E-02  0.1528138E+00
         -2   -1    0    0    0  501 -0.00000000000E+00  0.00000000000E+00  0.75192995393E+01  0.75192999888E+01  0.26000000000E-02 0.  1.
          2   -1    0    0  501    0  0.00000000000E+00 -0.00000000000E+00 -0.46544882357E+02  0.46544882430E+02  0.26000000000E-02 0. -1.
        -13    1    1    2    0    0 -0.11750313811E+02  0.11320997158E+02 -0.62901382237E+01  0.17487477310E+02  0.10570000000E+00 0.  1.
         13    1    1    2    0    0  0.11750313811E+02 -0.11320997158E+02 -0.32735444594E+02  0.36576705108E+02  0.10570000000E+00 0. -1.
<mgrwt>
<rscale>  0 0.37415768E+02</rscale>
<asrwt>0</asrwt>
<pdfrwt beam="2">  1        2 0.71607510E-02 0.37415768E+02</pdfrwt>
<pdfrwt beam="1">  1       -2 0.11568154E-02 0.37415768E+02</pdfrwt>
<totfact> 0.10516788E+06</totfact>
</mgrwt>
</event>
<event>
 4    1  0.3704929E-001  0.3054097E+02  0.7818608E-02  0.1592185E+00
          2   -1    0    0  501    0  0.00000000000E+00  0.00000000000E+00  0.30675088120E+02  0.30675088230E+02  0.26000000000E-02 0.  1.
         -2   -1    0    0    0  501 -0.00000000000E+00 -0.00000000000E+00 -0.76018611120E+01  0.76018615566E+01  0.26000000000E-02 0. -1.
        -13    1    1    2    0    0 -0.89719527138E+01 -0.47390053559E+01 -0.27654084473E+01  0.10517260272E+02  0.10570000000E+00 0. -1.
         13    1    1    2    0    0  0.89719527138E+01  0.47390053559E+01  0.25838635455E+02  0.27759689515E+02  0.10570000000E+00 0.  1.
<mgrwt>
<rscale>  0 0.30540974E+02</rscale>
<asrwt>0</asrwt>
<pdfrwt beam="1">  1        2 0.47192444E-02 0.30540974E+02</pdfrwt>
<pdfrwt beam="2">  1       -2 0.11695171E-02 0.30540974E+02</pdfrwt>
<totfact> 0.16237756E+06</totfact>
</mgrwt>
</event>
<event>
 4    1  0.3704929E-001  0.3001609E+02  0.7818608E-02  0.1597911E+00
         -2   -1    0    0    0  501 -0.00000000000E+00  0.00000000000E+00  0.35912797842E+01  0.35912807254E+01  0.26000000000E-02 0.  1.
          2   -1    0    0  501    0  0.00000000000E+00 -0.00000000000E+00 -0.62718965689E+02  0.62718965743E+02  0.26000000000E-02 0. -1.
        -13    1    1    2    0    0 -0.13771427319E+02  0.53464161830E+01 -0.23721536629E+02  0.27945640965E+02  0.10570000000E+00 0. -1.
         13    1    1    2    0    0  0.13771427319E+02 -0.53464161830E+01 -0.35406149276E+02  0.38364605504E+02  0.10570000000E+00 0.  1.
<mgrwt>
<rscale>  0 0.30016088E+02</rscale>
<asrwt>0</asrwt>
<pdfrwt beam="2">  1        2 0.96490709E-02 0.30016088E+02</pdfrwt>
<pdfrwt beam="1">  1       -2 0.55250471E-03 0.30016088E+02</pdfrwt>
<totfact> 0.18894094E+06</totfact>
</mgrwt>
</event>
<event>
 4    1  0.3704929E-001  0.4240703E+02  0.7818608E-02  0.1491210E+00
         -2   -1    0    0    0  501 -0.00000000000E+00  0.00000000000E+00  0.86018577921E+01  0.86018581850E+01  0.26000000000E-02 0.  1.
          2   -1    0    0  501    0  0.00000000000E+00 -0.00000000000E+00 -0.52266508552E+02  0.52266508617E+02  0.26000000000E-02 0. -1.
        -13    1    1    2    0    0  0.80723194117E+01  0.14990639086E+02 -0.39970819109E+02  0.43446048769E+02  0.10570000000E+00 0. -1.
         13    1    1    2    0    0 -0.80723194117E+01 -0.14990639086E+02 -0.36938316511E+01  0.17422318033E+02  0.10570000000E+00 0.  1.
<mgrwt>
<rscale>  0 0.42407032E+02</rscale>
<asrwt>0</asrwt>
<pdfrwt beam="2">  1        2 0.80410012E-02 0.42407032E+02</pdfrwt>
<pdfrwt beam="1">  1       -2 0.13233628E-02 0.42407032E+02</pdfrwt>
<totfact> 0.78602967E+05</totfact>
</mgrwt>
</event>
<event>
 4    1  0.3704929E-001  0.2469782E+02  0.7818608E-02  0.1665381E+00
          2   -1    0    0  501    0  0.00000000000E+00  0.00000000000E+00  0.45765075247E+02  0.45765075321E+02  0.26000000000E-02 0.  1.
         -2   -1    0    0    0  501 -0.00000000000E+00 -0.00000000000E+00 -0.33321384544E+01  0.33321394687E+01  0.26000000000E-02 0. -1.
        -13    1    1    2    0    0 -0.32594194349E+01 -0.11859162066E+02  0.19019949508E+02  0.22650236020E+02  0.10570000000E+00 0. -1.
         13    1    1    2    0    0  0.32594194349E+01  0.11859162066E+02  0.23412987284E+02  0.26446978769E+02  0.10570000000E+00 0.  1.
<mgrwt>
<rscale>  0 0.24697821E+02</rscale>
<asrwt>0</asrwt>
<pdfrwt beam="1">  1        2 0.70407804E-02 0.24697821E+02</pdfrwt>
<pdfrwt beam="2">  1       -2 0.51263681E-03 0.24697821E+02</pdfrwt>
<totfact> 0.28313219E+06</totfact>
</mgrwt>
</event>
<event>
 4    1  0.3704929E-001  0.2157267E+02  0.7818608E-02  0.1715749E+00
          2   -1    0    0  501    0  0.00000000000E+00  0.00000000000E+00  0.28005525240E+01  0.28005537309E+01  0.26000000000E-02 0.  1.
         -2   -1    0    0    0  501 -0.00000000000E+00 -0.00000000000E+00 -0.41543582060E+02  0.41543582141E+02  0.26000000000E-02 0. -1.
        -13    1    1    2    0    0 -0.54849822463E+01 -0.90684917842E+01 -0.15254588803E+02  0.18575150754E+02  0.10570000000E+00 0.  1.
         13    1    1    2    0    0  0.54849822463E+01  0.90684917842E+01 -0.23488440733E+02  0.25768985118E+02  0.10570000000E+00 0. -1.
<mgrwt>
<rscale>  0 0.21572669E+02</rscale>
<asrwt>0</asrwt>
<pdfrwt beam="1">  1        2 0.43085436E-03 0.21572669E+02</pdfrwt>
<pdfrwt beam="2">  1       -2 0.63913200E-02 0.21572669E+02</pdfrwt>
<totfact> 0.29426994E+06</totfact>
</mgrwt>
</event>
<event>
 4    1  0.3704929E-001  0.2755888E+02  0.7818608E-02  0.1626753E+00
          2   -1    0    0  501    0  0.00000000000E+00  0.00000000000E+00  0.48819930278E+02  0.48819930347E+02  0.26000000000E-02 0.  1.
         -2   -1    0    0    0  501 -0.00000000000E+00 -0.00000000000E+00 -0.38892515915E+01  0.38892524606E+01  0.26000000000E-02 0. -1.
        -13    1    1    2    0    0 -0.74008216890E+01 -0.11311474070E+02  0.17354632623E+02  0.21998092037E+02  0.10570000000E+00 0. -1.
         13    1    1    2    0    0  0.74008216890E+01  0.11311474070E+02  0.27576046064E+02  0.30711090771E+02  0.10570000000E+00 0.  1.
<mgrwt>
<rscale>  0 0.27558884E+02</rscale>
<asrwt>0</asrwt>
<pdfrwt beam="1">  1        2 0.75107583E-02 0.27558884E+02</pdfrwt>
<pdfrwt beam="2">  1       -2 0.59834649E-03 0.27558884E+02</pdfrwt>
<totfact> 0.22142322E+06</totfact>
</mgrwt>
</event>
<event>
 4    1  0.3704929E-001  0.3160300E+02  0.7818608E-02  0.1581017E+00
         -2   -1    0    0    0  501 -0.00000000000E+00  0.00000000000E+00  0.10384776254E+03  0.10384776258E+03  0.26000000000E-02 0. -1.
          2   -1    0    0  501    0  0.00000000000E+00 -0.00000000000E+00 -0.24043592848E+01  0.24043606906E+01  0.26000000000E-02 0.  1.
        -13    1    1    2    0    0  0.13003131125E+02 -0.88573606609E+01  0.45801114666E+02  0.48428168808E+02  0.10570000000E+00 0. -1.
         13    1    1    2    0    0 -0.13003131125E+02  0.88573606609E+01  0.55642288594E+02  0.57823954460E+02  0.10570000000E+00 0.  1.
<mgrwt>
<rscale>  0 0.31603000E+02</rscale>
<asrwt>0</asrwt>
<pdfrwt beam="2">  1        2 0.36990153E-03 0.31603000E+02</pdfrwt>
<pdfrwt beam="1">  1       -2 0.15976579E-01 0.31603000E+02</pdfrwt>
<totfact> 0.10470250E+06</totfact>
</mgrwt>
</event>
<event>
 4    1  0.3704929E-001  0.2943436E+02  0.7818608E-02  0.1604427E+00
          2   -1    0    0  501    0  0.00000000000E+00  0.00000000000E+00  0.10587362344E+03  0.10587362348E+03  0.26000000000E-02 0.  1.
         -2   -1    0    0    0  501 -0.00000000000E+00 -0.00000000000E+00 -0.20457908247E+01  0.20457924769E+01  0.26000000000E-02 0. -1.
        -13    1    1    2    0    0 -0.46341209261E+01 -0.13679245908E+02  0.62275989114E+02  0.63928920201E+02  0.10570000000E+00 0.  1.
         13    1    1    2    0    0  0.46341209261E+01  0.13679245908E+02  0.41551843506E+02  0.43990495753E+02  0.10570000000E+00 0. -1.
<mgrwt>
<rscale>  0 0.29434359E+02</rscale>
<asrwt>0</asrwt>
<pdfrwt beam="1">  1        2 0.16288248E-01 0.29434359E+02</pdfrwt>
<pdfrwt beam="2">  1       -2 0.31473722E-03 0.29434359E+02</pdfrwt>
<totfact> 0.22159041E+06</totfact>
</mgrwt>
</event>
<event>
 4    1  0.3704929E-001  0.3900423E+02  0.7818608E-02  0.1515670E+00
          2   -1    0    0  501    0  0.00000000000E+00  0.00000000000E+00  0.53435686493E+01  0.53435692818E+01  0.26000000000E-02 0. -1.
         -2   -1    0    0    0  501 -0.00000000000E+00 -0.00000000000E+00 -0.71175742182E+02  0.71175742229E+02  0.26000000000E-02 0.  1.
        -13    1    1    2    0    0 -0.53767115876E+01 -0.18525105813E+02 -0.27287081173E+02  0.33416830255E+02  0.10570000000E+00 0.  1.
         13    1    1    2    0    0  0.53767115876E+01  0.18525105813E+02 -0.38545092359E+02  0.43102481255E+02  0.10570000000E+00 0. -1.
<mgrwt>
<rscale>  0 0.39004230E+02</rscale>
<asrwt>0</asrwt>
<pdfrwt beam="1">  1        2 0.82208759E-03 0.39004230E+02</pdfrwt>
<pdfrwt beam="2">  1       -2 0.10950114E-01 0.39004230E+02</pdfrwt>
<totfact> 0.69261851E+05</totfact>
</mgrwt>
</event>
<event>
 4    1  0.3704929E-001  0.3707203E+02  0.7818608E-02  0.1530934E+00
          2   -1    0    0  501    0  0.00000000000E+00  0.00000000000E+00  0.39215745543E+01  0.39215754162E+01  0.26000000000E-02 0.  1.
         -2   -1    0    0    0  501 -0.00000000000E+00 -0.00000000000E+00 -0.87613753884E+02  0.87613753923E+02  0.26000000000E-02 0. -1.
        -13    1    1    2    0    0  0.13091685580E+02 -0.11535980382E+02 -0.26406350738E+02  0.31650870549E+02  0.10570000000E+00 0.  1.
         13    1    1    2    0    0 -0.13091685580E+02  0.11535980382E+02 -0.57285828591E+02  0.59884458790E+02  0.10570000000E+00 0. -1.
<mgrwt>
<rscale>  0 0.37072033E+02</rscale>
<asrwt>0</asrwt>
<pdfrwt beam="1">  1        2 0.60331930E-03 0.37072033E+02</pdfrwt>
<pdfrwt beam="2">  1       -2 0.13479038E-01 0.37072033E+02</pdfrwt>
<totfact> 0.74847228E+05</totfact>
</mgrwt>
</event>
<event>
 4    1  0.3704929E-001  0.3725208E+02  0.7818608E-02  0.1529465E+00
          2   -1    0    0  501    0  0.00000000000E+00  0.00000000000E+00  0.48719207960E+01  0.48719214898E+01  0.26000000000E-02 0. -1.
         -2   -1    0    0    0  501 -0.00000000000E+00 -0.00000000000E+00 -0.71209954327E+02  0.71209954374E+02  0.26000000000E-02 0.  1.
        -13    1    1    2    0    0  0.16467968357E+02 -0.65560823210E+00 -0.15447054328E+02  0.22588635724E+02  0.10570000000E+00 0. -1.
         13    1    1    2    0    0 -0.16467968357E+02  0.65560823210E+00 -0.50890979202E+02  0.53493240140E+02  0.10570000000E+00 0.  1.
<mgrwt>
<rscale>  0 0.37252076E+02</rscale>
<asrwt>0</asrwt>
<pdfrwt beam="1">  1        2 0.74952639E-03 0.37252076E+02</pdfrwt>
<pdfrwt beam="2">  1       -2 0.10955377E-01 0.37252076E+02</pdfrwt>
<totfact> 0.77242597E+05</totfact>
</mgrwt>
</event>
<event>
 4    1  0.3704929E-001  0.2306654E+02  0.7818608E-02  0.1690434E+00
          2   -1    0    0  501    0  0.00000000000E+00  0.00000000000E+00  0.48155387897E+02  0.48155387967E+02  0.26000000000E-02 0. -1.
         -2   -1    0    0    0  501 -0.00000000000E+00 -0.00000000000E+00 -0.27622313873E+01  0.27622326110E+01  0.26000000000E-02 0.  1.
        -13    1    1    2    0    0 -0.93166478771E+01  0.41758114526E+01  0.10856915716E+02  0.14903728403E+02  0.10570000000E+00 0.  1.
         13    1    1    2    0    0  0.93166478771E+01 -0.41758114526E+01  0.34536240794E+02  0.36013892175E+02  0.10570000000E+00 0. -1.
<mgrwt>
<rscale>  0 0.23066543E+02</rscale>
<asrwt>0</asrwt>
<pdfrwt beam="1">  1        2 0.74085214E-02 0.23066543E+02</pdfrwt>
<pdfrwt beam="2">  1       -2 0.42495877E-03 0.23066543E+02</pdfrwt>
<totfact> 0.33382616E+06</totfact>
</mgrwt>
</event>
<event>
 4    1  0.3704929E-001  0.1714129E+03  0.7818608E-02  0.1176382E+00
         -2   -1    0    0    0  501 -0.00000000000E+00  0.00000000000E+00  0.47311847185E+02  0.47311847257E+02  0.26000000000E-02 0. -1.
          2   -1    0    0  501    0  0.00000000000E+00 -0.00000000000E+00 -0.15525908890E+03  0.15525908892E+03  0.26000000000E-02 0.  1.
        -13    1    1    2    0    0 -0.53293811197E+01 -0.84641045904E+02 -0.39352366663E+02  0.93494004563E+02  0.10570000000E+00 0. -1.
         13    1    1    2    0    0  0.53293811197E+01  0.84641045904E+02 -0.68594875053E+02  0.10907693162E+03  0.10570000000E+00 0.  1.
<mgrwt>
<rscale>  0 0.17141289E+03</rscale>
<asrwt>0</asrwt>
<pdfrwt beam="2">  1        2 0.23886013E-01 0.17141289E+03</pdfrwt>
<pdfrwt beam="1">  1       -2 0.72787458E-02 0.17141289E+03</pdfrwt>
<totfact> 0.23540008E+04</totfact>
</mgrwt>
</event>
<event>
 4    1  0.3704929E-001  0.2557415E+02  0.7818608E-02  0.1652890E+00
         -2   -1    0    0    0  501 -0.00000000000E+00  0.00000000000E+00  0.17053616804E+01  0.17053636624E+01  0.26000000000E-02 0. -1.
          2   -1    0    0  501    0  0.00000000000E+00 -0.00000000000E+00 -0.95879453012E+02  0.95879453047E+02  0.26000000000E-02 0.  1.
        -13    1    1    2    0    0  0.84303464080E+01 -0.94138092037E+01 -0.39641396260E+02  0.41606994775E+02  0.10570000000E+00 0.  1.
         13    1    1    2    0    0 -0.84303464080E+01  0.94138092037E+01 -0.54532695071E+02  0.55977821934E+02  0.10570000000E+00 0. -1.
<mgrwt>
<rscale>  0 0.25574147E+02</rscale>
<asrwt>0</asrwt>
<pdfrwt beam="2">  1        2 0.14750681E-01 0.25574147E+02</pdfrwt>
<pdfrwt beam="1">  1       -2 0.26236357E-03 0.25574147E+02</pdfrwt>
<totfact> 0.30014098E+06</totfact>
</mgrwt>
</event>
<event>
 4    1  0.3704929E-001  0.2378165E+02  0.7818608E-02  0.1679144E+00
          2   -1    0    0  501    0  0.00000000000E+00  0.00000000000E+00  0.67174384871E+02  0.67174384921E+02  0.26000000000E-02 0.  1.
         -2   -1    0    0    0  501 -0.00000000000E+00 -0.00000000000E+00 -0.21048450474E+01  0.21048466532E+01  0.26000000000E-02 0. -1.
        -13    1    1    2    0    0  0.10625604058E+02  0.31606492188E-01  0.16989391960E+02  0.20038839094E+02  0.10570000000E+00 0. -1.
         13    1    1    2    0    0 -0.10625604058E+02 -0.31606492188E-01  0.48080147864E+02  0.49240392481E+02  0.10570000000E+00 0.  1.
<mgrwt>
<rscale>  0 0.23781651E+02</rscale>
<asrwt>0</asrwt>
<pdfrwt beam="1">  1        2 0.10334522E-01 0.23781651E+02</pdfrwt>
<pdfrwt beam="2">  1       -2 0.32382241E-03 0.23781651E+02</pdfrwt>
<totfact> 0.32930834E+06</totfact>
</mgrwt>
</event>
<event>
 4    1  0.3704929E-001  0.2676153E+02  0.7818608E-02  0.1636918E+00
          2   -1    0    0  501    0  0.00000000000E+00  0.00000000000E+00  0.61798185351E+01  0.61798190820E+01  0.26000000000E-02 0.  1.
         -2   -1    0    0    0  501 -0.00000000000E+00 -0.00000000000E+00 -0.28972515513E+02  0.28972515629E+02  0.26000000000E-02 0. -1.
        -13    1    1    2    0    0 -0.12138258346E+01 -0.13060946655E+02 -0.14864696981E+02  0.19825036935E+02  0.10570000000E+00 0. -1.
         13    1    1    2    0    0  0.12138258346E+01  0.13060946655E+02 -0.79279999967E+01  0.15327297776E+02  0.10570000000E+00 0.  1.
<mgrwt>
<rscale>  0 0.26761532E+02</rscale>
<asrwt>0</asrwt>
<pdfrwt beam="1">  1        2 0.95074138E-03 0.26761532E+02</pdfrwt>
<pdfrwt beam="2">  1       -2 0.44573100E-02 0.26761532E+02</pdfrwt>
<totfact> 0.18939553E+06</totfact>
</mgrwt>
</event>
<event>
 4    1  0.3704929E-001  0.2480587E+02  0.7818608E-02  0.1663806E+00
         -2   -1    0    0    0  501 -0.00000000000E+00  0.00000000000E+00  0.37380033318E+01  0.37380042360E+01  0.26000000000E-02 0.  1.
          2   -1    0    0  501    0  0.00000000000E+00 -0.00000000000E+00 -0.41153735033E+02  0.41153735115E+02  0.26000000000E-02 0. -1.
        -13    1    1    2    0    0  0.40896229751E+01  0.91838252997E+01 -0.31852229671E+02  0.33401248041E+02  0.10570000000E+00 0. -1.
         13    1    1    2    0    0 -0.40896229751E+01 -0.91838252997E+01 -0.55635020305E+01  0.11490491310E+02  0.10570000000E+00 0.  1.
<mgrwt>
<rscale>  0 0.24805872E+02</rscale>
<asrwt>0</asrwt>
<pdfrwt beam="2">  1        2 0.63313436E-02 0.24805872E+02</pdfrwt>
<pdfrwt beam="1">  1       -2 0.57507754E-03 0.24805872E+02</pdfrwt>
<totfact> 0.27601650E+06</totfact>
</mgrwt>
</event>
<event>
 4    1  0.3704929E-001  0.4507420E+02  0.7818608E-02  0.1473879E+00
         -2   -1    0    0    0  501 -0.00000000000E+00  0.00000000000E+00  0.45924127659E+01  0.45924135019E+01  0.26000000000E-02 0.  1.
          2   -1    0    0  501    0  0.00000000000E+00 -0.00000000000E+00 -0.11060000547E+03  0.11060000550E+03  0.26000000000E-02 0. -1.
        -13    1    1    2    0    0  0.22145049797E+02 -0.41136009080E+01 -0.51049449401E+02  0.55797691705E+02  0.10570000000E+00 0.  1.
         13    1    1    2    0    0 -0.22145049797E+02  0.41136009080E+01 -0.54958143300E+02  0.59394727295E+02  0.10570000000E+00 0. -1.
<mgrwt>
<rscale>  0 0.45074202E+02</rscale>
<asrwt>0</asrwt>
<pdfrwt beam="2">  1        2 0.17015383E-01 0.45074202E+02</pdfrwt>
<pdfrwt beam="1">  1       -2 0.70652518E-03 0.45074202E+02</pdfrwt>
<totfact> 0.79790902E+05</totfact>
</mgrwt>
</event>
<event>
 4    1  0.3704929E-001  0.3305764E+02  0.7818608E-02  0.1566558E+00
          2   -1    0    0  501    0  0.00000000000E+00  0.00000000000E+00  0.15253042361E+02  0.15253042582E+02  0.26000000000E-02 0. -1.
         -2   -1    0    0    0  501 -0.00000000000E+00 -0.00000000000E+00 -0.17911309721E+02  0.17911309910E+02  0.26000000000E-02 0.  1.
        -13    1    1    2    0    0 -0.12873157302E+02 -0.10312988494E+02 -0.26984203188E+00  0.16497269405E+02  0.10570000000E+00 0. -1.
         13    1    1    2    0    0  0.12873157302E+02  0.10312988494E+02 -0.23884253289E+01  0.16667083088E+02  0.10570000000E+00 0.  1.
<mgrwt>
<rscale>  0 0.33057645E+02</rscale>
<asrwt>0</asrwt>
<pdfrwt beam="1">  1        2 0.23466219E-02 0.33057645E+02</pdfrwt>
<pdfrwt beam="2">  1       -2 0.27555861E-02 0.33057645E+02</pdfrwt>
<totfact> 0.12342067E+06</totfact>
</mgrwt>
</event>
<event>
 4    1  0.3704929E-001  0.6733544E+02  0.7818608E-02  0.1369396E+00
          2   -1    0    0  501    0  0.00000000000E+00  0.00000000000E+00  0.72587188909E+01  0.72587193565E+01  0.26000000000E-02 0.  1.
         -2   -1    0    0    0  501 -0.00000000000E+00 -0.00000000000E+00 -0.15615914953E+03  0.15615914955E+03  0.26000000000E-02 0. -1.
        -13    1    1    2    0    0 -0.11607696885E+01 -0.32088541262E+02 -0.99018815445E+02  0.10409495113E+03  0.10570000000E+00 0.  1.
         13    1    1    2    0    0  0.11607696885E+01  0.32088541262E+02 -0.49881615194E+02  0.59322917776E+02  0.10570000000E+00 0. -1.
<mgrwt>
<rscale>  0 0.67335441E+02</rscale>
<asrwt>0</asrwt>
<pdfrwt beam="1">  1        2 0.11167261E-02 0.67335441E+02</pdfrwt>
<pdfrwt beam="2">  1       -2 0.24024482E-01 0.67335441E+02</pdfrwt>
<totfact> 0.14786227E+05</totfact>
</mgrwt>
</event>
<event>
 4    1  0.3704929E-001  0.2371854E+02  0.7818608E-02  0.1680121E+00
          2   -1    0    0  501    0  0.00000000000E+00  0.00000000000E+00  0.42612630040E+02  0.42612630119E+02  0.26000000000E-02 0.  1.
         -2   -1    0    0    0  501 -0.00000000000E+00 -0.00000000000E+00 -0.33004817262E+01  0.33004827503E+01  0.26000000000E-02 0. -1.
        -13    1    1    2    0    0 -0.11691310937E+02 -0.92404205136E+00  0.23059059212E+02  0.25870291637E+02  0.10570000000E+00 0. -1.
         13    1    1    2    0    0  0.11691310937E+02  0.92404205136E+00  0.16253089101E+02  0.20042821233E+02  0.10570000000E+00 0.  1.
<mgrwt>
<rscale>  0 0.23718536E+02</rscale>
<asrwt>0</asrwt>
<pdfrwt beam="1">  1        2 0.65557888E-02 0.23718536E+02</pdfrwt>
<pdfrwt beam="2">  1       -2 0.50776654E-03 0.23718536E+02</pdfrwt>
<totfact> 0.30761146E+06</totfact>
</mgrwt>
</event>
<event>
 4    1  0.3704929E-001  0.2733177E+02  0.7818608E-02  0.1629605E+00
         -2   -1    0    0    0  501 -0.00000000000E+00  0.00000000000E+00  0.26696989430E+01  0.26697002090E+01  0.26000000000E-02 0. -1.
          2   -1    0    0  501    0  0.00000000000E+00 -0.00000000000E+00 -0.69954093989E+02  0.69954094037E+02  0.26000000000E-02 0.  1.
        -13    1    1    2    0    0 -0.12694425884E+02 -0.45741699010E+01 -0.27897797045E+02  0.30989832707E+02  0.10570000000E+00 0. -1.
         13    1    1    2    0    0  0.12694425884E+02  0.45741699010E+01 -0.39386598001E+02  0.41633961539E+02  0.10570000000E+00 0.  1.
<mgrwt>
<rscale>  0 0.27331770E+02</rscale>
<asrwt>0</asrwt>
<pdfrwt beam="2">  1        2 0.10762167E-01 0.27331770E+02</pdfrwt>
<pdfrwt beam="1">  1       -2 0.41072307E-03 0.27331770E+02</pdfrwt>
<totfact> 0.24056045E+06</totfact>
</mgrwt>
</event>
<event>
 4    1  0.3704929E-001  0.2288573E+02  0.7818608E-02  0.1693369E+00
          2   -1    0    0  501    0  0.00000000000E+00  0.00000000000E+00  0.44890336355E+01  0.44890343884E+01  0.26000000000E-02 0. -1.
         -2   -1    0    0    0  501 -0.00000000000E+00 -0.00000000000E+00 -0.29168660485E+02  0.29168660601E+02  0.26000000000E-02 0.  1.
        -13    1    1    2    0    0  0.10967613560E+02 -0.98713641163E+00 -0.16911954144E+02  0.20181386249E+02  0.10570000000E+00 0.  1.
         13    1    1    2    0    0 -0.10967613560E+02  0.98713641163E+00 -0.77676727059E+01  0.13476308740E+02  0.10570000000E+00 0. -1.
<mgrwt>
<rscale>  0 0.22885726E+02</rscale>
<asrwt>0</asrwt>
<pdfrwt beam="1">  1        2 0.69062064E-03 0.22885726E+02</pdfrwt>
<pdfrwt beam="2">  1       -2 0.44874862E-02 0.22885726E+02</pdfrwt>
<totfact> 0.26878690E+06</totfact>
</mgrwt>
</event>
<event>
 4    1  0.3704929E-001  0.2714989E+02  0.7818608E-02  0.1631913E+00
          2   -1    0    0  501    0  0.00000000000E+00  0.00000000000E+00  0.12076089280E+02  0.12076089559E+02  0.26000000000E-02 0.  1.
         -2   -1    0    0    0  501 -0.00000000000E+00 -0.00000000000E+00 -0.15259830181E+02  0.15259830402E+02  0.26000000000E-02 0. -1.
        -13    1    1    2    0    0 -0.47698175490E+01 -0.12707386391E+02 -0.17909057299E+01  0.13691141083E+02  0.10570000000E+00 0.  1.
         13    1    1    2    0    0  0.47698175490E+01  0.12707386391E+02 -0.13928351714E+01  0.13644778879E+02  0.10570000000E+00 0. -1.
<mgrwt>
<rscale>  0 0.27149886E+02</rscale>
<asrwt>0</asrwt>
<pdfrwt beam="1">  1        2 0.18578599E-02 0.27149886E+02</pdfrwt>
<pdfrwt beam="2">  1       -2 0.23476662E-02 0.27149886E+02</pdfrwt>
<totfact> 0.19534843E+06</totfact>
</mgrwt>
</event>
<event>
 4    1  0.3704929E-001  0.2879276E+02  0.7818608E-02  0.1611830E+00
          2   -1    0    0  501    0  0.00000000000E+00  0.00000000000E+00  0.25214383698E+02  0.25214383832E+02  0.26000000000E-02 0. -1.
         -2   -1    0    0    0  501 -0.00000000000E+00 -0.00000000000E+00 -0.82197436342E+01  0.82197440454E+01  0.26000000000E-02 0.  1.
        -13    1    1    2    0    0  0.11710261460E+02  0.45299253278E+01  0.31979378734E+00  0.12560409527E+02  0.10570000000E+00 0.  1.
         13    1    1    2    0    0 -0.11710261460E+02 -0.45299253278E+01  0.16674846276E+02  0.20873718350E+02  0.10570000000E+00 0. -1.
<mgrwt>
<rscale>  0 0.28792762E+02</rscale>
<asrwt>0</asrwt>
<pdfrwt beam="1">  1        2 0.38791359E-02 0.28792762E+02</pdfrwt>
<pdfrwt beam="2">  1       -2 0.12645760E-02 0.28792762E+02</pdfrwt>
<totfact> 0.18273553E+06</totfact>
</mgrwt>
</event>
<event>
 4    1  0.3704929E-001  0.4723741E+02  0.7818608E-02  0.1460838E+00
         -2   -1    0    0    0  501 -0.00000000000E+00  0.00000000000E+00  0.51890447469E+02  0.51890447535E+02  0.26000000000E-02 0. -1.
          2   -1    0    0  501    0  0.00000000000E+00 -0.00000000000E+00 -0.10750403014E+02  0.10750403329E+02  0.26000000000E-02 0.  1.
        -13    1    1    2    0    0  0.11019097916E+02  0.20647240193E+02  0.16355027036E+02  0.28552182549E+02  0.10570000000E+00 0.  1.
         13    1    1    2    0    0 -0.11019097916E+02 -0.20647240193E+02  0.24785017419E+02  0.34088668314E+02  0.10570000000E+00 0. -1.
<mgrwt>
<rscale>  0 0.47237410E+02</rscale>
<asrwt>0</asrwt>
<pdfrwt beam="2">  1        2 0.16539082E-02 0.47237410E+02</pdfrwt>
<pdfrwt beam="1">  1       -2 0.79831457E-02 0.47237410E+02</pdfrwt>
<totfact> 0.46420100E+05</totfact>
</mgrwt>
</event>
<event>
 4    1  0.3704929E-001  0.3277731E+03  0.7818608E-02  0.1072126E+00
         -2   -1    0    0    0  501 -0.00000000000E+00  0.00000000000E+00  0.26156491568E+03  0.26156491570E+03  0.26000000000E-02 0.  1.
          2   -1    0    0  501    0  0.00000000000E+00 -0.00000000000E+00 -0.10268505283E+03  0.10268505287E+03  0.26000000000E-02 0. -1.
        -13    1    1    2    0    0  0.16063525508E+03 -0.29386871800E+02  0.64060644667E+02  0.17541679161E+03  0.10570000000E+00 0.  1.
         13    1    1    2    0    0 -0.16063525508E+03  0.29386871800E+02  0.94819218184E+02  0.18883317696E+03  0.10570000000E+00 0. -1.
<mgrwt>
<rscale>  0 0.32777314E+03</rscale>
<asrwt>0</asrwt>
<pdfrwt beam="2">  1        2 0.15797700E-01 0.32777314E+03</pdfrwt>
<pdfrwt beam="1">  1       -2 0.40240757E-01 0.32777314E+03</pdfrwt>
<totfact> 0.21640547E+03</totfact>
</mgrwt>
</event>
<event>
 4    1  0.3704929E-001  0.3732027E+02  0.7818608E-02  0.1528911E+00
         -2   -1    0    0    0  501 -0.00000000000E+00  0.00000000000E+00  0.10618461833E+02  0.10618462151E+02  0.26000000000E-02 0. -1.
          2   -1    0    0  501    0  0.00000000000E+00 -0.00000000000E+00 -0.32792007149E+02  0.32792007252E+02  0.26000000000E-02 0.  1.
        -13    1    1    2    0    0  0.60827678610E+01 -0.85674660262E+01  0.68500130139E+01  0.12543340454E+02  0.10570000000E+00 0. -1.
         13    1    1    2    0    0 -0.60827678610E+01  0.85674660262E+01 -0.29023558330E+02  0.30867128949E+02  0.10570000000E+00 0.  1.
<mgrwt>
<rscale>  0 0.37320273E+02</rscale>
<asrwt>0</asrwt>
<pdfrwt beam="2">  1        2 0.50449242E-02 0.37320273E+02</pdfrwt>
<pdfrwt beam="1">  1       -2 0.16336096E-02 0.37320273E+02</pdfrwt>
<totfact> 0.10029995E+06</totfact>
</mgrwt>
</event>
<event>
 4    1  0.3704929E-001  0.3487137E+02  0.7818608E-02  0.1549746E+00
         -2   -1    0    0    0  501 -0.00000000000E+00  0.00000000000E+00  0.77454820621E+02  0.77454820664E+02  0.26000000000E-02 0.  1.
          2   -1    0    0  501    0  0.00000000000E+00 -0.00000000000E+00 -0.39249074826E+01  0.39249083438E+01  0.26000000000E-02 0. -1.
        -13    1    1    2    0    0  0.55896412793E+01 -0.12077262736E+02  0.63052905791E+02  0.64442101658E+02  0.10570000000E+00 0.  1.
         13    1    1    2    0    0 -0.55896412793E+01  0.12077262736E+02  0.10477007347E+02  0.16937627351E+02  0.10570000000E+00 0. -1.
<mgrwt>
<rscale>  0 0.34871366E+02</rscale>
<asrwt>0</asrwt>
<pdfrwt beam="2">  1        2 0.60383207E-03 0.34871366E+02</pdfrwt>
<pdfrwt beam="1">  1       -2 0.11916125E-01 0.34871366E+02</pdfrwt>
<totfact> 0.88798504E+05</totfact>
</mgrwt>
</event>
<event>
 4    1  0.3704929E-001  0.2599858E+02  0.7818608E-02  0.1647060E+00
         -2   -1    0    0    0  501 -0.00000000000E+00  0.00000000000E+00  0.27100702094E+01  0.27100714566E+01  0.26000000000E-02 0. -1.
          2   -1    0    0  501    0  0.00000000000E+00 -0.00000000000E+00 -0.62353201296E+02  0.62353201351E+02  0.26000000000E-02 0.  1.
        -13    1    1    2    0    0  0.11485144428E+02  0.43383549058E+01 -0.40509782432E+02  0.42329463864E+02  0.10570000000E+00 0.  1.
         13    1    1    2    0    0 -0.11485144428E+02 -0.43383549058E+01 -0.19133348655E+02  0.22733808943E+02  0.10570000000E+00 0. -1.
<mgrwt>
<rscale>  0 0.25998584E+02</rscale>
<asrwt>0</asrwt>
<pdfrwt beam="2">  1        2 0.95927992E-02 0.25998584E+02</pdfrwt>
<pdfrwt beam="1">  1       -2 0.41693403E-03 0.25998584E+02</pdfrwt>
<totfact> 0.26449515E+06</totfact>
</mgrwt>
</event>
<event>
 4    1  0.3704929E-001  0.2823292E+02  0.7818608E-02  0.1618485E+00
         -2   -1    0    0    0  501 -0.00000000000E+00  0.00000000000E+00  0.40049350878E+01  0.40049359318E+01  0.26000000000E-02 0. -1.
          2   -1    0    0  501    0  0.00000000000E+00 -0.00000000000E+00 -0.49757228877E+02  0.49757228945E+02  0.26000000000E-02 0.  1.
        -13    1    1    2    0    0 -0.13751764167E+02  0.31854641620E+01 -0.23012458915E+02  0.26997085721E+02  0.10570000000E+00 0.  1.
         13    1    1    2    0    0  0.13751764167E+02 -0.31854641620E+01 -0.22739834874E+02  0.26765079156E+02  0.10570000000E+00 0. -1.
<mgrwt>
<rscale>  0 0.28232924E+02</rscale>
<asrwt>0</asrwt>
<pdfrwt beam="2">  1        2 0.76549579E-02 0.28232924E+02</pdfrwt>
<pdfrwt beam="1">  1       -2 0.61614396E-03 0.28232924E+02</pdfrwt>
<totfact> 0.20980995E+06</totfact>
</mgrwt>
</event>
<event>
 4    1  0.3704929E-001  0.2138270E+02  0.7818608E-02  0.1719152E+00
         -2   -1    0    0    0  501 -0.00000000000E+00  0.00000000000E+00  0.18578244814E+01  0.18578263007E+01  0.26000000000E-02 0. -1.
          2   -1    0    0  501    0  0.00000000000E+00 -0.00000000000E+00 -0.61526240423E+02  0.61526240478E+02  0.26000000000E-02 0.  1.
        -13    1    1    2    0    0 -0.72589148798E+01  0.78486731557E+01 -0.29780598484E+02  0.31641566556E+02  0.10570000000E+00 0. -1.
         13    1    1    2    0    0  0.72589148798E+01 -0.78486731557E+01 -0.29887817457E+02  0.31742500223E+02  0.10570000000E+00 0.  1.
<mgrwt>
<rscale>  0 0.21382705E+02</rscale>
<asrwt>0</asrwt>
<pdfrwt beam="2">  1        2 0.94655740E-02 0.21382705E+02</pdfrwt>
<pdfrwt beam="1">  1       -2 0.28581934E-03 0.21382705E+02</pdfrwt>
<totfact> 0.41251974E+06</totfact>
</mgrwt>
</event>
<event>
 4    1  0.3704929E-001  0.2189289E+02  0.7818608E-02  0.1710111E+00
         -2   -1    0    0    0  501 -0.00000000000E+00  0.00000000000E+00  0.10561566744E+02  0.10561567064E+02  0.26000000000E-02 0. -1.
          2   -1    0    0  501    0  0.00000000000E+00 -0.00000000000E+00 -0.11345348776E+02  0.11345349074E+02  0.26000000000E-02 0.  1.
        -13    1    1    2    0    0  0.10524889792E+02 -0.11947373574E+01  0.23690051065E+01  0.10854679183E+02  0.10570000000E+00 0. -1.
         13    1    1    2    0    0 -0.10524889792E+02  0.11947373574E+01 -0.31527871389E+01  0.11052236955E+02  0.10570000000E+00 0.  1.
<mgrwt>
<rscale>  0 0.21892891E+02</rscale>
<asrwt>0</asrwt>
<pdfrwt beam="2">  1        2 0.17454383E-02 0.21892891E+02</pdfrwt>
<pdfrwt beam="1">  1       -2 0.16248565E-02 0.21892891E+02</pdfrwt>
<totfact> 0.32347907E+06</totfact>
</mgrwt>
</event>
<event>
 4    1  0.3704929E-001  0.6246470E+02  0.7818608E-02  0.1387770E+00
          2   -1    0    0  501    0  0.00000000000E+00  0.00000000000E+00  0.11386766254E+03  0.11386766257E+03  0.26000000000E-02 0. -1.
         -2   -1    0    0    0  501 -0.00000000000E+00 -0.00000000000E+00 -0.85666092582E+01  0.85666096528E+01  0.26000000000E-02 0.  1.
        -13    1    1    2    0    0 -0.14068816516E+02  0.21755853807E+02  0.86836489807E+02  0.90619180682E+02  0.10570000000E+00 0. -1.
         13    1    1    2    0    0  0.14068816516E+02 -0.21755853807E+02  0.18464563480E+02  0.31815091545E+02  0.10570000000E+00 0.  1.
<mgrwt>
<rscale>  0 0.62464704E+02</rscale>
<asrwt>0</asrwt>
<pdfrwt beam="1">  1        2 0.17518100E-01 0.62464704E+02</pdfrwt>
<pdfrwt beam="2">  1       -2 0.13179401E-02 0.62464704E+02</pdfrwt>
<totfact> 0.35037649E+05</totfact>
</mgrwt>
</event>
<event>
 4    1  0.3704929E-001  0.3854064E+02  0.7818608E-02  0.1519234E+00
          2   -1    0    0  501    0  0.00000000000E+00  0.00000000000E+00  0.48735838511E+02  0.48735838581E+02  0.26000000000E-02 0.  1.
         -2   -1    0    0    0  501 -0.00000000000E+00 -0.00000000000E+00 -0.76195499715E+01  0.76195504151E+01  0.26000000000E-02 0. -1.
        -13    1    1    2    0    0  0.10330890361E+02  0.11126585592E+02  0.32070514854E+01  0.15518522942E+02  0.10570000000E+00 0. -1.
         13    1    1    2    0    0 -0.10330890361E+02 -0.11126585592E+02  0.37909237054E+02  0.40836866054E+02  0.10570000000E+00 0.  1.
<mgrwt>
<rscale>  0 0.38540637E+02</rscale>
<asrwt>0</asrwt>
<pdfrwt beam="1">  1        2 0.74978212E-02 0.38540637E+02</pdfrwt>
<pdfrwt beam="2">  1       -2 0.11722385E-02 0.38540637E+02</pdfrwt>
<totfact> 0.98505121E+05</totfact>
</mgrwt>
</event>
<event>
 4    1  0.3704929E-001  0.2103233E+02  0.7818608E-02  0.1725545E+00
          2   -1    0    0  501    0  0.00000000000E+00  0.00000000000E+00  0.64908774284E+01  0.64908779491E+01  0.26000000000E-02 0. -1.
         -2   -1    0    0    0  501 -0.00000000000E+00 -0.00000000000E+00 -0.17037721056E+02  0.17037721255E+02  0.26000000000E-02 0.  1.
        -13    1    1    2    0    0 -0.36994106608E+01  0.97217424818E+01 -0.35473493922E+01  0.10990576706E+02  0.10570000000E+00 0. -1.
         13    1    1    2    0    0  0.36994106608E+01 -0.97217424818E+01 -0.69994942356E+01  0.12538022498E+02  0.10570000000E+00 0.  1.
<mgrwt>
<rscale>  0 0.21032334E+02</rscale>
<asrwt>0</asrwt>
<pdfrwt beam="1">  1        2 0.99859659E-03 0.21032334E+02</pdfrwt>
<pdfrwt beam="2">  1       -2 0.26211879E-02 0.21032334E+02</pdfrwt>
<totfact> 0.33991364E+06</totfact>
</mgrwt>
</event>
<event>
 4    1  0.3704929E-001  0.2138285E+02  0.7818608E-02  0.1719149E+00
          2   -1    0    0  501    0  0.00000000000E+00  0.00000000000E+00  0.16063232157E+02  0.16063232368E+02  0.26000000000E-02 0. -1.
         -2   -1    0    0    0  501 -0.00000000000E+00 -0.00000000000E+00 -0.71160350964E+01  0.71160355713E+01  0.26000000000E-02 0.  1.
        -13    1    1    2    0    0  0.93343036051E+01 -0.49549305810E+01  0.27207140307E+01  0.10913020580E+02  0.10570000000E+00 0.  1.
         13    1    1    2    0    0 -0.93343036051E+01  0.49549305810E+01  0.62264830301E+01  0.12266247359E+02  0.10570000000E+00 0. -1.
<mgrwt>
<rscale>  0 0.21382847E+02</rscale>
<asrwt>0</asrwt>
<pdfrwt beam="1">  1        2 0.24712665E-02 0.21382847E+02</pdfrwt>
<pdfrwt beam="2">  1       -2 0.10947747E-02 0.21382847E+02</pdfrwt>
<totfact> 0.35129349E+06</totfact>
</mgrwt>
</event>
<event>
 4    1  0.3704929E-001  0.5195142E+02  0.7818608E-02  0.1435092E+00
          2   -1    0    0  501    0  0.00000000000E+00  0.00000000000E+00  0.13659755567E+03  0.13659755570E+03  0.26000000000E-02 0.  1.
         -2   -1    0    0    0  501 -0.00000000000E+00 -0.00000000000E+00 -0.49396018675E+01  0.49396025517E+01  0.26000000000E-02 0. -1.
        -13    1    1    2    0    0 -0.23765224966E+02  0.81629116963E+01  0.83757889363E+02  0.87446064794E+02  0.10570000000E+00 0.  1.
         13    1    1    2    0    0  0.23765224966E+02 -0.81629116963E+01  0.47900064445E+02  0.54091093457E+02  0.10570000000E+00 0. -1.
<mgrwt>
<rscale>  0 0.51951423E+02</rscale>
<asrwt>0</asrwt>
<pdfrwt beam="1">  1        2 0.21015007E-01 0.51951423E+02</pdfrwt>
<pdfrwt beam="2">  1       -2 0.75993885E-03 0.51951423E+02</pdfrwt>
<totfact> 0.59282153E+05</totfact>
</mgrwt>
</event>
<event>
 4    1  0.3704929E-001  0.2421903E+02  0.7818608E-02  0.1672479E+00
         -2   -1    0    0    0  501 -0.00000000000E+00  0.00000000000E+00  0.70198279042E+02  0.70198279090E+02  0.26000000000E-02 0. -1.
          2   -1    0    0  501    0  0.00000000000E+00 -0.00000000000E+00 -0.20889449176E+01  0.20889465356E+01  0.26000000000E-02 0.  1.
        -13    1    1    2    0    0 -0.65345757173E+01  0.10054044484E+02  0.39088811873E+02  0.40886805652E+02  0.10570000000E+00 0. -1.
         13    1    1    2    0    0  0.65345757173E+01 -0.10054044484E+02  0.29020522252E+02  0.31400419974E+02  0.10570000000E+00 0.  1.
<mgrwt>
<rscale>  0 0.24219034E+02</rscale>
<asrwt>0</asrwt>
<pdfrwt beam="2">  1        2 0.32137625E-03 0.24219034E+02</pdfrwt>
<pdfrwt beam="1">  1       -2 0.10799736E-01 0.24219034E+02</pdfrwt>
<totfact> 0.20971822E+06</totfact>
</mgrwt>
</event>
<event>
 4    1  0.3704929E-001  0.2024501E+02  0.7818608E-02  0.1740499E+00
         -2   -1    0    0    0  501 -0.00000000000E+00  0.00000000000E+00  0.12635323334E+02  0.12635323602E+02  0.26000000000E-02 0.  1.
          2   -1    0    0  501    0  0.00000000000E+00 -0.00000000000E+00 -0.81094137207E+01  0.81094141375E+01  0.26000000000E-02 0. -1.
        -13    1    1    2    0    0  0.78417260585E+01  0.63745344522E+01  0.16774108160E+01  0.10244619885E+02  0.10570000000E+00 0. -1.
         13    1    1    2    0    0 -0.78417260585E+01 -0.63745344522E+01  0.28484987976E+01  0.10500117854E+02  0.10570000000E+00 0.  1.
<mgrwt>
<rscale>  0 0.20245006E+02</rscale>
<asrwt>0</asrwt>
<pdfrwt beam="2">  1        2 0.12476022E-02 0.20245006E+02</pdfrwt>
<pdfrwt beam="1">  1       -2 0.19438959E-02 0.20245006E+02</pdfrwt>
<totfact> 0.37788808E+06</totfact>
</mgrwt>
</event>
<event>
 4    1  0.3704929E-001  0.5391958E+02  0.7818608E-02  0.1425278E+00
          2   -1    0    0  501    0  0.00000000000E+00  0.00000000000E+00  0.10538018863E+03  0.10538018867E+03  0.26000000000E-02 0. -1.
         -2   -1    0    0    0  501 -0.00000000000E+00 -0.00000000000E+00 -0.68972187241E+01  0.68972192142E+01  0.26000000000E-02 0.  1.
        -13    1    1    2    0    0 -0.15825563629E+02 -0.20999695763E+02  0.61627897787E+02  0.67003318160E+02  0.10570000000E+00 0. -1.
         13    1    1    2    0    0  0.15825563629E+02  0.20999695763E+02  0.36855072122E+02  0.45274089720E+02  0.10570000000E+00 0.  1.
<mgrwt>
<rscale>  0 0.53919579E+02</rscale>
<asrwt>0</asrwt>
<pdfrwt beam="1">  1        2 0.16212337E-01 0.53919579E+02</pdfrwt>
<pdfrwt beam="2">  1       -2 0.10611106E-02 0.53919579E+02</pdfrwt>
<totfact> 0.50104324E+05</totfact>
</mgrwt>
</event>
<event>
 4    1  0.3704929E-001  0.2329161E+02  0.7818608E-02  0.1686826E+00
          2   -1    0    0  501    0  0.00000000000E+00  0.00000000000E+00  0.20143490046E+02  0.20143490213E+02  0.26000000000E-02 0.  1.
         -2   -1    0    0    0  501 -0.00000000000E+00 -0.00000000000E+00 -0.67329356984E+01  0.67329362004E+01  0.26000000000E-02 0. -1.
        -13    1    1    2    0    0  0.51963051558E+01  0.10319359116E+02  0.83865441302E+01  0.14277116473E+02  0.10570000000E+00 0.  1.
         13    1    1    2    0    0 -0.51963051558E+01 -0.10319359116E+02  0.50240102169E+01  0.12599309941E+02  0.10570000000E+00 0. -1.
<mgrwt>
<rscale>  0 0.23291615E+02</rscale>
<asrwt>0</asrwt>
<pdfrwt beam="1">  1        2 0.30989985E-02 0.23291615E+02</pdfrwt>
<pdfrwt beam="2">  1       -2 0.10358363E-02 0.23291615E+02</pdfrwt>
<totfact> 0.29429858E+06</totfact>
</mgrwt>
</event>
<event>
 4    1  0.3704929E-001  0.3080359E+02  0.7818608E-02  0.1589372E+00
         -2   -1    0    0    0  501 -0.00000000000E+00  0.00000000000E+00  0.31581234430E+01  0.31581245133E+01  0.26000000000E-02 0. -1.
          2   -1    0    0  501    0  0.00000000000E+00 -0.00000000000E+00 -0.75112709560E+02  0.75112709605E+02  0.26000000000E-02 0.  1.
        -13    1    1    2    0    0 -0.41942902361E+01  0.14816923263E+02 -0.35301212469E+02  0.38513894374E+02  0.10570000000E+00 0.  1.
         13    1    1    2    0    0  0.41942902361E+01 -0.14816923263E+02 -0.36653373648E+02  0.39756939745E+02  0.10570000000E+00 0. -1.
<mgrwt>
<rscale>  0 0.30803588E+02</rscale>
<asrwt>0</asrwt>
<pdfrwt beam="2">  1        2 0.11555800E-01 0.30803588E+02</pdfrwt>
<pdfrwt beam="1">  1       -2 0.48586529E-03 0.30803588E+02</pdfrwt>
<totfact> 0.18408029E+06</totfact>
</mgrwt>
</event>
<event>
 4    1  0.3704929E-001  0.3122046E+02  0.7818608E-02  0.1584977E+00
          2   -1    0    0  501    0  0.00000000000E+00  0.00000000000E+00  0.69409027408E+01  0.69409032278E+01  0.26000000000E-02 0. -1.
         -2   -1    0    0    0  501 -0.00000000000E+00 -0.00000000000E+00 -0.35107725448E+02  0.35107725545E+02  0.26000000000E-02 0.  1.
        -13    1    1    2    0    0 -0.12475815188E+02  0.81904557532E+01 -0.20246331023E+02  0.25152626551E+02  0.10570000000E+00 0. -1.
         13    1    1    2    0    0  0.12475815188E+02 -0.81904557532E+01 -0.79204916843E+01  0.16896002221E+02  0.10570000000E+00 0.  1.
<mgrwt>
<rscale>  0 0.31220463E+02</rscale>
<asrwt>0</asrwt>
<pdfrwt beam="1">  1        2 0.10678313E-02 0.31220463E+02</pdfrwt>
<pdfrwt beam="2">  1       -2 0.54011885E-02 0.31220463E+02</pdfrwt>
<totfact> 0.13027094E+06</totfact>
</mgrwt>
</event>
<event>
 4    1  0.3704929E-001  0.2421873E+02  0.7818608E-02  0.1672484E+00
         -2   -1    0    0    0  501 -0.00000000000E+00  0.00000000000E+00  0.11706666670E+02  0.11706666959E+02  0.26000000000E-02 0.  1.
          2   -1    0    0  501    0  0.00000000000E+00 -0.00000000000E+00 -0.12525919142E+02  0.12525919411E+02  0.26000000000E-02 0. -1.
        -13    1    1    2    0    0 -0.10996495986E+02 -0.32247875870E+01 -0.43238217942E+01  0.12248623855E+02  0.10570000000E+00 0. -1.
         13    1    1    2    0    0  0.10996495986E+02  0.32247875870E+01  0.35045693231E+01  0.11983962516E+02  0.10570000000E+00 0.  1.
<mgrwt>
<rscale>  0 0.24218734E+02</rscale>
<asrwt>0</asrwt>
<pdfrwt beam="2">  1        2 0.19270645E-02 0.24218734E+02</pdfrwt>
<pdfrwt beam="1">  1       -2 0.18010257E-02 0.24218734E+02</pdfrwt>
<totfact> 0.25751477E+06</totfact>
</mgrwt>
</event>
<event>
 4    1  0.3704929E-001  0.5384156E+02  0.7818608E-02  0.1425658E+00
         -2   -1    0    0    0  501 -0.00000000000E+00  0.00000000000E+00  0.11628570695E+02  0.11628570985E+02  0.26000000000E-02 0.  1.
          2   -1    0    0  501    0  0.00000000000E+00 -0.00000000000E+00 -0.62323091231E+02  0.62323091285E+02  0.26000000000E-02 0. -1.
        -13    1    1    2    0    0  0.11746318090E+02  0.94274059334E+00 -0.58592115536E+02  0.59765474348E+02  0.10570000000E+00 0. -1.
         13    1    1    2    0    0 -0.11746318090E+02 -0.94274059334E+00  0.78975950002E+01  0.14186187923E+02  0.10570000000E+00 0.  1.
<mgrwt>
<rscale>  0 0.53841563E+02</rscale>
<asrwt>0</asrwt>
<pdfrwt beam="2">  1        2 0.95881677E-02 0.53841563E+02</pdfrwt>
<pdfrwt beam="1">  1       -2 0.17890109E-02 0.53841563E+02</pdfrwt>
<totfact> 0.44307980E+05</totfact>
</mgrwt>
</event>
<event>
 4    1  0.3704929E-001  0.4233349E+02  0.7818608E-02  0.1491709E+00
          2   -1    0    0  501    0  0.00000000000E+00  0.00000000000E+00  0.53107628438E+02  0.53107628502E+02  0.26000000000E-02 0. -1.
         -2   -1    0    0    0  501 -0.00000000000E+00 -0.00000000000E+00 -0.84362857059E+01  0.84362861066E+01  0.26000000000E-02 0.  1.
        -13    1    1    2    0    0  0.17441150090E+02  0.99735123587E+01  0.32017865736E+02  0.37799729682E+02  0.10570000000E+00 0. -1.
         13    1    1    2    0    0 -0.17441150090E+02 -0.99735123587E+01  0.12653476996E+02  0.23744184926E+02  0.10570000000E+00 0.  1.
<mgrwt>
<rscale>  0 0.42333492E+02</rscale>
<asrwt>0</asrwt>
<pdfrwt beam="1">  1        2 0.81704043E-02 0.42333492E+02</pdfrwt>
<pdfrwt beam="2">  1       -2 0.12978902E-02 0.42333492E+02</pdfrwt>
<totfact> 0.79177528E+05</totfact>
</mgrwt>
</event>
<event>
 4    1  0.3704929E-001  0.3094091E+02  0.7818608E-02  0.1587915E+00
         -2   -1    0    0    0  501 -0.00000000000E+00  0.00000000000E+00  0.10721798993E+02  0.10721799308E+02  0.26000000000E-02 0.  1.
          2   -1    0    0  501    0  0.00000000000E+00 -0.00000000000E+00 -0.22322282212E+02  0.22322282363E+02  0.26000000000E-02 0. -1.
        -13    1    1    2    0    0 -0.12819495727E+02  0.23359483316E+00 -0.15044836909E+02  0.19767456269E+02  0.10570000000E+00 0.  1.
         13    1    1    2    0    0  0.12819495727E+02 -0.23359483316E+00  0.34443536893E+01  0.13276625402E+02  0.10570000000E+00 0. -1.
<mgrwt>
<rscale>  0 0.30940913E+02</rscale>
<asrwt>0</asrwt>
<pdfrwt beam="2">  1        2 0.34341973E-02 0.30940913E+02</pdfrwt>
<pdfrwt beam="1">  1       -2 0.16495076E-02 0.30940913E+02</pdfrwt>
<totfact> 0.15149029E+06</totfact>
</mgrwt>
</event>
<event>
 4    1  0.3704929E-001  0.2864719E+02  0.7818608E-02  0.1613542E+00
         -2   -1    0    0    0  501 -0.00000000000E+00  0.00000000000E+00  0.16565577376E+01  0.16565597780E+01  0.26000000000E-02 0. -1.
          2   -1    0    0  501    0  0.00000000000E+00 -0.00000000000E+00 -0.12385035076E+03  0.12385035079E+03  0.26000000000E-02 0.  1.
        -13    1    1    2    0    0  0.11597685772E+02  0.70766488253E+01 -0.80966607740E+02  0.82098648072E+02  0.10570000000E+00 0. -1.
         13    1    1    2    0    0 -0.11597685772E+02 -0.70766488253E+01 -0.41227185280E+02  0.43408262491E+02  0.10570000000E+00 0.  1.
<mgrwt>
<rscale>  0 0.28647191E+02</rscale>
<asrwt>0</asrwt>
<pdfrwt beam="2">  1        2 0.19053893E-01 0.28647191E+02</pdfrwt>
<pdfrwt beam="1">  1       -2 0.25485529E-03 0.28647191E+02</pdfrwt>
<totfact> 0.24575261E+06</totfact>
</mgrwt>
</event>
<event>
 4    1  0.3704929E-001  0.2467658E+02  0.7818608E-02  0.1665691E+00
          2   -1    0    0  501    0  0.00000000000E+00  0.00000000000E+00  0.79887749467E+01  0.79887753697E+01  0.26000000000E-02 0. -1.
         -2   -1    0    0    0  501 -0.00000000000E+00 -0.00000000000E+00 -0.19055919202E+02  0.19055919380E+02  0.26000000000E-02 0.  1.
        -13    1    1    2    0    0  0.17881224635E+00  0.12335527586E+02 -0.53600392200E+01  0.13451334788E+02  0.10570000000E+00 0.  1.
         13    1    1    2    0    0 -0.17881224635E+00 -0.12335527586E+02 -0.57071050356E+01  0.13593359961E+02  0.10570000000E+00 0. -1.
<mgrwt>
<rscale>  0 0.24676585E+02</rscale>
<asrwt>0</asrwt>
<pdfrwt beam="1">  1        2 0.12290423E-02 0.24676585E+02</pdfrwt>
<pdfrwt beam="2">  1       -2 0.29316799E-02 0.24676585E+02</pdfrwt>
<totfact> 0.23680921E+06</totfact>
</mgrwt>
</event>
<event>
 4    1  0.3704929E-001  0.2479307E+02  0.7818608E-02  0.1663992E+00
         -2   -1    0    0    0  501 -0.00000000000E+00  0.00000000000E+00  0.39317559032E+01  0.39317567629E+01  0.26000000000E-02 0.  1.
          2   -1    0    0  501    0  0.00000000000E+00 -0.00000000000E+00 -0.39085350170E+02  0.39085350256E+02  0.26000000000E-02 0. -1.
        -13    1    1    2    0    0 -0.34981475879E+01 -0.10576926722E+02 -0.27009206115E+02  0.29216721289E+02  0.10570000000E+00 0. -1.
         13    1    1    2    0    0  0.34981475879E+01  0.10576926722E+02 -0.81443881512E+01  0.13800385730E+02  0.10570000000E+00 0.  1.
<mgrwt>
<rscale>  0 0.24793070E+02</rscale>
<asrwt>0</asrwt>
<pdfrwt beam="2">  1        2 0.60131306E-02 0.24793070E+02</pdfrwt>
<pdfrwt beam="1">  1       -2 0.60488563E-03 0.24793070E+02</pdfrwt>
<totfact> 0.27439102E+06</totfact>
</mgrwt>
</event>
<event>
 4    1  0.3704929E-001  0.4062327E+02  0.7818608E-02  0.1503674E+00
         -2   -1    0    0    0  501 -0.00000000000E+00  0.00000000000E+00  0.69666044197E+02  0.69666044245E+02  0.26000000000E-02 0.  1.
          2   -1    0    0  501    0  0.00000000000E+00 -0.00000000000E+00 -0.59220033638E+01  0.59220039346E+01  0.26000000000E-02 0. -1.
        -13    1    1    2    0    0  0.15159886369E+02  0.91372796233E+01  0.13335841530E+02  0.22162307538E+02  0.10570000000E+00 0. -1.
         13    1    1    2    0    0 -0.15159886369E+02 -0.91372796233E+01  0.50408199303E+02  0.53425740642E+02  0.10570000000E+00 0.  1.
<mgrwt>
<rscale>  0 0.40623273E+02</rscale>
<asrwt>0</asrwt>
<pdfrwt beam="2">  1        2 0.91107744E-03 0.40623273E+02</pdfrwt>
<pdfrwt beam="1">  1       -2 0.10717854E-01 0.40623273E+02</pdfrwt>
<totfact> 0.63128499E+05</totfact>
</mgrwt>
</event>
<event>
 4    1  0.3704929E-001  0.1730047E+03  0.7818608E-02  0.1174750E+00
          2   -1    0    0  501    0  0.00000000000E+00  0.00000000000E+00  0.36436741012E+03  0.36436741013E+03  0.26000000000E-02 0. -1.
         -2   -1    0    0    0  501 -0.00000000000E+00 -0.00000000000E+00 -0.20536021522E+02  0.20536021686E+02  0.26000000000E-02 0.  1.
        -13    1    1    2    0    0  0.28602227628E+02  0.75868594338E+02  0.10485626196E+03  0.13254802102E+03  0.10570000000E+00 0.  1.
         13    1    1    2    0    0 -0.28602227628E+02 -0.75868594338E+02  0.23897512664E+03  0.25235541080E+03  0.10570000000E+00 0. -1.
<mgrwt>
<rscale>  0 0.17300471E+03</rscale>
<asrwt>0</asrwt>
<pdfrwt beam="1">  1        2 0.56056518E-01 0.17300471E+03</pdfrwt>
<pdfrwt beam="2">  1       -2 0.31593883E-02 0.17300471E+03</pdfrwt>
<totfact> 0.32982958E+04</totfact>
</mgrwt>
</event>
<event>
 4    1  0.3704929E-001  0.2331204E+02  0.7818608E-02  0.1686501E+00
         -2   -1    0    0    0  501 -0.00000000000E+00  0.00000000000E+00  0.89591536895E+01  0.89591540668E+01  0.26000000000E-02 0. -1.
          2   -1    0    0  501    0  0.00000000000E+00 -0.00000000000E+00 -0.15164688101E+02  0.15164688324E+02  0.26000000000E-02 0.  1.
        -13    1    1    2    0    0  0.10591502007E+02  0.45831067472E+01 -0.14128578571E+01  0.11627214715E+02  0.10570000000E+00 0. -1.
         13    1    1    2    0    0 -0.10591502007E+02 -0.45831067472E+01 -0.47926765545E+01  0.12496627676E+02  0.10570000000E+00 0.  1.
<mgrwt>
<rscale>  0 0.23312038E+02</rscale>
<asrwt>0</asrwt>
<pdfrwt beam="2">  1        2 0.23330290E-02 0.23312038E+02</pdfrwt>
<pdfrwt beam="1">  1       -2 0.13783314E-02 0.23312038E+02</pdfrwt>
<totfact> 0.28627901E+06</totfact>
</mgrwt>
</event>
<event>
 4    1  0.3704929E-001  0.2232310E+02  0.7818608E-02  0.1702723E+00
         -2   -1    0    0    0  501 -0.00000000000E+00  0.00000000000E+00  0.15435648016E+01  0.15435669913E+01  0.26000000000E-02 0. -1.
          2   -1    0    0  501    0  0.00000000000E+00 -0.00000000000E+00 -0.80709375202E+02  0.80709375244E+02  0.26000000000E-02 0.  1.
        -13    1    1    2    0    0  0.24015908556E+01 -0.10748331037E+02 -0.46250819346E+02  0.47544123941E+02  0.10570000000E+00 0. -1.
         13    1    1    2    0    0 -0.24015908556E+01  0.10748331037E+02 -0.32914991055E+02  0.34708818294E+02  0.10570000000E+00 0.  1.
<mgrwt>
<rscale>  0 0.22323104E+02</rscale>
<asrwt>0</asrwt>
<pdfrwt beam="2">  1        2 0.12416824E-01 0.22323104E+02</pdfrwt>
<pdfrwt beam="1">  1       -2 0.23747174E-03 0.22323104E+02</pdfrwt>
<totfact> 0.39414354E+06</totfact>
</mgrwt>
</event>
<event>
 4    1  0.3704929E-001  0.2444170E+02  0.7818608E-02  0.1669153E+00
         -2   -1    0    0    0  501 -0.00000000000E+00  0.00000000000E+00  0.50928527166E+01  0.50928533803E+01  0.26000000000E-02 0. -1.
          2   -1    0    0  501    0  0.00000000000E+00 -0.00000000000E+00 -0.29325234959E+02  0.29325235074E+02  0.26000000000E-02 0.  1.
        -13    1    1    2    0    0 -0.60480801444E+01  0.10513482890E+02 -0.14216844246E+02  0.18688029022E+02  0.10570000000E+00 0. -1.
         13    1    1    2    0    0  0.60480801444E+01 -0.10513482890E+02 -0.10015537996E+02  0.15730059433E+02  0.10570000000E+00 0.  1.
<mgrwt>
<rscale>  0 0.24441695E+02</rscale>
<asrwt>0</asrwt>
<pdfrwt beam="2">  1        2 0.45115746E-02 0.24441695E+02</pdfrwt>
<pdfrwt beam="1">  1       -2 0.78351588E-03 0.24441695E+02</pdfrwt>
<totfact> 0.27365749E+06</totfact>
</mgrwt>
</event>
<event>
 4    1  0.3704929E-001  0.2552314E+02  0.7818608E-02  0.1653600E+00
          2   -1    0    0  501    0  0.00000000000E+00  0.00000000000E+00  0.27516575980E+02  0.27516576102E+02  0.26000000000E-02 0.  1.
         -2   -1    0    0    0  501 -0.00000000000E+00 -0.00000000000E+00 -0.59185281565E+01  0.59185287275E+01  0.26000000000E-02 0. -1.
        -13    1    1    2    0    0 -0.52233214015E+01 -0.11563532754E+02  0.12579886818E+02  0.17867934997E+02  0.10570000000E+00 0.  1.
         13    1    1    2    0    0  0.52233214015E+01  0.11563532754E+02  0.90181610052E+01  0.15567169833E+02  0.10570000000E+00 0. -1.
<mgrwt>
<rscale>  0 0.25523138E+02</rscale>
<asrwt>0</asrwt>
<pdfrwt beam="1">  1        2 0.42333194E-02 0.25523138E+02</pdfrwt>
<pdfrwt beam="2">  1       -2 0.91054285E-03 0.25523138E+02</pdfrwt>
<totfact> 0.24555045E+06</totfact>
</mgrwt>
</event>
<event>
 4    1  0.3704929E-001  0.2094837E+02  0.7818608E-02  0.1727101E+00
         -2   -1    0    0    0  501 -0.00000000000E+00  0.00000000000E+00  0.56204136289E+01  0.56204142303E+01  0.26000000000E-02 0.  1.
          2   -1    0    0  501    0  0.00000000000E+00 -0.00000000000E+00 -0.19519657652E+02  0.19519657825E+02  0.26000000000E-02 0. -1.
        -13    1    1    2    0    0  0.49939612114E+01 -0.87597622213E+01 -0.10349160505E+02  0.14449545958E+02  0.10570000000E+00 0. -1.
         13    1    1    2    0    0 -0.49939612114E+01  0.87597622213E+01 -0.35500835181E+01  0.10690526097E+02  0.10570000000E+00 0.  1.
<mgrwt>
<rscale>  0 0.20948371E+02</rscale>
<asrwt>0</asrwt>
<pdfrwt beam="2">  1        2 0.30030243E-02 0.20948371E+02</pdfrwt>
<pdfrwt beam="1">  1       -2 0.86467909E-03 0.20948371E+02</pdfrwt>
<totfact> 0.37441504E+06</totfact>
</mgrwt>
</event>
<event>
 4    1  0.3704929E-001  0.3083181E+02  0.7818608E-02  0.1589072E+00
         -2   -1    0    0    0  501 -0.00000000000E+00  0.00000000000E+00  0.18912637980E+02  0.18912638158E+02  0.26000000000E-02 0.  1.
          2   -1    0    0  501    0  0.00000000000E+00 -0.00000000000E+00 -0.12565675128E+02  0.12565675397E+02  0.26000000000E-02 0. -1.
        -13    1    1    2    0    0  0.17679084940E+01  0.10500454193E+02 -0.82071781332E+01  0.13444477829E+02  0.10570000000E+00 0. -1.
         13    1    1    2    0    0 -0.17679084940E+01 -0.10500454193E+02  0.14554140985E+02  0.18033835726E+02  0.10570000000E+00 0.  1.
<mgrwt>
<rscale>  0 0.30831806E+02</rscale>
<asrwt>0</asrwt>
<pdfrwt beam="2">  1        2 0.19331808E-02 0.30831806E+02</pdfrwt>
<pdfrwt beam="1">  1       -2 0.29096366E-02 0.30831806E+02</pdfrwt>
<totfact> 0.14371029E+06</totfact>
</mgrwt>
</event>
<event>
 4    1  0.3704929E-001  0.3940035E+02  0.7818608E-02  0.1512671E+00
          2   -1    0    0  501    0  0.00000000000E+00  0.00000000000E+00  0.49341490405E+02  0.49341490474E+02  0.26000000000E-02 0. -1.
         -2   -1    0    0    0  501 -0.00000000000E+00 -0.00000000000E+00 -0.78655291223E+01  0.78655295521E+01  0.26000000000E-02 0.  1.
        -13    1    1    2    0    0 -0.14691955980E+02 -0.12945636272E+02  0.23866469726E+02  0.30871712274E+02  0.10570000000E+00 0. -1.
         13    1    1    2    0    0  0.14691955980E+02  0.12945636272E+02  0.17609491557E+02  0.26335307752E+02  0.10570000000E+00 0.  1.
<mgrwt>
<rscale>  0 0.39400352E+02</rscale>
<asrwt>0</asrwt>
<pdfrwt beam="1">  1        2 0.75909985E-02 0.39400352E+02</pdfrwt>
<pdfrwt beam="2">  1       -2 0.12100814E-02 0.39400352E+02</pdfrwt>
<totfact> 0.93460348E+05</totfact>
</mgrwt>
</event>
<event>
 4    1  0.3704929E-001  0.2760679E+02  0.7818608E-02  0.1626156E+00
          2   -1    0    0  501    0  0.00000000000E+00  0.00000000000E+00  0.44498742417E+02  0.44498742493E+02  0.26000000000E-02 0.  1.
         -2   -1    0    0    0  501 -0.00000000000E+00 -0.00000000000E+00 -0.42817772846E+01  0.42817780740E+01  0.26000000000E-02 0. -1.
        -13    1    1    2    0    0 -0.12480010992E+02  0.60792064685E+00  0.30472408855E+02  0.32934770620E+02  0.10570000000E+00 0.  1.
         13    1    1    2    0    0  0.12480010992E+02 -0.60792064685E+00  0.97445562779E+01  0.15845749948E+02  0.10570000000E+00 0. -1.
<mgrwt>
<rscale>  0 0.27606791E+02</rscale>
<asrwt>0</asrwt>
<pdfrwt beam="1">  1        2 0.68459604E-02 0.27606791E+02</pdfrwt>
<pdfrwt beam="2">  1       -2 0.65873503E-03 0.27606791E+02</pdfrwt>
<totfact> 0.21738824E+06</totfact>
</mgrwt>
</event>
<event>
 4    1  0.3704929E-001  0.4364765E+02  0.7818608E-02  0.1482965E+00
         -2   -1    0    0    0  501 -0.00000000000E+00  0.00000000000E+00  0.10470573478E+03  0.10470573481E+03  0.26000000000E-02 0. -1.
          2   -1    0    0  501    0  0.00000000000E+00 -0.00000000000E+00 -0.45487415514E+01  0.45487422945E+01  0.26000000000E-02 0.  1.
        -13    1    1    2    0    0  0.15923954955E+02 -0.20540109167E+01  0.87076741198E+02  0.88544685512E+02  0.10570000000E+00 0. -1.
         13    1    1    2    0    0 -0.15923954955E+02  0.20540109167E+01  0.13080252032E+02  0.20709791596E+02  0.10570000000E+00 0.  1.
<mgrwt>
<rscale>  0 0.43647651E+02</rscale>
<asrwt>0</asrwt>
<pdfrwt beam="2">  1        2 0.69980644E-03 0.43647651E+02</pdfrwt>
<pdfrwt beam="1">  1       -2 0.16108575E-01 0.43647651E+02</pdfrwt>
<totfact> 0.48521667E+05</totfact>
</mgrwt>
</event>
<event>
 4    1  0.3704929E-001  0.9199448E+02  0.7818608E-02  0.1298092E+00
         -2   -1    0    0    0  501 -0.00000000000E+00  0.00000000000E+00  0.11200913495E+02  0.11200913797E+02  0.26000000000E-02 0.  1.
          2   -1    0    0  501    0  0.00000000000E+00 -0.00000000000E+00 -0.18889050838E+03  0.18889050840E+03  0.26000000000E-02 0. -1.
        -13    1    1    2    0    0  0.46974226609E+01  0.35744774680E+02 -0.15097554060E+03  0.15522042303E+03  0.10570000000E+00 0. -1.
         13    1    1    2    0    0 -0.46974226609E+01 -0.35744774680E+02 -0.26714054293E+02  0.44870999163E+02  0.10570000000E+00 0.  1.
<mgrwt>
<rscale>  0 0.91994484E+02</rscale>
<asrwt>0</asrwt>
<pdfrwt beam="2">  1        2 0.29060076E-01 0.91994484E+02</pdfrwt>
<pdfrwt beam="1">  1       -2 0.17232176E-02 0.91994484E+02</pdfrwt>
<totfact> 0.14792123E+05</totfact>
</mgrwt>
</event>
<event>
 4    1  0.3704929E-001  0.1183469E+03  0.7818608E-02  0.1245849E+00
          2   -1    0    0  501    0  0.00000000000E+00  0.00000000000E+00  0.56385671823E+02  0.56385671883E+02  0.26000000000E-02 0. -1.
         -2   -1    0    0    0  501 -0.00000000000E+00 -0.00000000000E+00 -0.62099020249E+02  0.62099020304E+02  0.26000000000E-02 0.  1.
        -13    1    1    2    0    0 -0.21341035022E+02  0.26762901262E+02 -0.51180798254E+02  0.61572542112E+02  0.10570000000E+00 0.  1.
         13    1    1    2    0    0  0.21341035022E+02 -0.26762901262E+02  0.45467449827E+02  0.56912150074E+02  0.10570000000E+00 0. -1.
<mgrwt>
<rscale>  0 0.11834686E+03</rscale>
<asrwt>0</asrwt>
<pdfrwt beam="1">  1        2 0.86747187E-02 0.11834686E+03</pdfrwt>
<pdfrwt beam="2">  1       -2 0.95536955E-02 0.11834686E+03</pdfrwt>
<totfact> 0.48866584E+04</totfact>
</mgrwt>
</event>
<event>
 4    1  0.3704929E-001  0.2516786E+02  0.7818608E-02  0.1658603E+00
          2   -1    0    0  501    0  0.00000000000E+00  0.00000000000E+00  0.56480299416E+02  0.56480299476E+02  0.26000000000E-02 0. -1.
         -2   -1    0    0    0  501 -0.00000000000E+00 -0.00000000000E+00 -0.28037244453E+01  0.28037256508E+01  0.26000000000E-02 0.  1.
        -13    1    1    2    0    0 -0.96957701556E+01  0.72208237241E+01  0.35064439824E+02  0.37090084481E+02  0.10570000000E+00 0.  1.
         13    1    1    2    0    0  0.96957701556E+01 -0.72208237241E+01  0.18612135146E+02  0.22193940645E+02  0.10570000000E+00 0. -1.
<mgrwt>
<rscale>  0 0.25167855E+02</rscale>
<asrwt>0</asrwt>
<pdfrwt beam="1">  1        2 0.86892756E-02 0.25167855E+02</pdfrwt>
<pdfrwt beam="2">  1       -2 0.43134239E-03 0.25167855E+02</pdfrwt>
<totfact> 0.28027232E+06</totfact>
</mgrwt>
</event>
<event>
 4    1  0.3704929E-001  0.3105813E+02  0.7818608E-02  0.1586679E+00
          2   -1    0    0  501    0  0.00000000000E+00  0.00000000000E+00  0.88418418929E+02  0.88418418967E+02  0.26000000000E-02 0.  1.
         -2   -1    0    0    0  501 -0.00000000000E+00 -0.00000000000E+00 -0.27273934105E+01  0.27273946498E+01  0.26000000000E-02 0. -1.
        -13    1    1    2    0    0 -0.80055621139E+01  0.98874055320E+01  0.68977536701E+02  0.70141011931E+02  0.10570000000E+00 0. -1.
         13    1    1    2    0    0  0.80055621139E+01 -0.98874055320E+01  0.16713488817E+02  0.21004801685E+02  0.10570000000E+00 0.  1.
<mgrwt>
<rscale>  0 0.31058131E+02</rscale>
<asrwt>0</asrwt>
<pdfrwt beam="1">  1        2 0.13602831E-01 0.31058131E+02</pdfrwt>
<pdfrwt beam="2">  1       -2 0.41959917E-03 0.31058131E+02</pdfrwt>
<totfact> 0.18702095E+06</totfact>
</mgrwt>
</event>
<event>
 4    1  0.3704929E-001  0.3252859E+02  0.7818608E-02  0.1571710E+00
         -2   -1    0    0    0  501 -0.00000000000E+00  0.00000000000E+00  0.19381064554E+01  0.19381081994E+01  0.26000000000E-02 0.  1.
          2   -1    0    0  501    0  0.00000000000E+00 -0.00000000000E+00 -0.13648746511E+03  0.13648746513E+03  0.26000000000E-02 0. -1.
        -13    1    1    2    0    0 -0.84661860899E+01 -0.13771032719E+02 -0.74885417811E+02  0.76610408055E+02  0.10570000000E+00 0. -1.
         13    1    1    2    0    0  0.84661860899E+01  0.13771032719E+02 -0.59663940842E+02  0.61815165278E+02  0.10570000000E+00 0.  1.
<mgrwt>
<rscale>  0 0.32528594E+02</rscale>
<asrwt>0</asrwt>
<pdfrwt beam="2">  1        2 0.20998064E-01 0.32528594E+02</pdfrwt>
<pdfrwt beam="1">  1       -2 0.29817047E-03 0.32528594E+02</pdfrwt>
<totfact> 0.18704169E+06</totfact>
</mgrwt>
</event>
<event>
 4    1  0.3704929E-001  0.2054527E+02  0.7818608E-02  0.1734697E+00
         -2   -1    0    0    0  501 -0.00000000000E+00  0.00000000000E+00  0.16947637360E+02  0.16947637559E+02  0.26000000000E-02 0.  1.
          2   -1    0    0  501    0  0.00000000000E+00 -0.00000000000E+00 -0.62266508138E+01  0.62266513566E+01  0.26000000000E-02 0. -1.
        -13    1    1    2    0    0  0.60379045304E+01 -0.83030988116E+01  0.49728366282E+01  0.11407805118E+02  0.10570000000E+00 0.  1.
         13    1    1    2    0    0 -0.60379045304E+01  0.83030988116E+01  0.57481499176E+01  0.11766483798E+02  0.10570000000E+00 0. -1.
<mgrwt>
<rscale>  0 0.20545270E+02</rscale>
<asrwt>0</asrwt>
<pdfrwt beam="2">  1        2 0.95794636E-03 0.20545270E+02</pdfrwt>
<pdfrwt beam="1">  1       -2 0.26073288E-02 0.20545270E+02</pdfrwt>
<totfact> 0.35786972E+06</totfact>
</mgrwt>
</event>
<event>
 4    1  0.3704929E-001  0.5746434E+02  0.7818608E-02  0.1408792E+00
          2   -1    0    0  501    0  0.00000000000E+00  0.00000000000E+00  0.20381926555E+03  0.20381926557E+03  0.26000000000E-02 0. -1.
         -2   -1    0    0    0  501 -0.00000000000E+00 -0.00000000000E+00 -0.40503406362E+01  0.40503414707E+01  0.26000000000E-02 0.  1.
        -13    1    1    2    0    0 -0.28245542337E+02 -0.51913933476E+01  0.10304866192E+03  0.10697569408E+03  0.10570000000E+00 0. -1.
         13    1    1    2    0    0  0.28245542337E+02  0.51913933476E+01  0.96720262993E+02  0.10089391296E+03  0.10570000000E+00 0.  1.
<mgrwt>
<rscale>  0 0.57464338E+02</rscale>
<asrwt>0</asrwt>
<pdfrwt beam="1">  1        2 0.31356806E-01 0.57464338E+02</pdfrwt>
<pdfrwt beam="2">  1       -2 0.62312947E-03 0.57464338E+02</pdfrwt>
<totfact> 0.52137588E+05</totfact>
</mgrwt>
</event>
<event>
 4    1  0.3704929E-001  0.2171151E+02  0.7818608E-02  0.1713290E+00
         -2   -1    0    0    0  501 -0.00000000000E+00  0.00000000000E+00  0.31075143403E+02  0.31075143512E+02  0.26000000000E-02 0. -1.
          2   -1    0    0  501    0  0.00000000000E+00 -0.00000000000E+00 -0.37923354989E+01  0.37923363902E+01  0.26000000000E-02 0.  1.
        -13    1    1    2    0    0 -0.57320290605E+00  0.10825727938E+02  0.12745425772E+02  0.16732662596E+02  0.10570000000E+00 0. -1.
         13    1    1    2    0    0  0.57320290605E+00 -0.10825727938E+02  0.14537382132E+02  0.18134817306E+02  0.10570000000E+00 0.  1.
<mgrwt>
<rscale>  0 0.21711507E+02</rscale>
<asrwt>0</asrwt>
<pdfrwt beam="2">  1        2 0.58343630E-03 0.21711507E+02</pdfrwt>
<pdfrwt beam="1">  1       -2 0.47807914E-02 0.21711507E+02</pdfrwt>
<totfact> 0.30004395E+06</totfact>
</mgrwt>
</event>
<event>
 4    1  0.3704929E-001  0.2442934E+02  0.7818608E-02  0.1669336E+00
          2   -1    0    0  501    0  0.00000000000E+00  0.00000000000E+00  0.52750367428E+02  0.52750367492E+02  0.26000000000E-02 0. -1.
         -2   -1    0    0    0  501 -0.00000000000E+00 -0.00000000000E+00 -0.28283819138E+01  0.28283831089E+01  0.26000000000E-02 0.  1.
        -13    1    1    2    0    0  0.92142847094E+01 -0.80093835051E+01  0.24128857496E+02  0.27041934166E+02  0.10570000000E+00 0. -1.
         13    1    1    2    0    0 -0.92142847094E+01  0.80093835051E+01  0.25793128017E+02  0.28536816435E+02  0.10570000000E+00 0.  1.
<mgrwt>
<rscale>  0 0.24429345E+02</rscale>
<asrwt>0</asrwt>
<pdfrwt beam="1">  1        2 0.81154413E-02 0.24429345E+02</pdfrwt>
<pdfrwt beam="2">  1       -2 0.43513577E-03 0.24429345E+02</pdfrwt>
<totfact> 0.29685649E+06</totfact>
</mgrwt>
</event>
<event>
 4    1  0.3704929E-001  0.4525095E+02  0.7818608E-02  0.1472781E+00
          2   -1    0    0  501    0  0.00000000000E+00  0.00000000000E+00  0.50082314833E+01  0.50082321582E+01  0.26000000000E-02 0.  1.
         -2   -1    0    0    0  501 -0.00000000000E+00 -0.00000000000E+00 -0.10221416055E+03  0.10221416058E+03  0.26000000000E-02 0. -1.
        -13    1    1    2    0    0 -0.14083513872E+02 -0.63324014310E+01 -0.87786333716E+02  0.89134147389E+02  0.10570000000E+00 0. -1.
         13    1    1    2    0    0  0.14083513872E+02  0.63324014310E+01 -0.94195953496E+01  0.18088245352E+02  0.10570000000E+00 0.  1.
<mgrwt>
<rscale>  0 0.45250954E+02</rscale>
<asrwt>0</asrwt>
<pdfrwt beam="1">  1        2 0.77049728E-03 0.45250954E+02</pdfrwt>
<pdfrwt beam="2">  1       -2 0.15725254E-01 0.45250954E+02</pdfrwt>
<totfact> 0.44739145E+05</totfact>
</mgrwt>
</event>
<event>
 4    1  0.3704929E-001  0.8236548E+02  0.7818608E-02  0.1322469E+00
          2   -1    0    0  501    0  0.00000000000E+00  0.00000000000E+00  0.14041036904E+03  0.14041036906E+03  0.26000000000E-02 0. -1.
         -2   -1    0    0    0  501 -0.00000000000E+00 -0.00000000000E+00 -0.12079008803E+02  0.12079009082E+02  0.26000000000E-02 0.  1.
        -13    1    1    2    0    0  0.21543546967E+02 -0.77518321523E+01  0.79045007728E+00  0.22909633377E+02  0.10570000000E+00 0.  1.
         13    1    1    2    0    0 -0.21543546967E+02  0.77518321523E+01  0.12754091016E+03  0.12957974477E+03  0.10570000000E+00 0. -1.
<mgrwt>
<rscale>  0 0.82365481E+02</rscale>
<asrwt>0</asrwt>
<pdfrwt beam="1">  1        2 0.21601596E-01 0.82365481E+02</pdfrwt>
<pdfrwt beam="2">  1       -2 0.18583090E-02 0.82365481E+02</pdfrwt>
<totfact> 0.17990153E+05</totfact>
</mgrwt>
</event>
<event>
 4    1  0.3704929E-001  0.3920133E+02  0.7818608E-02  0.1514172E+00
          2   -1    0    0  501    0  0.00000000000E+00  0.00000000000E+00  0.11331310917E+03  0.11331310920E+03  0.26000000000E-02 0.  1.
         -2   -1    0    0    0  501 -0.00000000000E+00 -0.00000000000E+00 -0.33904810953E+01  0.33904820922E+01  0.26000000000E-02 0. -1.
        -13    1    1    2    0    0 -0.15030690800E+02  0.10766467296E+02  0.35590842329E+02  0.40106828771E+02  0.10570000000E+00 0. -1.
         13    1    1    2    0    0  0.15030690800E+02 -0.10766467296E+02  0.74331785749E+02  0.76596762523E+02  0.10570000000E+00 0.  1.
<mgrwt>
<rscale>  0 0.39201327E+02</rscale>
<asrwt>0</asrwt>
<pdfrwt beam="1">  1        2 0.17432784E-01 0.39201327E+02</pdfrwt>
<pdfrwt beam="2">  1       -2 0.52161263E-03 0.39201327E+02</pdfrwt>
<totfact> 0.11336887E+06</totfact>
</mgrwt>
</event>
<event>
 4    1  0.3704929E-001  0.2554517E+02  0.7818608E-02  0.1653293E+00
          2   -1    0    0  501    0  0.00000000000E+00  0.00000000000E+00  0.13061877404E+02  0.13061877663E+02  0.26000000000E-02 0.  1.
         -2   -1    0    0    0  501 -0.00000000000E+00 -0.00000000000E+00 -0.12489701846E+02  0.12489702117E+02  0.26000000000E-02 0. -1.
        -13    1    1    2    0    0 -0.25817901726E+01  0.12305402376E+02 -0.19592960695E+01  0.12725509094E+02  0.10570000000E+00 0.  1.
         13    1    1    2    0    0  0.25817901726E+01 -0.12305402376E+02  0.25314716275E+01  0.12826070685E+02  0.10570000000E+00 0. -1.
<mgrwt>
<rscale>  0 0.25545173E+02</rscale>
<asrwt>0</asrwt>
<pdfrwt beam="1">  1        2 0.20095196E-02 0.25545173E+02</pdfrwt>
<pdfrwt beam="2">  1       -2 0.19214926E-02 0.25545173E+02</pdfrwt>
<totfact> 0.22774242E+06</totfact>
</mgrwt>
</event>
<event>
 4    1  0.3704929E-001  0.3144143E+02  0.7818608E-02  0.1582681E+00
          2   -1    0    0  501    0  0.00000000000E+00  0.00000000000E+00  0.37617902220E+01  0.37617911205E+01  0.26000000000E-02 0.  1.
         -2   -1    0    0    0  501 -0.00000000000E+00 -0.00000000000E+00 -0.65697673283E+02  0.65697673335E+02  0.26000000000E-02 0. -1.
        -13    1    1    2    0    0 -0.10092208337E+02  0.21417995030E+01 -0.57171504984E+02  0.58095026713E+02  0.10570000000E+00 0. -1.
         13    1    1    2    0    0  0.10092208337E+02 -0.21417995030E+01 -0.47643780777E+01  0.11364437742E+02  0.10570000000E+00 0.  1.
<mgrwt>
<rscale>  0 0.31441431E+02</rscale>
<asrwt>0</asrwt>
<pdfrwt beam="1">  1        2 0.57873708E-03 0.31441431E+02</pdfrwt>
<pdfrwt beam="2">  1       -2 0.10107334E-01 0.31441431E+02</pdfrwt>
<totfact> 0.11675763E+06</totfact>
</mgrwt>
</event>
<event>
 4    1  0.3704929E-001  0.4201193E+02  0.7818608E-02  0.1493907E+00
          2   -1    0    0  501    0  0.00000000000E+00  0.00000000000E+00  0.33052255600E+01  0.33052265827E+01  0.26000000000E-02 0.  1.
         -2   -1    0    0    0  501 -0.00000000000E+00 -0.00000000000E+00 -0.13350087336E+03  0.13350087338E+03  0.26000000000E-02 0. -1.
        -13    1    1    2    0    0 -0.20129864250E+02 -0.14263854181E+01 -0.46111973592E+02  0.50334593384E+02  0.10570000000E+00 0. -1.
         13    1    1    2    0    0  0.20129864250E+02  0.14263854181E+01 -0.84083674206E+02  0.86471506582E+02  0.10570000000E+00 0.  1.
<mgrwt>
<rscale>  0 0.42011930E+02</rscale>
<asrwt>0</asrwt>
<pdfrwt beam="1">  1        2 0.50849643E-03 0.42011930E+02</pdfrwt>
<pdfrwt beam="2">  1       -2 0.20538592E-01 0.42011930E+02</pdfrwt>
<totfact> 0.49719003E+05</totfact>
</mgrwt>
</event>
<event>
 4    1  0.3704929E-001  0.3946966E+02  0.7818608E-02  0.1512151E+00
         -2   -1    0    0    0  501 -0.00000000000E+00  0.00000000000E+00  0.42735025117E+02  0.42735025196E+02  0.26000000000E-02 0.  1.
          2   -1    0    0  501    0  0.00000000000E+00 -0.00000000000E+00 -0.91134502956E+01  0.91134506665E+01  0.26000000000E-02 0. -1.
        -13    1    1    2    0    0  0.90060106516E+01 -0.13968105915E+02  0.28321398800E+01  0.16859667835E+02  0.10570000000E+00 0. -1.
         13    1    1    2    0    0 -0.90060106516E+01  0.13968105915E+02  0.30789434941E+02  0.34988808028E+02  0.10570000000E+00 0.  1.
<mgrwt>
<rscale>  0 0.39469661E+02</rscale>
<asrwt>0</asrwt>
<pdfrwt beam="2">  1        2 0.14020693E-02 0.39469661E+02</pdfrwt>
<pdfrwt beam="1">  1       -2 0.65746192E-02 0.39469661E+02</pdfrwt>
<totfact> 0.73408237E+05</totfact>
</mgrwt>
</event>
<event>
 4    1  0.3704929E-001  0.3735355E+03  0.7818608E-02  0.1053349E+00
          2   -1    0    0  501    0  0.00000000000E+00  0.00000000000E+00  0.46329442658E+03  0.46329442659E+03  0.26000000000E-02 0.  1.
         -2   -1    0    0    0  501 -0.00000000000E+00 -0.00000000000E+00 -0.75291644610E+02  0.75291644655E+02  0.26000000000E-02 0. -1.
        -13    1    1    2    0    0  0.13957871935E+03  0.69826695546E+02  0.46084497666E+02  0.16273222915E+03  0.10570000000E+00 0. -1.
         13    1    1    2    0    0 -0.13957871935E+03 -0.69826695546E+02  0.34191828431E+03  0.37585384210E+03  0.10570000000E+00 0.  1.
<mgrwt>
<rscale>  0 0.37353554E+03</rscale>
<asrwt>0</asrwt>
<pdfrwt beam="1">  1        2 0.71276066E-01 0.37353554E+03</pdfrwt>
<pdfrwt beam="2">  1       -2 0.11583330E-01 0.37353554E+03</pdfrwt>
<totfact> 0.35693981E+03</totfact>
</mgrwt>
</event>
<event>
 4    1  0.3704929E-001  0.2194024E+03  0.7818608E-02  0.1134329E+00
         -2   -1    0    0    0  501 -0.00000000000E+00  0.00000000000E+00  0.13182180209E+03  0.13182180212E+03  0.26000000000E-02 0. -1.
          2   -1    0    0  501    0  0.00000000000E+00 -0.00000000000E+00 -0.91292588902E+02  0.91292588939E+02  0.26000000000E-02 0.  1.
        -13    1    1    2    0    0 -0.12956260019E+02  0.21252365223E+02  0.12891233167E+03  0.13129329050E+03  0.10570000000E+00 0. -1.
         13    1    1    2    0    0  0.12956260019E+02 -0.21252365223E+02 -0.88383118484E+02  0.91821100553E+02  0.10570000000E+00 0.  1.
<mgrwt>
<rscale>  0 0.21940240E+03</rscale>
<asrwt>0</asrwt>
<pdfrwt beam="2">  1        2 0.14045014E-01 0.21940240E+03</pdfrwt>
<pdfrwt beam="1">  1       -2 0.20280277E-01 0.21940240E+03</pdfrwt>
<totfact> 0.84512312E+03</totfact>
</mgrwt>
</event>
<event>
 4    1  0.3704929E-001  0.3255746E+02  0.7818608E-02  0.1571426E+00
         -2   -1    0    0    0  501 -0.00000000000E+00  0.00000000000E+00  0.11273942299E+02  0.11273942598E+02  0.26000000000E-02 0.  1.
          2   -1    0    0  501    0  0.00000000000E+00 -0.00000000000E+00 -0.23505265416E+02  0.23505265560E+02  0.26000000000E-02 0. -1.
        -13    1    1    2    0    0 -0.74968179426E+01 -0.11250234518E+02 -0.15801713842E+02  0.20796042623E+02  0.10570000000E+00 0. -1.
         13    1    1    2    0    0  0.74968179426E+01  0.11250234518E+02  0.35703907239E+01  0.13983165535E+02  0.10570000000E+00 0.  1.
<mgrwt>
<rscale>  0 0.32557458E+02</rscale>
<asrwt>0</asrwt>
<pdfrwt beam="2">  1        2 0.36161947E-02 0.32557458E+02</pdfrwt>
<pdfrwt beam="1">  1       -2 0.17344527E-02 0.32557458E+02</pdfrwt>
<totfact> 0.13457300E+06</totfact>
</mgrwt>
</event>
<event>
 4    1  0.3704929E-001  0.2202804E+02  0.7818608E-02  0.1707768E+00
          2   -1    0    0  501    0  0.00000000000E+00  0.00000000000E+00  0.35713066742E+02  0.35713066837E+02  0.26000000000E-02 0. -1.
         -2   -1    0    0    0  501 -0.00000000000E+00 -0.00000000000E+00 -0.33967558216E+01  0.33967568167E+01  0.26000000000E-02 0.  1.
        -13    1    1    2    0    0 -0.10190631751E+02  0.16347188112E+01  0.22982964649E+02  0.25194227863E+02  0.10570000000E+00 0. -1.
         13    1    1    2    0    0  0.10190631751E+02 -0.16347188112E+01  0.93333462717E+01  0.13915595790E+02  0.10570000000E+00 0.  1.
<mgrwt>
<rscale>  0 0.22028036E+02</rscale>
<asrwt>0</asrwt>
<pdfrwt beam="1">  1        2 0.54943184E-02 0.22028036E+02</pdfrwt>
<pdfrwt beam="2">  1       -2 0.52257787E-03 0.22028036E+02</pdfrwt>
<totfact> 0.35584347E+06</totfact>
</mgrwt>
</event>
<event>
 4    1  0.3704929E-001  0.2884189E+02  0.7818608E-02  0.1611254E+00
         -2   -1    0    0    0  501 -0.00000000000E+00  0.00000000000E+00  0.34938103481E+01  0.34938113155E+01  0.26000000000E-02 0. -1.
          2   -1    0    0  501    0  0.00000000000E+00 -0.00000000000E+00 -0.59523438143E+02  0.59523438199E+02  0.26000000000E-02 0.  1.
        -13    1    1    2    0    0 -0.65760212713E+01 -0.83108022562E+01 -0.66473390707E+01  0.12510466782E+02  0.10570000000E+00 0. -1.
         13    1    1    2    0    0  0.65760212713E+01  0.83108022562E+01 -0.49382288724E+02  0.50506782732E+02  0.10570000000E+00 0.  1.
<mgrwt>
<rscale>  0 0.28841889E+02</rscale>
<asrwt>0</asrwt>
<pdfrwt beam="2">  1        2 0.91574514E-02 0.28841889E+02</pdfrwt>
<pdfrwt beam="1">  1       -2 0.53750941E-03 0.28841889E+02</pdfrwt>
<totfact> 0.20568838E+06</totfact>
</mgrwt>
</event>
<event>
 4    1  0.3704929E-001  0.2565335E+02  0.7818608E-02  0.1651791E+00
          2   -1    0    0  501    0  0.00000000000E+00  0.00000000000E+00  0.71752333908E+02  0.71752333955E+02  0.26000000000E-02 0.  1.
         -2   -1    0    0    0  501 -0.00000000000E+00 -0.00000000000E+00 -0.22929371146E+01  0.22929385887E+01  0.26000000000E-02 0. -1.
        -13    1    1    2    0    0 -0.14557082315E+01  0.12395852128E+02  0.26198395169E+02  0.29019705690E+02  0.10570000000E+00 0.  1.
         13    1    1    2    0    0  0.14557082315E+01 -0.12395852128E+02  0.43261001625E+02  0.45025566854E+02  0.10570000000E+00 0. -1.
<mgrwt>
<rscale>  0 0.25653354E+02</rscale>
<asrwt>0</asrwt>
<pdfrwt beam="1">  1        2 0.11038818E-01 0.25653354E+02</pdfrwt>
<pdfrwt beam="2">  1       -2 0.35275976E-03 0.25653354E+02</pdfrwt>
<totfact> 0.28015279E+06</totfact>
</mgrwt>
</event>
<event>
 4    1  0.3704929E-001  0.3184234E+02  0.7818608E-02  0.1578574E+00
          2   -1    0    0  501    0  0.00000000000E+00  0.00000000000E+00  0.40480762084E+02  0.40480762167E+02  0.26000000000E-02 0. -1.
         -2   -1    0    0    0  501 -0.00000000000E+00 -0.00000000000E+00 -0.62618286896E+01  0.62618292293E+01  0.26000000000E-02 0.  1.
        -13    1    1    2    0    0  0.95807351227E-02  0.11029078004E+02  0.33964045920E+02  0.35710057983E+02  0.10570000000E+00 0. -1.
         13    1    1    2    0    0 -0.95807351227E-02 -0.11029078004E+02  0.25488747372E+00  0.11032533413E+02  0.10570000000E+00 0.  1.
<mgrwt>
<rscale>  0 0.31842337E+02</rscale>
<asrwt>0</asrwt>
<pdfrwt beam="1">  1        2 0.62278097E-02 0.31842337E+02</pdfrwt>
<pdfrwt beam="2">  1       -2 0.96335830E-03 0.31842337E+02</pdfrwt>
<totfact> 0.15250972E+06</totfact>
</mgrwt>
</event>
<event>
 4    1  0.3704929E-001  0.4498610E+02  0.7818608E-02  0.1474428E+00
         -2   -1    0    0    0  501 -0.00000000000E+00  0.00000000000E+00  0.72997794639E+01  0.72997799269E+01  0.26000000000E-02 0. -1.
          2   -1    0    0  501    0  0.00000000000E+00 -0.00000000000E+00 -0.69308574631E+02  0.69308574679E+02  0.26000000000E-02 0.  1.
        -13    1    1    2    0    0 -0.14513627250E+02  0.58840868557E+01 -0.58498120949E+02  0.60558312238E+02  0.10570000000E+00 0.  1.
         13    1    1    2    0    0  0.14513627250E+02 -0.58840868557E+01 -0.35106742178E+01  0.16050042368E+02  0.10570000000E+00 0. -1.
<mgrwt>
<rscale>  0 0.44986101E+02</rscale>
<asrwt>0</asrwt>
<pdfrwt beam="2">  1        2 0.10662857E-01 0.44986101E+02</pdfrwt>
<pdfrwt beam="1">  1       -2 0.11230431E-02 0.44986101E+02</pdfrwt>
<totfact> 0.71669505E+05</totfact>
</mgrwt>
</event>
<event>
 4    1  0.3704929E-001  0.2910416E+02  0.7818608E-02  0.1608207E+00
          2   -1    0    0  501    0  0.00000000000E+00  0.00000000000E+00  0.21709907465E+02  0.21709907621E+02  0.26000000000E-02 0. -1.
         -2   -1    0    0    0  501 -0.00000000000E+00 -0.00000000000E+00 -0.97542089756E+01  0.97542093222E+01  0.26000000000E-02 0.  1.
        -13    1    1    2    0    0 -0.76528629799E+01 -0.10719682880E+02 -0.71039109018E+00  0.13190668703E+02  0.10570000000E+00 0.  1.
         13    1    1    2    0    0  0.76528629799E+01  0.10719682880E+02  0.12666089580E+02  0.18273448240E+02  0.10570000000E+00 0. -1.
<mgrwt>
<rscale>  0 0.29104157E+02</rscale>
<asrwt>0</asrwt>
<pdfrwt beam="1">  1        2 0.33399857E-02 0.29104157E+02</pdfrwt>
<pdfrwt beam="2">  1       -2 0.15006476E-02 0.29104157E+02</pdfrwt>
<totfact> 0.17515022E+06</totfact>
</mgrwt>
</event>
<event>
 4    1  0.3704929E-001  0.2198042E+02  0.7818608E-02  0.1708591E+00
          2   -1    0    0  501    0  0.00000000000E+00  0.00000000000E+00  0.34245038922E+01  0.34245048792E+01  0.26000000000E-02 0.  1.
         -2   -1    0    0    0  501 -0.00000000000E+00 -0.00000000000E+00 -0.35270703288E+02  0.35270703384E+02  0.26000000000E-02 0. -1.
        -13    1    1    2    0    0  0.82155345472E+01  0.71778087507E+01 -0.18256969843E+02  0.21268381854E+02  0.10570000000E+00 0. -1.
         13    1    1    2    0    0 -0.82155345472E+01 -0.71778087507E+01 -0.13589229553E+02  0.17426826409E+02  0.10570000000E+00 0.  1.
<mgrwt>
<rscale>  0 0.21980417E+02</rscale>
<asrwt>0</asrwt>
<pdfrwt beam="1">  1        2 0.52684686E-03 0.21980417E+02</pdfrwt>
<pdfrwt beam="2">  1       -2 0.54262619E-02 0.21980417E+02</pdfrwt>
<totfact> 0.28794490E+06</totfact>
</mgrwt>
</event>
<event>
 4    1  0.3704929E-001  0.2346963E+02  0.7818608E-02  0.1684009E+00
          2   -1    0    0  501    0  0.00000000000E+00  0.00000000000E+00  0.17041917619E+01  0.17041937453E+01  0.26000000000E-02 0.  1.
         -2   -1    0    0    0  501 -0.00000000000E+00 -0.00000000000E+00 -0.80804171869E+02  0.80804171911E+02  0.26000000000E-02 0. -1.
        -13    1    1    2    0    0 -0.20246596182E+01 -0.11072308641E+02 -0.27890562804E+02  0.30076401567E+02  0.10570000000E+00 0.  1.
         13    1    1    2    0    0  0.20246596182E+01  0.11072308641E+02 -0.51209417303E+02  0.52431964089E+02  0.10570000000E+00 0. -1.
<mgrwt>
<rscale>  0 0.23469630E+02</rscale>
<asrwt>0</asrwt>
<pdfrwt beam="1">  1        2 0.26218357E-03 0.23469630E+02</pdfrwt>
<pdfrwt beam="2">  1       -2 0.12431408E-01 0.23469630E+02</pdfrwt>
<totfact> 0.21895014E+06</totfact>
</mgrwt>
</event>
<event>
 4    1  0.3704929E-001  0.2072287E+02  0.7818608E-02  0.1731324E+00
          2   -1    0    0  501    0  0.00000000000E+00  0.00000000000E+00  0.16868203246E+01  0.16868223284E+01  0.26000000000E-02 0.  1.
         -2   -1    0    0    0  501 -0.00000000000E+00 -0.00000000000E+00 -0.63645926177E+02  0.63645926230E+02  0.26000000000E-02 0. -1.
        -13    1    1    2    0    0  0.62213650443E+01 -0.82657024335E+01 -0.29193569924E+02  0.30972615600E+02  0.10570000000E+00 0. -1.
         13    1    1    2    0    0 -0.62213650443E+01  0.82657024335E+01 -0.32765535928E+02  0.34360132958E+02  0.10570000000E+00 0.  1.
<mgrwt>
<rscale>  0 0.20722867E+02</rscale>
<asrwt>0</asrwt>
<pdfrwt beam="1">  1        2 0.25951103E-03 0.20722867E+02</pdfrwt>
<pdfrwt beam="2">  1       -2 0.97916792E-02 0.20722867E+02</pdfrwt>
<totfact> 0.30189875E+06</totfact>
</mgrwt>
</event>
<event>
 4    1  0.3704929E-001  0.2622327E+02  0.7818608E-02  0.1644029E+00
         -2   -1    0    0    0  501 -0.00000000000E+00  0.00000000000E+00  0.38609217448E+01  0.38609226202E+01  0.26000000000E-02 0.  1.
          2   -1    0    0  501    0  0.00000000000E+00 -0.00000000000E+00 -0.44526918573E+02  0.44526918649E+02  0.26000000000E-02 0. -1.
        -13    1    1    2    0    0  0.94384200284E+01  0.51709293511E+01 -0.65145502554E+01  0.12580652626E+02  0.10570000000E+00 0.  1.
         13    1    1    2    0    0 -0.94384200284E+01 -0.51709293511E+01 -0.34151446573E+02  0.35807188643E+02  0.10570000000E+00 0. -1.
<mgrwt>
<rscale>  0 0.26223270E+02</rscale>
<asrwt>0</asrwt>
<pdfrwt beam="2">  1        2 0.68502949E-02 0.26223270E+02</pdfrwt>
<pdfrwt beam="1">  1       -2 0.59398807E-03 0.26223270E+02</pdfrwt>
<totfact> 0.24528339E+06</totfact>
</mgrwt>
</event>
<event>
 4    1  0.3704929E-001  0.7060796E+02  0.7818608E-02  0.1358038E+00
          2   -1    0    0  501    0  0.00000000000E+00  0.00000000000E+00  0.16760885539E+02  0.16760885740E+02  0.26000000000E-02 0. -1.
         -2   -1    0    0    0  501 -0.00000000000E+00 -0.00000000000E+00 -0.74361887456E+02  0.74361887502E+02  0.26000000000E-02 0.  1.
        -13    1    1    2    0    0  0.74952523735E+00 -0.12619926021E+02  0.13739278030E+02  0.18670920013E+02  0.10570000000E+00 0. -1.
         13    1    1    2    0    0 -0.74952523735E+00  0.12619926021E+02 -0.71340279947E+02  0.72451853229E+02  0.10570000000E+00 0.  1.
<mgrwt>
<rscale>  0 0.70607963E+02</rscale>
<asrwt>0</asrwt>
<pdfrwt beam="1">  1        2 0.25785978E-02 0.70607963E+02</pdfrwt>
<pdfrwt beam="2">  1       -2 0.11440290E-01 0.70607963E+02</pdfrwt>
<totfact> 0.16252206E+05</totfact>
</mgrwt>
</event>
<event>
 4    1  0.3704929E-001  0.3941025E+02  0.7818608E-02  0.1512597E+00
         -2   -1    0    0    0  501 -0.00000000000E+00  0.00000000000E+00  0.27926904530E+02  0.27926904651E+02  0.26000000000E-02 0. -1.
          2   -1    0    0  501    0  0.00000000000E+00 -0.00000000000E+00 -0.13903863408E+02  0.13903863651E+02  0.26000000000E-02 0.  1.
        -13    1    1    2    0    0  0.16753868281E+02 -0.16178919724E+01  0.17886323915E+02  0.24560973769E+02  0.10570000000E+00 0. -1.
         13    1    1    2    0    0 -0.16753868281E+02  0.16178919724E+01 -0.38632827932E+01  0.17269794533E+02  0.10570000000E+00 0.  1.
<mgrwt>
<rscale>  0 0.39410246E+02</rscale>
<asrwt>0</asrwt>
<pdfrwt beam="2">  1        2 0.21390560E-02 0.39410246E+02</pdfrwt>
<pdfrwt beam="1">  1       -2 0.42964468E-02 0.39410246E+02</pdfrwt>
<totfact> 0.78126910E+05</totfact>
</mgrwt>
</event>
<event>
 4    1  0.3704929E-001  0.2394333E+02  0.7818608E-02  0.1676660E+00
         -2   -1    0    0    0  501 -0.00000000000E+00  0.00000000000E+00  0.22954618910E+02  0.22954619057E+02  0.26000000000E-02 0.  1.
          2   -1    0    0  501    0  0.00000000000E+00 -0.00000000000E+00 -0.62436571244E+01  0.62436576658E+01  0.26000000000E-02 0. -1.
        -13    1    1    2    0    0 -0.10445495108E+02 -0.36845433359E+01  0.13893744466E+02  0.17768836074E+02  0.10570000000E+00 0. -1.
         13    1    1    2    0    0  0.10445495108E+02  0.36845433359E+01  0.28172173195E+01  0.11429440649E+02  0.10570000000E+00 0.  1.
<mgrwt>
<rscale>  0 0.23943331E+02</rscale>
<asrwt>0</asrwt>
<pdfrwt beam="2">  1        2 0.96056268E-03 0.23943331E+02</pdfrwt>
<pdfrwt beam="1">  1       -2 0.35314799E-02 0.23943331E+02</pdfrwt>
<totfact> 0.24892671E+06</totfact>
</mgrwt>
</event>
<event>
 4    1  0.3704929E-001  0.3142442E+02  0.7818608E-02  0.1582857E+00
         -2   -1    0    0    0  501 -0.00000000000E+00  0.00000000000E+00  0.47905545013E+01  0.47905552069E+01  0.26000000000E-02 0.  1.
          2   -1    0    0  501    0  0.00000000000E+00 -0.00000000000E+00 -0.51533404083E+02  0.51533404149E+02  0.26000000000E-02 0. -1.
        -13    1    1    2    0    0 -0.43399114909E+00 -0.12872397650E+02 -0.39500243736E+02  0.41547170749E+02  0.10570000000E+00 0. -1.
         13    1    1    2    0    0  0.43399114909E+00  0.12872397650E+02 -0.72426058458E+01  0.14776788606E+02  0.10570000000E+00 0.  1.
<mgrwt>
<rscale>  0 0.31424424E+02</rscale>
<asrwt>0</asrwt>
<pdfrwt beam="2">  1        2 0.79282156E-02 0.31424424E+02</pdfrwt>
<pdfrwt beam="1">  1       -2 0.73700848E-03 0.31424424E+02</pdfrwt>
<totfact> 0.16354740E+06</totfact>
</mgrwt>
</event>
<event>
 4    1  0.3704929E-001  0.2448860E+02  0.7818608E-02  0.1668458E+00
         -2   -1    0    0    0  501 -0.00000000000E+00  0.00000000000E+00  0.10049786341E+02  0.10049786677E+02  0.26000000000E-02 0. -1.
          2   -1    0    0  501    0  0.00000000000E+00 -0.00000000000E+00 -0.14918019626E+02  0.14918019852E+02  0.26000000000E-02 0.  1.
        -13    1    1    2    0    0 -0.22067334455E+01 -0.10834939621E+02 -0.77949678677E+01  0.13529164263E+02  0.10570000000E+00 0.  1.
         13    1    1    2    0    0  0.22067334455E+01  0.10834939621E+02  0.29267345830E+01  0.11438642267E+02  0.10570000000E+00 0. -1.
<mgrwt>
<rscale>  0 0.24488603E+02</rscale>
<asrwt>0</asrwt>
<pdfrwt beam="2">  1        2 0.22950800E-02 0.24488603E+02</pdfrwt>
<pdfrwt beam="1">  1       -2 0.15461210E-02 0.24488603E+02</pdfrwt>
<totfact> 0.25473233E+06</totfact>
</mgrwt>
</event>
<event>
 4    1  0.3704929E-001  0.3143430E+02  0.7818608E-02  0.1582755E+00
          2   -1    0    0  501    0  0.00000000000E+00  0.00000000000E+00  0.59191825536E+01  0.59191831246E+01  0.26000000000E-02 0. -1.
         -2   -1    0    0    0  501 -0.00000000000E+00 -0.00000000000E+00 -0.41733611311E+02  0.41733611392E+02  0.26000000000E-02 0.  1.
        -13    1    1    2    0    0 -0.53432603473E+01 -0.14161601368E+02 -0.11490555519E+02  0.19003826538E+02  0.10570000000E+00 0. -1.
         13    1    1    2    0    0  0.53432603473E+01  0.14161601368E+02 -0.24323873239E+02  0.28648967979E+02  0.10570000000E+00 0.  1.
<mgrwt>
<rscale>  0 0.31434305E+02</rscale>
<asrwt>0</asrwt>
<pdfrwt beam="1">  1        2 0.91064354E-03 0.31434305E+02</pdfrwt>
<pdfrwt beam="2">  1       -2 0.64205555E-02 0.31434305E+02</pdfrwt>
<totfact> 0.12537983E+06</totfact>
</mgrwt>
</event>
<event>
 4    1  0.3704929E-001  0.3008357E+02  0.7818608E-02  0.1597167E+00
          2   -1    0    0  501    0  0.00000000000E+00  0.00000000000E+00  0.25802714896E+01  0.25802727995E+01  0.26000000000E-02 0.  1.
         -2   -1    0    0    0  501 -0.00000000000E+00 -0.00000000000E+00 -0.87686574688E+02  0.87686574727E+02  0.26000000000E-02 0. -1.
        -13    1    1    2    0    0  0.35693146187E+01  0.14338735918E+02 -0.34117051360E+02  0.37179614315E+02  0.10570000000E+00 0.  1.
         13    1    1    2    0    0 -0.35693146187E+01 -0.14338735918E+02 -0.50989251838E+02  0.53087233212E+02  0.10570000000E+00 0. -1.
<mgrwt>
<rscale>  0 0.30083566E+02</rscale>
<asrwt>0</asrwt>
<pdfrwt beam="1">  1        2 0.39696501E-03 0.30083566E+02</pdfrwt>
<pdfrwt beam="2">  1       -2 0.13490240E-01 0.30083566E+02</pdfrwt>
<totfact> 0.12216870E+06</totfact>
</mgrwt>
</event>
<event>
 4    1  0.3704929E-001  0.4265859E+02  0.7818608E-02  0.1489511E+00
          2   -1    0    0  501    0  0.00000000000E+00  0.00000000000E+00  0.17060192422E+03  0.17060192424E+03  0.26000000000E-02 0.  1.
         -2   -1    0    0    0  501 -0.00000000000E+00 -0.00000000000E+00 -0.26666676314E+01  0.26666688989E+01  0.26000000000E-02 0. -1.
        -13    1    1    2    0    0 -0.16195348993E+02 -0.12606486919E+02  0.10755194047E+03  0.10949266602E+03  0.10570000000E+00 0.  1.
         13    1    1    2    0    0  0.16195348993E+02  0.12606486919E+02  0.60383316113E+02  0.63775927111E+02  0.10570000000E+00 0. -1.
<mgrwt>
<rscale>  0 0.42658586E+02</rscale>
<asrwt>0</asrwt>
<pdfrwt beam="1">  1        2 0.26246446E-01 0.42658586E+02</pdfrwt>
<pdfrwt beam="2">  1       -2 0.41025671E-03 0.42658586E+02</pdfrwt>
<totfact> 0.10372226E+06</totfact>
</mgrwt>
</event>
<event>
 4    1  0.3704929E-001  0.2107042E+02  0.7818608E-02  0.1724843E+00
         -2   -1    0    0    0  501 -0.00000000000E+00  0.00000000000E+00  0.40723630133E+01  0.40723638433E+01  0.26000000000E-02 0. -1.
          2   -1    0    0  501    0  0.00000000000E+00 -0.00000000000E+00 -0.27254597161E+02  0.27254597285E+02  0.26000000000E-02 0.  1.
        -13    1    1    2    0    0  0.10769568658E+01  0.10348863665E+02 -0.14043457219E+02  0.17478234419E+02  0.10570000000E+00 0. -1.
         13    1    1    2    0    0 -0.10769568658E+01 -0.10348863665E+02 -0.91387769290E+01  0.13848726710E+02  0.10570000000E+00 0.  1.
<mgrwt>
<rscale>  0 0.21070418E+02</rscale>
<asrwt>0</asrwt>
<pdfrwt beam="2">  1        2 0.41930149E-02 0.21070418E+02</pdfrwt>
<pdfrwt beam="1">  1       -2 0.62651748E-03 0.21070418E+02</pdfrwt>
<totfact> 0.38163713E+06</totfact>
</mgrwt>
</event>
<event>
 4    1  0.3704929E-001  0.4821966E+02  0.7818608E-02  0.1455188E+00
          2   -1    0    0  501    0  0.00000000000E+00  0.00000000000E+00  0.79708785392E+02  0.79708785434E+02  0.26000000000E-02 0. -1.
         -2   -1    0    0    0  501 -0.00000000000E+00 -0.00000000000E+00 -0.72925944433E+01  0.72925949068E+01  0.26000000000E-02 0.  1.
        -13    1    1    2    0    0  0.11838078379E+02  0.20066513512E+02  0.47398601657E+02  0.52815184140E+02  0.10570000000E+00 0. -1.
         13    1    1    2    0    0 -0.11838078379E+02 -0.20066513512E+02  0.25017589291E+02  0.34186196201E+02  0.10570000000E+00 0.  1.
<mgrwt>
<rscale>  0 0.48219659E+02</rscale>
<asrwt>0</asrwt>
<pdfrwt beam="1">  1        2 0.12262889E-01 0.48219659E+02</pdfrwt>
<pdfrwt beam="2">  1       -2 0.11219377E-02 0.48219659E+02</pdfrwt>
<totfact> 0.62061269E+05</totfact>
</mgrwt>
</event>
<event>
 4    1  0.3704929E-001  0.4958327E+02  0.7818608E-02  0.1447602E+00
          2   -1    0    0  501    0  0.00000000000E+00  0.00000000000E+00  0.14538493890E+02  0.14538494123E+02  0.26000000000E-02 0. -1.
         -2   -1    0    0    0  501 -0.00000000000E+00 -0.00000000000E+00 -0.42275709798E+02  0.42275709878E+02  0.26000000000E-02 0.  1.
        -13    1    1    2    0    0 -0.15663658303E+02 -0.16580610348E+02 -0.24998377364E+02  0.33840757590E+02  0.10570000000E+00 0.  1.
         13    1    1    2    0    0  0.15663658303E+02  0.16580610348E+02 -0.27388385444E+01  0.22973446411E+02  0.10570000000E+00 0. -1.
<mgrwt>
<rscale>  0 0.49583270E+02</rscale>
<asrwt>0</asrwt>
<pdfrwt beam="1">  1        2 0.22366914E-02 0.49583270E+02</pdfrwt>
<pdfrwt beam="2">  1       -2 0.65039553E-02 0.49583270E+02</pdfrwt>
<totfact> 0.42794188E+05</totfact>
</mgrwt>
</event>
<event>
 4    1  0.3704929E-001  0.2637360E+02  0.7818608E-02  0.1642022E+00
          2   -1    0    0  501    0  0.00000000000E+00  0.00000000000E+00  0.32026912194E+02  0.32026912300E+02  0.26000000000E-02 0.  1.
         -2   -1    0    0    0  501 -0.00000000000E+00 -0.00000000000E+00 -0.54295484902E+01  0.54295491128E+01  0.26000000000E-02 0. -1.
        -13    1    1    2    0    0 -0.12357933096E+02 -0.40163073889E+01  0.10113043157E+02  0.16466148603E+02  0.10570000000E+00 0. -1.
         13    1    1    2    0    0  0.12357933096E+02  0.40163073889E+01  0.16484320547E+02  0.20990312809E+02  0.10570000000E+00 0.  1.
<mgrwt>
<rscale>  0 0.26373599E+02</rscale>
<asrwt>0</asrwt>
<pdfrwt beam="1">  1        2 0.49272174E-02 0.26373599E+02</pdfrwt>
<pdfrwt beam="2">  1       -2 0.83531519E-03 0.26373599E+02</pdfrwt>
<totfact> 0.23146584E+06</totfact>
</mgrwt>
</event>
<event>
 4    1  0.3704929E-001  0.3377161E+02  0.7818608E-02  0.1559788E+00
         -2   -1    0    0    0  501 -0.00000000000E+00  0.00000000000E+00  0.44124174374E+01  0.44124182034E+01  0.26000000000E-02 0. -1.
          2   -1    0    0  501    0  0.00000000000E+00 -0.00000000000E+00 -0.64620007104E+02  0.64620007156E+02  0.26000000000E-02 0.  1.
        -13    1    1    2    0    0  0.11172725127E+02 -0.93856324946E-01 -0.42251254911E+01  0.11945771373E+02  0.10570000000E+00 0. -1.
         13    1    1    2    0    0 -0.11172725127E+02  0.93856324946E-01 -0.55982464175E+02  0.57086653987E+02  0.10570000000E+00 0.  1.
<mgrwt>
<rscale>  0 0.33771614E+02</rscale>
<asrwt>0</asrwt>
<pdfrwt beam="2">  1        2 0.99415389E-02 0.33771614E+02</pdfrwt>
<pdfrwt beam="1">  1       -2 0.67883356E-03 0.33771614E+02</pdfrwt>
<totfact> 0.14326042E+06</totfact>
</mgrwt>
</event>
<event>
 4    1  0.3704929E-001  0.2481711E+02  0.7818608E-02  0.1663643E+00
          2   -1    0    0  501    0  0.00000000000E+00  0.00000000000E+00  0.42198342065E+01  0.42198350075E+01  0.26000000000E-02 0.  1.
         -2   -1    0    0    0  501 -0.00000000000E+00 -0.00000000000E+00 -0.36487753458E+02  0.36487753551E+02  0.26000000000E-02 0. -1.
        -13    1    1    2    0    0  0.66108177094E+01  0.10331798841E+02 -0.13059917100E+02  0.17917075242E+02  0.10570000000E+00 0.  1.
         13    1    1    2    0    0 -0.66108177094E+01 -0.10331798841E+02 -0.19208002152E+02  0.22790513317E+02  0.10570000000E+00 0. -1.
<mgrwt>
<rscale>  0 0.24817114E+02</rscale>
<asrwt>0</asrwt>
<pdfrwt beam="1">  1        2 0.64920535E-03 0.24817114E+02</pdfrwt>
<pdfrwt beam="2">  1       -2 0.56135004E-02 0.24817114E+02</pdfrwt>
<totfact> 0.21875881E+06</totfact>
</mgrwt>
</event>
<event>
 4    1  0.3704929E-001  0.4258305E+02  0.7818608E-02  0.1490020E+00
         -2   -1    0    0    0  501 -0.00000000000E+00  0.00000000000E+00  0.64411076857E+02  0.64411076910E+02  0.26000000000E-02 0. -1.
          2   -1    0    0  501    0  0.00000000000E+00 -0.00000000000E+00 -0.70380589754E+01  0.70380594556E+01  0.26000000000E-02 0.  1.
        -13    1    1    2    0    0  0.17322441129E+02  0.39744392899E+00  0.79260123023E+01  0.19054074941E+02  0.10570000000E+00 0.  1.
         13    1    1    2    0    0 -0.17322441129E+02 -0.39744392899E+00  0.49447005580E+02  0.52395061424E+02  0.10570000000E+00 0. -1.
<mgrwt>
<rscale>  0 0.42583047E+02</rscale>
<asrwt>0</asrwt>
<pdfrwt beam="2">  1        2 0.10827783E-02 0.42583047E+02</pdfrwt>
<pdfrwt beam="1">  1       -2 0.99093967E-02 0.42583047E+02</pdfrwt>
<totfact> 0.57259591E+05</totfact>
</mgrwt>
</event>
<event>
 4    1  0.3704929E-001  0.2729267E+02  0.7818608E-02  0.1630099E+00
          2   -1    0    0  501    0  0.00000000000E+00  0.00000000000E+00  0.82372465441E+01  0.82372469544E+01  0.26000000000E-02 0. -1.
         -2   -1    0    0    0  501 -0.00000000000E+00 -0.00000000000E+00 -0.22607360421E+02  0.22607360570E+02  0.26000000000E-02 0.  1.
        -13    1    1    2    0    0  0.11526844998E+02 -0.46287594342E+01 -0.13569879886E+02  0.18396912298E+02  0.10570000000E+00 0.  1.
         13    1    1    2    0    0 -0.11526844998E+02  0.46287594342E+01 -0.80023399082E+00  0.12447695226E+02  0.10570000000E+00 0. -1.
<mgrwt>
<rscale>  0 0.27292666E+02</rscale>
<asrwt>0</asrwt>
<pdfrwt beam="1">  1        2 0.12672688E-02 0.27292666E+02</pdfrwt>
<pdfrwt beam="2">  1       -2 0.34780555E-02 0.27292666E+02</pdfrwt>
<totfact> 0.18590002E+06</totfact>
</mgrwt>
</event>
<event>
 4    1  0.3704929E-001  0.2715522E+02  0.7818608E-02  0.1631845E+00
         -2   -1    0    0    0  501 -0.00000000000E+00  0.00000000000E+00  0.56957361101E+02  0.56957361160E+02  0.26000000000E-02 0.  1.
          2   -1    0    0  501    0  0.00000000000E+00 -0.00000000000E+00 -0.32366570177E+01  0.32366580620E+01  0.26000000000E-02 0. -1.
        -13    1    1    2    0    0  0.10302968709E+02 -0.18444577397E+01  0.46029968638E+02  0.47205109616E+02  0.10570000000E+00 0.  1.
         13    1    1    2    0    0 -0.10302968709E+02  0.18444577397E+01  0.76907354455E+01  0.12988909606E+02  0.10570000000E+00 0. -1.
<mgrwt>
<rscale>  0 0.27155219E+02</rscale>
<asrwt>0</asrwt>
<pdfrwt beam="2">  1        2 0.49794731E-03 0.27155219E+02</pdfrwt>
<pdfrwt beam="1">  1       -2 0.87626711E-02 0.27155219E+02</pdfrwt>
<totfact> 0.16769689E+06</totfact>
</mgrwt>
</event>
<event>
 4    1  0.3704929E-001  0.2774966E+02  0.7818608E-02  0.1624384E+00
         -2   -1    0    0    0  501 -0.00000000000E+00  0.00000000000E+00  0.45630476630E+01  0.45630484037E+01  0.26000000000E-02 0. -1.
          2   -1    0    0  501    0  0.00000000000E+00 -0.00000000000E+00 -0.42189104882E+02  0.42189104962E+02  0.26000000000E-02 0.  1.
        -13    1    1    2    0    0  0.59756632209E+01 -0.10076676773E+02 -0.31336279179E+02  0.33454768435E+02  0.10570000000E+00 0. -1.
         13    1    1    2    0    0 -0.59756632209E+01  0.10076676773E+02 -0.62897780394E+01  0.13297384931E+02  0.10570000000E+00 0.  1.
<mgrwt>
<rscale>  0 0.27749661E+02</rscale>
<asrwt>0</asrwt>
<pdfrwt beam="2">  1        2 0.64906313E-02 0.27749661E+02</pdfrwt>
<pdfrwt beam="1">  1       -2 0.70200743E-03 0.27749661E+02</pdfrwt>
<totfact> 0.21307177E+06</totfact>
</mgrwt>
</event>
<event>
 4    1  0.3704929E-001  0.3133363E+02  0.7818608E-02  0.1583798E+00
         -2   -1    0    0    0  501 -0.00000000000E+00  0.00000000000E+00  0.11698009934E+02  0.11698010223E+02  0.26000000000E-02 0.  1.
          2   -1    0    0  501    0  0.00000000000E+00 -0.00000000000E+00 -0.20982126831E+02  0.20982126992E+02  0.26000000000E-02 0. -1.
        -13    1    1    2    0    0 -0.13235913634E+02 -0.79709044760E+01 -0.73443926038E+01  0.17107776100E+02  0.10570000000E+00 0. -1.
         13    1    1    2    0    0  0.13235913634E+02  0.79709044760E+01 -0.19397242930E+01  0.15572361115E+02  0.10570000000E+00 0.  1.
<mgrwt>
<rscale>  0 0.31333633E+02</rscale>
<asrwt>0</asrwt>
<pdfrwt beam="2">  1        2 0.32280195E-02 0.31333633E+02</pdfrwt>
<pdfrwt beam="1">  1       -2 0.17996939E-02 0.31333633E+02</pdfrwt>
<totfact> 0.14588603E+06</totfact>
</mgrwt>
</event>
<event>
 4    1  0.3704929E-001  0.2635895E+02  0.7818608E-02  0.1642217E+00
          2   -1    0    0  501    0  0.00000000000E+00  0.00000000000E+00  0.49850822262E+01  0.49850829042E+01  0.26000000000E-02 0.  1.
         -2   -1    0    0    0  501 -0.00000000000E+00 -0.00000000000E+00 -0.34843664809E+02  0.34843664906E+02  0.26000000000E-02 0. -1.
        -13    1    1    2    0    0 -0.43420342652E+01 -0.11379241880E+02 -0.73219730570E+01  0.14211364089E+02  0.10570000000E+00 0.  1.
         13    1    1    2    0    0  0.43420342652E+01  0.11379241880E+02 -0.22536609526E+02  0.25617383721E+02  0.10570000000E+00 0. -1.
<mgrwt>
<rscale>  0 0.26358949E+02</rscale>
<asrwt>0</asrwt>
<pdfrwt beam="1">  1        2 0.76693581E-03 0.26358949E+02</pdfrwt>
<pdfrwt beam="2">  1       -2 0.53605637E-02 0.26358949E+02</pdfrwt>
<totfact> 0.19196238E+06</totfact>
</mgrwt>
</event>
<event>
 4    1  0.3704929E-001  0.3134735E+02  0.7818608E-02  0.1583656E+00
         -2   -1    0    0    0  501 -0.00000000000E+00  0.00000000000E+00  0.66311597913E+02  0.66311597964E+02  0.26000000000E-02 0.  1.
          2   -1    0    0  501    0  0.00000000000E+00 -0.00000000000E+00 -0.37046911251E+01  0.37046920374E+01  0.26000000000E-02 0. -1.
        -13    1    1    2    0    0 -0.52218992253E+01  0.13586368182E+02  0.44287974716E+02  0.46618596170E+02  0.10570000000E+00 0.  1.
         13    1    1    2    0    0  0.52218992253E+01 -0.13586368182E+02  0.18318932072E+02  0.23397693832E+02  0.10570000000E+00 0. -1.
<mgrwt>
<rscale>  0 0.31347346E+02</rscale>
<asrwt>0</asrwt>
<pdfrwt beam="2">  1        2 0.56995252E-03 0.31347346E+02</pdfrwt>
<pdfrwt beam="1">  1       -2 0.10201785E-01 0.31347346E+02</pdfrwt>
<totfact> 0.11737788E+06</totfact>
</mgrwt>
</event>
<event>
 4    1  0.3704929E-001  0.3335218E+02  0.7818608E-02  0.1563740E+00
          2   -1    0    0  501    0  0.00000000000E+00  0.00000000000E+00  0.79799156647E+01  0.79799160883E+01  0.26000000000E-02 0.  1.
         -2   -1    0    0    0  501 -0.00000000000E+00 -0.00000000000E+00 -0.34848988897E+02  0.34848988994E+02  0.26000000000E-02 0. -1.
        -13    1    1    2    0    0 -0.12028014982E+02 -0.41332435671E+00  0.13880809375E+01  0.12115358955E+02  0.10570000000E+00 0.  1.
         13    1    1    2    0    0  0.12028014982E+02  0.41332435671E+00 -0.28257154170E+02  0.30713546127E+02  0.10570000000E+00 0. -1.
<mgrwt>
<rscale>  0 0.33352182E+02</rscale>
<asrwt>0</asrwt>
<pdfrwt beam="1">  1        2 0.12276794E-02 0.33352182E+02</pdfrwt>
<pdfrwt beam="2">  1       -2 0.53613828E-02 0.33352182E+02</pdfrwt>
<totfact> 0.11193285E+06</totfact>
</mgrwt>
</event>
<event>
 4    1  0.3704929E-001  0.3006557E+02  0.7818608E-02  0.1597365E+00
          2   -1    0    0  501    0  0.00000000000E+00  0.00000000000E+00  0.18464446026E+02  0.18464446209E+02  0.26000000000E-02 0.  1.
         -2   -1    0    0    0  501 -0.00000000000E+00 -0.00000000000E+00 -0.12238904655E+02  0.12238904931E+02  0.26000000000E-02 0. -1.
        -13    1    1    2    0    0 -0.88752095550E+01 -0.74160344488E+01  0.12918889920E+02  0.17340005792E+02  0.10570000000E+00 0.  1.
         13    1    1    2    0    0  0.88752095550E+01  0.74160344488E+01 -0.66933485502E+01  0.13363345348E+02  0.10570000000E+00 0. -1.
<mgrwt>
<rscale>  0 0.30065568E+02</rscale>
<asrwt>0</asrwt>
<pdfrwt beam="1">  1        2 0.28406841E-02 0.30065568E+02</pdfrwt>
<pdfrwt beam="2">  1       -2 0.18829084E-02 0.30065568E+02</pdfrwt>
<totfact> 0.15912658E+06</totfact>
</mgrwt>
</event>
<event>
 4    1  0.3704929E-001  0.4002596E+02  0.7818608E-02  0.1508021E+00
          2   -1    0    0  501    0  0.00000000000E+00  0.00000000000E+00  0.36932225693E+02  0.36932225784E+02  0.26000000000E-02 0. -1.
         -2   -1    0    0    0  501 -0.00000000000E+00 -0.00000000000E+00 -0.10844711023E+02  0.10844711334E+02  0.26000000000E-02 0.  1.
        -13    1    1    2    0    0  0.11367888504E+02 -0.80856782082E+01  0.30171726569E+02  0.33240808320E+02  0.10570000000E+00 0. -1.
         13    1    1    2    0    0 -0.11367888504E+02  0.80856782082E+01 -0.40842118990E+01  0.14536128799E+02  0.10570000000E+00 0.  1.
<mgrwt>
<rscale>  0 0.40025958E+02</rscale>
<asrwt>0</asrwt>
<pdfrwt beam="1">  1        2 0.56818809E-02 0.40025958E+02</pdfrwt>
<pdfrwt beam="2">  1       -2 0.16684171E-02 0.40025958E+02</pdfrwt>
<totfact> 0.85709458E+05</totfact>
</mgrwt>
</event>
<event>
 4    1  0.3704929E-001  0.4275200E+02  0.7818608E-02  0.1488884E+00
          2   -1    0    0  501    0  0.00000000000E+00  0.00000000000E+00  0.13439086976E+03  0.13439086979E+03  0.26000000000E-02 0.  1.
         -2   -1    0    0    0  501 -0.00000000000E+00 -0.00000000000E+00 -0.34000319370E+01  0.34000329311E+01  0.26000000000E-02 0. -1.
        -13    1    1    2    0    0 -0.16294042116E+02 -0.11767795456E+02  0.42043522903E+02  0.46600920688E+02  0.10570000000E+00 0. -1.
         13    1    1    2    0    0  0.16294042116E+02  0.11767795456E+02  0.88947314924E+02  0.91189982032E+02  0.10570000000E+00 0.  1.
<mgrwt>
<rscale>  0 0.42751997E+02</rscale>
<asrwt>0</asrwt>
<pdfrwt beam="1">  1        2 0.20675517E-01 0.42751997E+02</pdfrwt>
<pdfrwt beam="2">  1       -2 0.52308196E-03 0.42751997E+02</pdfrwt>
<totfact> 0.96039412E+05</totfact>
</mgrwt>
</event>
<event>
 4    1  0.3704929E-001  0.4304395E+02  0.7818608E-02  0.1486936E+00
          2   -1    0    0  501    0  0.00000000000E+00  0.00000000000E+00  0.37399119582E+01  0.37399128620E+01  0.26000000000E-02 0. -1.
         -2   -1    0    0    0  501 -0.00000000000E+00 -0.00000000000E+00 -0.12385195223E+03  0.12385195226E+03  0.26000000000E-02 0.  1.
        -13    1    1    2    0    0 -0.21373208364E+02 -0.21442543384E+01 -0.56109681278E+02  0.60080940139E+02  0.10570000000E+00 0. -1.
         13    1    1    2    0    0  0.21373208364E+02  0.21442543384E+01 -0.64002358998E+02  0.67510924984E+02  0.10570000000E+00 0.  1.
<mgrwt>
<rscale>  0 0.43043952E+02</rscale>
<asrwt>0</asrwt>
<pdfrwt beam="1">  1        2 0.57537124E-03 0.43043952E+02</pdfrwt>
<pdfrwt beam="2">  1       -2 0.19054143E-01 0.43043952E+02</pdfrwt>
<totfact> 0.47946875E+05</totfact>
</mgrwt>
</event>
<event>
 4    1  0.3704929E-001  0.2194449E+02  0.7818608E-02  0.1709214E+00
         -2   -1    0    0    0  501 -0.00000000000E+00  0.00000000000E+00  0.76664792218E+02  0.76664792262E+02  0.26000000000E-02 0. -1.
          2   -1    0    0  501    0  0.00000000000E+00 -0.00000000000E+00 -0.15703435311E+01  0.15703456835E+01  0.26000000000E-02 0.  1.
        -13    1    1    2    0    0  0.19904489625E+01 -0.10786769604E+02  0.36654597529E+02  0.38260775973E+02  0.10570000000E+00 0.  1.
         13    1    1    2    0    0 -0.19904489625E+01  0.10786769604E+02  0.38439851158E+02  0.39974361972E+02  0.10570000000E+00 0. -1.
<mgrwt>
<rscale>  0 0.21944489E+02</rscale>
<asrwt>0</asrwt>
<pdfrwt beam="2">  1        2 0.24159148E-03 0.21944489E+02</pdfrwt>
<pdfrwt beam="1">  1       -2 0.11794584E-01 0.21944489E+02</pdfrwt>
<totfact> 0.25703349E+06</totfact>
</mgrwt>
</event>
<event>
 4    1  0.3704929E-001  0.2337489E+02  0.7818608E-02  0.1685504E+00
         -2   -1    0    0    0  501 -0.00000000000E+00  0.00000000000E+00  0.20118741665E+01  0.20118758466E+01  0.26000000000E-02 0. -1.
          2   -1    0    0  501    0  0.00000000000E+00 -0.00000000000E+00 -0.67895082465E+02  0.67895082515E+02  0.26000000000E-02 0.  1.
        -13    1    1    2    0    0 -0.75725867148E+01  0.68619460853E+01 -0.49900367209E+02  0.50936118754E+02  0.10570000000E+00 0.  1.
         13    1    1    2    0    0  0.75725867148E+01 -0.68619460853E+01 -0.15982841090E+02  0.18970839608E+02  0.10570000000E+00 0. -1.
<mgrwt>
<rscale>  0 0.23374894E+02</rscale>
<asrwt>0</asrwt>
<pdfrwt beam="2">  1        2 0.10445396E-01 0.23374894E+02</pdfrwt>
<pdfrwt beam="1">  1       -2 0.30951929E-03 0.23374894E+02</pdfrwt>
<totfact> 0.34321837E+06</totfact>
</mgrwt>
</event>
<event>
 4    1  0.3704929E-001  0.3782218E+02  0.7818608E-02  0.1524878E+00
          2   -1    0    0  501    0  0.00000000000E+00  0.00000000000E+00  0.11980431116E+02  0.11980431398E+02  0.26000000000E-02 0.  1.
         -2   -1    0    0    0  501 -0.00000000000E+00 -0.00000000000E+00 -0.29851117236E+02  0.29851117350E+02  0.26000000000E-02 0. -1.
        -13    1    1    2    0    0 -0.10543079516E+02 -0.15694723711E+02 -0.85256555662E+01  0.20740753443E+02  0.10570000000E+00 0.  1.
         13    1    1    2    0    0  0.10543079516E+02  0.15694723711E+02 -0.93450305538E+01  0.21090795305E+02  0.10570000000E+00 0. -1.
<mgrwt>
<rscale>  0 0.37822177E+02</rscale>
<asrwt>0</asrwt>
<pdfrwt beam="1">  1        2 0.18431433E-02 0.37822177E+02</pdfrwt>
<pdfrwt beam="2">  1       -2 0.45924796E-02 0.37822177E+02</pdfrwt>
<totfact> 0.85237175E+05</totfact>
</mgrwt>
</event>
<event>
 4    1  0.3704929E-001  0.5370697E+02  0.7818608E-02  0.1426315E+00
          2   -1    0    0  501    0  0.00000000000E+00  0.00000000000E+00  0.14052219150E+02  0.14052219391E+02  0.26000000000E-02 0. -1.
         -2   -1    0    0    0  501 -0.00000000000E+00 -0.00000000000E+00 -0.51316420895E+02  0.51316420961E+02  0.26000000000E-02 0.  1.
        -13    1    1    2    0    0 -0.40844364217E+01  0.11097769793E+02  0.10712099888E+02  0.15956295678E+02  0.10570000000E+00 0. -1.
         13    1    1    2    0    0  0.40844364217E+01 -0.11097769793E+02 -0.47976301634E+02  0.49412344674E+02  0.10570000000E+00 0.  1.
<mgrwt>
<rscale>  0 0.53706968E+02</rscale>
<asrwt>0</asrwt>
<pdfrwt beam="1">  1        2 0.21618799E-02 0.53706968E+02</pdfrwt>
<pdfrwt beam="2">  1       -2 0.78948339E-02 0.53706968E+02</pdfrwt>
<totfact> 0.34170716E+05</totfact>
</mgrwt>
</event>
<event>
 4    1  0.3704929E-001  0.2949234E+02  0.7818608E-02  0.1603769E+00
          2   -1    0    0  501    0  0.00000000000E+00  0.00000000000E+00  0.10676347192E+02  0.10676347508E+02  0.26000000000E-02 0.  1.
         -2   -1    0    0    0  501 -0.00000000000E+00 -0.00000000000E+00 -0.20367411184E+02  0.20367411350E+02  0.26000000000E-02 0. -1.
        -13    1    1    2    0    0  0.24769549176E+01 -0.96988223602E+01 -0.16242659315E+02  0.19079769782E+02  0.10570000000E+00 0. -1.
         13    1    1    2    0    0 -0.24769549176E+01  0.96988223602E+01  0.65515953228E+01  0.11963989076E+02  0.10570000000E+00 0.  1.
<mgrwt>
<rscale>  0 0.29492342E+02</rscale>
<asrwt>0</asrwt>
<pdfrwt beam="1">  1        2 0.16425150E-02 0.29492342E+02</pdfrwt>
<pdfrwt beam="2">  1       -2 0.31334479E-02 0.29492342E+02</pdfrwt>
<totfact> 0.15771491E+06</totfact>
</mgrwt>
</event>
<event>
 4    1  0.3704929E-001  0.3156243E+02  0.7818608E-02  0.1581434E+00
         -2   -1    0    0    0  501 -0.00000000000E+00  0.00000000000E+00  0.23315922470E+02  0.23315922615E+02  0.26000000000E-02 0. -1.
          2   -1    0    0  501    0  0.00000000000E+00 -0.00000000000E+00 -0.10681400194E+02  0.10681400510E+02  0.26000000000E-02 0.  1.
        -13    1    1    2    0    0 -0.14132704466E+02  0.63183014600E+01  0.30180885584E+01  0.15772580635E+02  0.10570000000E+00 0.  1.
         13    1    1    2    0    0  0.14132704466E+02 -0.63183014600E+01  0.96164337177E+01  0.18224742489E+02  0.10570000000E+00 0. -1.
<mgrwt>
<rscale>  0 0.31562427E+02</rscale>
<asrwt>0</asrwt>
<pdfrwt beam="2">  1        2 0.16432924E-02 0.31562427E+02</pdfrwt>
<pdfrwt beam="1">  1       -2 0.35870650E-02 0.31562427E+02</pdfrwt>
<totfact> 0.13323146E+06</totfact>
</mgrwt>
</event>
<event>
 4    1  0.3704929E-001  0.3137855E+02  0.7818608E-02  0.1583332E+00
         -2   -1    0    0    0  501 -0.00000000000E+00  0.00000000000E+00  0.71071797782E+01  0.71071802538E+01  0.26000000000E-02 0. -1.
          2   -1    0    0  501    0  0.00000000000E+00 -0.00000000000E+00 -0.34634469054E+02  0.34634469151E+02  0.26000000000E-02 0.  1.
        -13    1    1    2    0    0  0.12549943173E+02  0.82844700096E+01 -0.78132421612E+01  0.16946723652E+02  0.10570000000E+00 0. -1.
         13    1    1    2    0    0 -0.12549943173E+02 -0.82844700096E+01 -0.19714047114E+02  0.24794925753E+02  0.10570000000E+00 0.  1.
<mgrwt>
<rscale>  0 0.31378554E+02</rscale>
<asrwt>0</asrwt>
<pdfrwt beam="2">  1        2 0.53283798E-02 0.31378554E+02</pdfrwt>
<pdfrwt beam="1">  1       -2 0.10934123E-02 0.31378554E+02</pdfrwt>
<totfact> 0.15455562E+06</totfact>
</mgrwt>
</event>
<event>
 4    1  0.3704929E-001  0.4030735E+02  0.7818608E-02  0.1505962E+00
          2   -1    0    0  501    0  0.00000000000E+00  0.00000000000E+00  0.28728684668E+01  0.28728696433E+01  0.26000000000E-02 0. -1.
         -2   -1    0    0    0  501 -0.00000000000E+00 -0.00000000000E+00 -0.14138149727E+03  0.14138149730E+03  0.26000000000E-02 0.  1.
        -13    1    1    2    0    0 -0.18700654931E+01  0.17688848499E+02 -0.35346268039E+02  0.39569714971E+02  0.10570000000E+00 0. -1.
         13    1    1    2    0    0  0.18700654931E+01 -0.17688848499E+02 -0.10316236077E+03  0.10468465197E+03  0.10570000000E+00 0.  1.
<mgrwt>
<rscale>  0 0.40307346E+02</rscale>
<asrwt>0</asrwt>
<pdfrwt beam="1">  1        2 0.44197997E-03 0.40307346E+02</pdfrwt>
<pdfrwt beam="2">  1       -2 0.21750994E-01 0.40307346E+02</pdfrwt>
<totfact> 0.53957415E+05</totfact>
</mgrwt>
</event>
<event>
 4    1  0.3704929E-001  0.2673476E+02  0.7818608E-02  0.1637266E+00
          2   -1    0    0  501    0  0.00000000000E+00  0.00000000000E+00  0.86487569361E+02  0.86487569400E+02  0.26000000000E-02 0.  1.
         -2   -1    0    0    0  501 -0.00000000000E+00 -0.00000000000E+00 -0.20660400382E+01  0.20660416742E+01  0.26000000000E-02 0. -1.
        -13    1    1    2    0    0  0.74595153715E+01  0.10947444258E+02  0.36299648148E+02  0.38641513085E+02  0.10570000000E+00 0.  1.
         13    1    1    2    0    0 -0.74595153715E+01 -0.10947444258E+02  0.48121881175E+02  0.49912097989E+02  0.10570000000E+00 0. -1.
<mgrwt>
<rscale>  0 0.26734761E+02</rscale>
<asrwt>0</asrwt>
<pdfrwt beam="1">  1        2 0.13305780E-01 0.26734761E+02</pdfrwt>
<pdfrwt beam="2">  1       -2 0.31785244E-03 0.26734761E+02</pdfrwt>
<totfact> 0.26465094E+06</totfact>
</mgrwt>
</event>
<event>
 4    1  0.3704929E-001  0.2241574E+02  0.7818608E-02  0.1701160E+00
         -2   -1    0    0    0  501 -0.00000000000E+00  0.00000000000E+00  0.13881503058E+01  0.13881527407E+01  0.26000000000E-02 0.  1.
          2   -1    0    0  501    0  0.00000000000E+00 -0.00000000000E+00 -0.90491839205E+02  0.90491839242E+02  0.26000000000E-02 0. -1.
        -13    1    1    2    0    0 -0.82313354338E+01  0.75926445031E+01 -0.42709243146E+02  0.44153071877E+02  0.10570000000E+00 0.  1.
         13    1    1    2    0    0  0.82313354338E+01 -0.75926445031E+01 -0.46394445753E+02  0.47726920106E+02  0.10570000000E+00 0. -1.
<mgrwt>
<rscale>  0 0.22415743E+02</rscale>
<asrwt>0</asrwt>
<pdfrwt beam="2">  1        2 0.13921817E-01 0.22415743E+02</pdfrwt>
<pdfrwt beam="1">  1       -2 0.21356185E-03 0.22415743E+02</pdfrwt>
<totfact> 0.40007613E+06</totfact>
</mgrwt>
</event>
<event>
 4    1  0.3704929E-001  0.2481333E+02  0.7818608E-02  0.1663698E+00
          2   -1    0    0  501    0  0.00000000000E+00  0.00000000000E+00  0.12475975652E+02  0.12475975923E+02  0.26000000000E-02 0.  1.
         -2   -1    0    0    0  501 -0.00000000000E+00 -0.00000000000E+00 -0.12337736211E+02  0.12337736485E+02  0.26000000000E-02 0. -1.
        -13    1    1    2    0    0 -0.23981085673E+01 -0.11347885781E+02  0.44724475790E+01  0.12431387542E+02  0.10570000000E+00 0.  1.
         13    1    1    2    0    0  0.23981085673E+01  0.11347885781E+02 -0.43342081378E+01  0.12382324865E+02  0.10570000000E+00 0. -1.
<mgrwt>
<rscale>  0 0.24813327E+02</rscale>
<asrwt>0</asrwt>
<pdfrwt beam="1">  1        2 0.19193809E-02 0.24813327E+02</pdfrwt>
<pdfrwt beam="2">  1       -2 0.18981133E-02 0.24813327E+02</pdfrwt>
<totfact> 0.24306050E+06</totfact>
</mgrwt>
</event>
<event>
 4    1  0.3704929E-001  0.2105619E+02  0.7818608E-02  0.1725105E+00
         -2   -1    0    0    0  501 -0.00000000000E+00  0.00000000000E+00  0.14646649512E+02  0.14646649743E+02  0.26000000000E-02 0. -1.
          2   -1    0    0  501    0  0.00000000000E+00 -0.00000000000E+00 -0.75676541432E+01  0.75676545898E+01  0.26000000000E-02 0.  1.
        -13    1    1    2    0    0  0.89160480171E+01  0.49999329239E+01  0.61947432159E+01  0.11953294838E+02  0.10570000000E+00 0. -1.
         13    1    1    2    0    0 -0.89160480171E+01 -0.49999329239E+01  0.88425215308E+00  0.10261009495E+02  0.10570000000E+00 0.  1.
<mgrwt>
<rscale>  0 0.21056190E+02</rscale>
<asrwt>0</asrwt>
<pdfrwt beam="2">  1        2 0.11642545E-02 0.21056190E+02</pdfrwt>
<pdfrwt beam="1">  1       -2 0.22533307E-02 0.21056190E+02</pdfrwt>
<totfact> 0.34316183E+06</totfact>
</mgrwt>
</event>
<event>
 4    1  0.3704929E-001  0.2365855E+02  0.7818608E-02  0.1681052E+00
          2   -1    0    0  501    0  0.00000000000E+00  0.00000000000E+00  0.78791472249E+01  0.78791476539E+01  0.26000000000E-02 0.  1.
         -2   -1    0    0    0  501 -0.00000000000E+00 -0.00000000000E+00 -0.17759752319E+02  0.17759752509E+02  0.26000000000E-02 0. -1.
        -13    1    1    2    0    0  0.11456977023E+02 -0.16569812826E+01 -0.75754301112E+01  0.13834963800E+02  0.10570000000E+00 0. -1.
         13    1    1    2    0    0 -0.11456977023E+02  0.16569812826E+01 -0.23051749830E+01  0.11803936364E+02  0.10570000000E+00 0.  1.
<mgrwt>
<rscale>  0 0.23658547E+02</rscale>
<asrwt>0</asrwt>
<pdfrwt beam="1">  1        2 0.12121766E-02 0.23658547E+02</pdfrwt>
<pdfrwt beam="2">  1       -2 0.27322696E-02 0.23658547E+02</pdfrwt>
<totfact> 0.26161504E+06</totfact>
</mgrwt>
</event>
<event>
 4    1  0.3704929E-001  0.2070239E+02  0.7818608E-02  0.1731710E+00
          2   -1    0    0  501    0  0.00000000000E+00  0.00000000000E+00  0.12721010477E+02  0.12721010743E+02  0.26000000000E-02 0. -1.
         -2   -1    0    0    0  501 -0.00000000000E+00 -0.00000000000E+00 -0.84228590083E+01  0.84228594096E+01  0.26000000000E-02 0.  1.
        -13    1    1    2    0    0  0.95168803466E+01  0.40622851966E+01  0.18928479353E+01  0.10519848780E+02  0.10570000000E+00 0.  1.
         13    1    1    2    0    0 -0.95168803466E+01 -0.40622851966E+01  0.24053035335E+01  0.10624021373E+02  0.10570000000E+00 0. -1.
<mgrwt>
<rscale>  0 0.20702395E+02</rscale>
<asrwt>0</asrwt>
<pdfrwt beam="1">  1        2 0.19570786E-02 0.20702395E+02</pdfrwt>
<pdfrwt beam="2">  1       -2 0.12958245E-02 0.20702395E+02</pdfrwt>
<totfact> 0.37131025E+06</totfact>
</mgrwt>
</event>
<event>
 4    1  0.3704929E-001  0.4095004E+02  0.7818608E-02  0.1501334E+00
         -2   -1    0    0    0  501 -0.00000000000E+00  0.00000000000E+00  0.45681342652E+01  0.45681350051E+01  0.26000000000E-02 0. -1.
          2   -1    0    0  501    0  0.00000000000E+00 -0.00000000000E+00 -0.91771928798E+02  0.91771928835E+02  0.26000000000E-02 0.  1.
        -13    1    1    2    0    0  0.19613919453E+02  0.69162001222E+00 -0.57326224910E+02  0.60592832988E+02  0.10570000000E+00 0.  1.
         13    1    1    2    0    0 -0.19613919453E+02 -0.69162001222E+00 -0.29877569623E+02  0.35747230852E+02  0.10570000000E+00 0. -1.
<mgrwt>
<rscale>  0 0.40950044E+02</rscale>
<asrwt>0</asrwt>
<pdfrwt beam="2">  1        2 0.14118757E-01 0.40950044E+02</pdfrwt>
<pdfrwt beam="1">  1       -2 0.70279001E-03 0.40950044E+02</pdfrwt>
<totfact> 0.96552762E+05</totfact>
</mgrwt>
</event>
<event>
 4    1  0.3704929E-001  0.3185819E+02  0.7818608E-02  0.1578413E+00
          2   -1    0    0  501    0  0.00000000000E+00  0.00000000000E+00  0.57299101588E+01  0.57299107487E+01  0.26000000000E-02 0. -1.
         -2   -1    0    0    0  501 -0.00000000000E+00 -0.00000000000E+00 -0.44282719574E+02  0.44282719650E+02  0.26000000000E-02 0.  1.
        -13    1    1    2    0    0  0.62434501030E+01 -0.89721404557E+01 -0.10874602751E+01  0.10985158892E+02  0.10570000000E+00 0. -1.
         13    1    1    2    0    0 -0.62434501030E+01  0.89721404557E+01 -0.37465349140E+02  0.39027471507E+02  0.10570000000E+00 0.  1.
<mgrwt>
<rscale>  0 0.31858187E+02</rscale>
<asrwt>0</asrwt>
<pdfrwt beam="1">  1        2 0.88152472E-03 0.31858187E+02</pdfrwt>
<pdfrwt beam="2">  1       -2 0.68127259E-02 0.31858187E+02</pdfrwt>
<totfact> 0.12055489E+06</totfact>
</mgrwt>
</event>
<event>
 4    1  0.3704929E-001  0.3170359E+02  0.7818608E-02  0.1579987E+00
         -2   -1    0    0    0  501 -0.00000000000E+00  0.00000000000E+00  0.66210920997E+02  0.66210921048E+02  0.26000000000E-02 0. -1.
          2   -1    0    0  501    0  0.00000000000E+00 -0.00000000000E+00 -0.37951336565E+01  0.37951345471E+01  0.26000000000E-02 0.  1.
        -13    1    1    2    0    0  0.11877878842E+02  0.89153556812E+01  0.43442796929E+02  0.45911385845E+02  0.10570000000E+00 0. -1.
         13    1    1    2    0    0 -0.11877878842E+02 -0.89153556812E+01  0.18972990412E+02  0.24094669751E+02  0.10570000000E+00 0.  1.
<mgrwt>
<rscale>  0 0.31703585E+02</rscale>
<asrwt>0</asrwt>
<pdfrwt beam="2">  1        2 0.58386683E-03 0.31703585E+02</pdfrwt>
<pdfrwt beam="1">  1       -2 0.10186295E-01 0.31703585E+02</pdfrwt>
<totfact> 0.11436217E+06</totfact>
</mgrwt>
</event>
<event>
 4    1  0.3704929E-001  0.2118276E+02  0.7818608E-02  0.1722781E+00
         -2   -1    0    0    0  501 -0.00000000000E+00  0.00000000000E+00  0.31922268731E+02  0.31922268837E+02  0.26000000000E-02 0. -1.
          2   -1    0    0  501    0  0.00000000000E+00 -0.00000000000E+00 -0.35140781098E+01  0.35140790717E+01  0.26000000000E-02 0.  1.
        -13    1    1    2    0    0 -0.12094740254E+01 -0.10387464101E+02  0.11402845682E+02  0.15472501414E+02  0.10570000000E+00 0.  1.
         13    1    1    2    0    0  0.12094740254E+01  0.10387464101E+02  0.17005344939E+02  0.19963846494E+02  0.10570000000E+00 0. -1.
<mgrwt>
<rscale>  0 0.21182763E+02</rscale>
<asrwt>0</asrwt>
<pdfrwt beam="2">  1        2 0.54062747E-03 0.21182763E+02</pdfrwt>
<pdfrwt beam="1">  1       -2 0.49111184E-02 0.21182763E+02</pdfrwt>
<totfact> 0.31590153E+06</totfact>
</mgrwt>
</event>
<event>
 4    1  0.3704929E-001  0.1201171E+03  0.7818608E-02  0.1242904E+00
          2   -1    0    0  501    0  0.00000000000E+00  0.00000000000E+00  0.91965877187E+02  0.91965877224E+02  0.26000000000E-02 0.  1.
         -2   -1    0    0    0  501 -0.00000000000E+00 -0.00000000000E+00 -0.39221418342E+02  0.39221418428E+02  0.26000000000E-02 0. -1.
        -13    1    1    2    0    0  0.19364148691E+02 -0.51667630540E+02  0.52275262396E+02  0.76008082012E+02  0.10570000000E+00 0. -1.
         13    1    1    2    0    0 -0.19364148691E+02  0.51667630540E+02  0.46919644893E+00  0.55179213640E+02  0.10570000000E+00 0.  1.
<mgrwt>
<rscale>  0 0.12011715E+03</rscale>
<asrwt>0</asrwt>
<pdfrwt beam="1">  1        2 0.14148597E-01 0.12011715E+03</pdfrwt>
<pdfrwt beam="2">  1       -2 0.60340643E-02 0.12011715E+03</pdfrwt>
<totfact> 0.54878769E+04</totfact>
</mgrwt>
</event>
<event>
 4    1  0.3704929E-001  0.3927097E+02  0.7818608E-02  0.1513646E+00
         -2   -1    0    0    0  501 -0.00000000000E+00  0.00000000000E+00  0.66791566911E+01  0.66791571972E+01  0.26000000000E-02 0.  1.
          2   -1    0    0  501    0  0.00000000000E+00 -0.00000000000E+00 -0.57724699345E+02  0.57724699403E+02  0.26000000000E-02 0. -1.
        -13    1    1    2    0    0 -0.87065868344E+01 -0.12973880673E+02 -0.45025161199E+02  0.47659233602E+02  0.10570000000E+00 0. -1.
         13    1    1    2    0    0  0.87065868344E+01  0.12973880673E+02 -0.60203814545E+01  0.16744622999E+02  0.10570000000E+00 0.  1.
<mgrwt>
<rscale>  0 0.39270973E+02</rscale>
<asrwt>0</asrwt>
<pdfrwt beam="2">  1        2 0.88807227E-02 0.39270973E+02</pdfrwt>
<pdfrwt beam="1">  1       -2 0.10275626E-02 0.39270973E+02</pdfrwt>
<totfact> 0.96945927E+05</totfact>
</mgrwt>
</event>
<event>
 4    1  0.3704929E-001  0.2191701E+02  0.7818608E-02  0.1709691E+00
         -2   -1    0    0    0  501 -0.00000000000E+00  0.00000000000E+00  0.41285051553E+02  0.41285051635E+02  0.26000000000E-02 0. -1.
          2   -1    0    0  501    0  0.00000000000E+00 -0.00000000000E+00 -0.29087721479E+01  0.29087733099E+01  0.26000000000E-02 0.  1.
        -13    1    1    2    0    0  0.53650202752E+01  0.93153332257E+01  0.23474525270E+02  0.25819050812E+02  0.10570000000E+00 0.  1.
         13    1    1    2    0    0 -0.53650202752E+01 -0.93153332257E+01  0.14901754135E+02  0.18374774133E+02  0.10570000000E+00 0. -1.
<mgrwt>
<rscale>  0 0.21917010E+02</rscale>
<asrwt>0</asrwt>
<pdfrwt beam="2">  1        2 0.44750350E-03 0.21917010E+02</pdfrwt>
<pdfrwt beam="1">  1       -2 0.63515465E-02 0.21917010E+02</pdfrwt>
<totfact> 0.28435924E+06</totfact>
</mgrwt>
</event>
<event>
 4    1  0.3704929E-001  0.3050989E+02  0.7818608E-02  0.1592520E+00
         -2   -1    0    0    0  501 -0.00000000000E+00  0.00000000000E+00  0.84402954561E+01  0.84402958566E+01  0.26000000000E-02 0.  1.
          2   -1    0    0  501    0  0.00000000000E+00 -0.00000000000E+00 -0.27571699900E+02  0.27571700022E+02  0.26000000000E-02 0. -1.
        -13    1    1    2    0    0 -0.58436182097E+01 -0.96261363354E+01 -0.21711824971E+02  0.24458636319E+02  0.10570000000E+00 0. -1.
         13    1    1    2    0    0  0.58436182097E+01  0.96261363354E+01  0.25804205274E+01  0.11553359560E+02  0.10570000000E+00 0.  1.
<mgrwt>
<rscale>  0 0.30509887E+02</rscale>
<asrwt>0</asrwt>
<pdfrwt beam="2">  1        2 0.42418000E-02 0.30509887E+02</pdfrwt>
<pdfrwt beam="1">  1       -2 0.12985070E-02 0.30509887E+02</pdfrwt>
<totfact> 0.16064181E+06</totfact>
</mgrwt>
</event>
<event>
 4    1  0.3704929E-001  0.2128714E+02  0.7818608E-02  0.1720880E+00
         -2   -1    0    0    0  501 -0.00000000000E+00  0.00000000000E+00  0.10612277387E+03  0.10612277390E+03  0.26000000000E-02 0. -1.
          2   -1    0    0  501    0  0.00000000000E+00 -0.00000000000E+00 -0.10674936123E+01  0.10674967786E+01  0.26000000000E-02 0.  1.
        -13    1    1    2    0    0 -0.97212168731E+01  0.43163725157E+01  0.50635135816E+02  0.51740325480E+02  0.10570000000E+00 0.  1.
         13    1    1    2    0    0  0.97212168731E+01 -0.43163725157E+01  0.54420144443E+02  0.55449945202E+02  0.10570000000E+00 0. -1.
<mgrwt>
<rscale>  0 0.21287137E+02</rscale>
<asrwt>0</asrwt>
<pdfrwt beam="2">  1        2 0.16423001E-03 0.21287137E+02</pdfrwt>
<pdfrwt beam="1">  1       -2 0.16326583E-01 0.21287137E+02</pdfrwt>
<totfact> 0.25548251E+06</totfact>
</mgrwt>
</event>
<event>
 4    1  0.3704929E-001  0.2488715E+02  0.7818608E-02  0.1662628E+00
          2   -1    0    0  501    0  0.00000000000E+00  0.00000000000E+00  0.47879879109E+02  0.47879879180E+02  0.26000000000E-02 0.  1.
         -2   -1    0    0    0  501 -0.00000000000E+00 -0.00000000000E+00 -0.32339790194E+01  0.32339800645E+01  0.26000000000E-02 0. -1.
        -13    1    1    2    0    0 -0.72018925683E+01 -0.10031821277E+02  0.25455747997E+02  0.28293302623E+02  0.10570000000E+00 0.  1.
         13    1    1    2    0    0  0.72018925683E+01  0.10031821277E+02  0.19190152092E+02  0.22820556622E+02  0.10570000000E+00 0. -1.
<mgrwt>
<rscale>  0 0.24887150E+02</rscale>
<asrwt>0</asrwt>
<pdfrwt beam="1">  1        2 0.73661348E-02 0.24887150E+02</pdfrwt>
<pdfrwt beam="2">  1       -2 0.49753535E-03 0.24887150E+02</pdfrwt>
<totfact> 0.28007521E+06</totfact>
</mgrwt>
</event>
<event>
 4    1  0.3704929E-001  0.2292142E+02  0.7818608E-02  0.1692787E+00
          2   -1    0    0  501    0  0.00000000000E+00  0.00000000000E+00  0.36913296012E+02  0.36913296103E+02  0.26000000000E-02 0.  1.
         -2   -1    0    0    0  501 -0.00000000000E+00 -0.00000000000E+00 -0.35582805224E+01  0.35582814723E+01  0.26000000000E-02 0. -1.
        -13    1    1    2    0    0 -0.27679397588E+01  0.10103054032E+02  0.24884251124E+02  0.26999450324E+02  0.10570000000E+00 0.  1.
         13    1    1    2    0    0  0.27679397588E+01 -0.10103054032E+02  0.84707643649E+01  0.13472127252E+02  0.10570000000E+00 0. -1.
<mgrwt>
<rscale>  0 0.22921421E+02</rscale>
<asrwt>0</asrwt>
<pdfrwt beam="1">  1        2 0.56789691E-02 0.22921421E+02</pdfrwt>
<pdfrwt beam="2">  1       -2 0.54742782E-03 0.22921421E+02</pdfrwt>
<totfact> 0.32632479E+06</totfact>
</mgrwt>
</event>
<event>
 4    1  0.3704929E-001  0.4043901E+02  0.7818608E-02  0.1505005E+00
         -2   -1    0    0    0  501 -0.00000000000E+00  0.00000000000E+00  0.12625726311E+03  0.12625726314E+03  0.26000000000E-02 0.  1.
          2   -1    0    0  501    0  0.00000000000E+00 -0.00000000000E+00 -0.32380583690E+01  0.32380594129E+01  0.26000000000E-02 0. -1.
        -13    1    1    2    0    0 -0.29197963086E+01  0.19578923959E+02  0.48322832861E+02  0.52220367885E+02  0.10570000000E+00 0. -1.
         13    1    1    2    0    0  0.29197963086E+01 -0.19578923959E+02  0.74696371883E+02  0.77274954667E+02  0.10570000000E+00 0.  1.
<mgrwt>
<rscale>  0 0.40439014E+02</rscale>
<asrwt>0</asrwt>
<pdfrwt beam="2">  1        2 0.49816302E-03 0.40439014E+02</pdfrwt>
<pdfrwt beam="1">  1       -2 0.19424190E-01 0.40439014E+02</pdfrwt>
<totfact> 0.55408922E+05</totfact>
</mgrwt>
</event>
<event>
 4    1  0.3704929E-001  0.2684091E+02  0.7818608E-02  0.1635886E+00
         -2   -1    0    0    0  501 -0.00000000000E+00  0.00000000000E+00  0.57272424521E+02  0.57272424580E+02  0.26000000000E-02 0.  1.
          2   -1    0    0  501    0  0.00000000000E+00 -0.00000000000E+00 -0.31447686603E+01  0.31447697351E+01  0.26000000000E-02 0. -1.
        -13    1    1    2    0    0  0.20128402100E+01  0.12756930388E+02  0.18852814738E+02  0.22852365188E+02  0.10570000000E+00 0. -1.
         13    1    1    2    0    0 -0.20128402100E+01 -0.12756930388E+02  0.35274841122E+02  0.37564829127E+02  0.10570000000E+00 0.  1.
<mgrwt>
<rscale>  0 0.26840906E+02</rscale>
<asrwt>0</asrwt>
<pdfrwt beam="2">  1        2 0.48381067E-03 0.26840906E+02</pdfrwt>
<pdfrwt beam="1">  1       -2 0.88111420E-02 0.26840906E+02</pdfrwt>
<totfact> 0.17205953E+06</totfact>
</mgrwt>
</event>
<event>
 4    1  0.3704929E-001  0.2522351E+02  0.7818608E-02  0.1657812E+00
         -2   -1    0    0    0  501 -0.00000000000E+00  0.00000000000E+00  0.35204736558E+02  0.35204736654E+02  0.26000000000E-02 0.  1.
          2   -1    0    0  501    0  0.00000000000E+00 -0.00000000000E+00 -0.45180365880E+01  0.45180373361E+01  0.26000000000E-02 0. -1.
        -13    1    1    2    0    0 -0.61185941707E+01  0.10069887708E+02  0.22422266178E+02  0.25330002489E+02  0.10570000000E+00 0.  1.
         13    1    1    2    0    0  0.61185941707E+01 -0.10069887708E+02  0.82644337921E+01  0.14392771501E+02  0.10570000000E+00 0. -1.
<mgrwt>
<rscale>  0 0.25223505E+02</rscale>
<asrwt>0</asrwt>
<pdfrwt beam="2">  1        2 0.69508264E-03 0.25223505E+02</pdfrwt>
<pdfrwt beam="1">  1       -2 0.54161132E-02 0.25223505E+02</pdfrwt>
<totfact> 0.21179129E+06</totfact>
</mgrwt>
</event>
<event>
 4    1  0.3704929E-001  0.3207395E+02  0.7818608E-02  0.1576234E+00
          2   -1    0    0  501    0  0.00000000000E+00  0.00000000000E+00  0.10713895741E+02  0.10713896057E+02  0.26000000000E-02 0.  1.
         -2   -1    0    0    0  501 -0.00000000000E+00 -0.00000000000E+00 -0.24004760780E+02  0.24004760921E+02  0.26000000000E-02 0. -1.
        -13    1    1    2    0    0 -0.13617503782E+00 -0.15233702156E+02 -0.12067353502E+02  0.19434927786E+02  0.10570000000E+00 0. -1.
         13    1    1    2    0    0  0.13617503782E+00  0.15233702156E+02 -0.12235115373E+01  0.15283729192E+02  0.10570000000E+00 0.  1.
<mgrwt>
<rscale>  0 0.32073947E+02</rscale>
<asrwt>0</asrwt>
<pdfrwt beam="1">  1        2 0.16482917E-02 0.32073947E+02</pdfrwt>
<pdfrwt beam="2">  1       -2 0.36930401E-02 0.32073947E+02</pdfrwt>
<totfact> 0.12801024E+06</totfact>
</mgrwt>
</event>
<event>
 4    1  0.3704929E-001  0.2988352E+02  0.7818608E-02  0.1599380E+00
         -2   -1    0    0    0  501 -0.00000000000E+00  0.00000000000E+00  0.20882321374E+01  0.20882337560E+01  0.26000000000E-02 0.  1.
          2   -1    0    0  501    0  0.00000000000E+00 -0.00000000000E+00 -0.10691150136E+03  0.10691150140E+03  0.26000000000E-02 0. -1.
        -13    1    1    2    0    0 -0.83501939241E+01  0.11716787358E+02 -0.67108837697E+02  0.68633928301E+02  0.10570000000E+00 0. -1.
         13    1    1    2    0    0  0.83501939241E+01 -0.11716787358E+02 -0.37714431530E+02  0.40365806850E+02  0.10570000000E+00 0.  1.
<mgrwt>
<rscale>  0 0.29883515E+02</rscale>
<asrwt>0</asrwt>
<pdfrwt beam="2">  1        2 0.16447919E-01 0.29883515E+02</pdfrwt>
<pdfrwt beam="1">  1       -2 0.32126669E-03 0.29883515E+02</pdfrwt>
<totfact> 0.21434562E+06</totfact>
</mgrwt>
</event>
<event>
 4    1  0.3704929E-001  0.4054336E+02  0.7818608E-02  0.1504251E+00
         -2   -1    0    0    0  501 -0.00000000000E+00  0.00000000000E+00  0.17169285270E+02  0.17169285467E+02  0.26000000000E-02 0. -1.
          2   -1    0    0  501    0  0.00000000000E+00 -0.00000000000E+00 -0.23934660461E+02  0.23934660602E+02  0.26000000000E-02 0.  1.
        -13    1    1    2    0    0 -0.10832925734E+02  0.16340423508E+02 -0.86083848578E+01  0.21412080299E+02  0.10570000000E+00 0.  1.
         13    1    1    2    0    0  0.10832925734E+02 -0.16340423508E+02  0.18430096666E+01  0.19691865770E+02  0.10570000000E+00 0. -1.
<mgrwt>
<rscale>  0 0.40543361E+02</rscale>
<asrwt>0</asrwt>
<pdfrwt beam="2">  1        2 0.36822555E-02 0.40543361E+02</pdfrwt>
<pdfrwt beam="1">  1       -2 0.26414285E-02 0.40543361E+02</pdfrwt>
<totfact> 0.77998681E+05</totfact>
</mgrwt>
</event>
<event>
 4    1  0.3704929E-001  0.3897117E+02  0.7818608E-02  0.1515922E+00
         -2   -1    0    0    0  501 -0.00000000000E+00  0.00000000000E+00  0.96108188511E+01  0.96108192028E+01  0.26000000000E-02 0. -1.
          2   -1    0    0  501    0  0.00000000000E+00 -0.00000000000E+00 -0.39506321997E+02  0.39506322083E+02  0.26000000000E-02 0.  1.
        -13    1    1    2    0    0 -0.15132836927E+00 -0.15319746295E+02 -0.30122196007E+02  0.33794605954E+02  0.10570000000E+00 0.  1.
         13    1    1    2    0    0  0.15132836927E+00  0.15319746295E+02  0.22669286135E+00  0.15322535331E+02  0.10570000000E+00 0. -1.
<mgrwt>
<rscale>  0 0.38971175E+02</rscale>
<asrwt>0</asrwt>
<pdfrwt beam="2">  1        2 0.60778956E-02 0.38971175E+02</pdfrwt>
<pdfrwt beam="1">  1       -2 0.14785876E-02 0.38971175E+02</pdfrwt>
<totfact> 0.92583567E+05</totfact>
</mgrwt>
</event>
<event>
 4    1  0.3704929E-001  0.7650570E+02  0.7818608E-02  0.1339271E+00
         -2   -1    0    0    0  501 -0.00000000000E+00  0.00000000000E+00  0.20876223568E+02  0.20876223730E+02  0.26000000000E-02 0.  1.
          2   -1    0    0  501    0  0.00000000000E+00 -0.00000000000E+00 -0.70093169511E+02  0.70093169559E+02  0.26000000000E-02 0. -1.
        -13    1    1    2    0    0  0.12219426567E+02 -0.14942775890E+02 -0.63877295830E+02  0.66730210789E+02  0.10570000000E+00 0. -1.
         13    1    1    2    0    0 -0.12219426567E+02  0.14942775890E+02  0.14660349887E+02  0.24239182500E+02  0.10570000000E+00 0.  1.
<mgrwt>
<rscale>  0 0.76505704E+02</rscale>
<asrwt>0</asrwt>
<pdfrwt beam="2">  1        2 0.10783564E-01 0.76505704E+02</pdfrwt>
<pdfrwt beam="1">  1       -2 0.32117267E-02 0.76505704E+02</pdfrwt>
<totfact> 0.17947080E+05</totfact>
</mgrwt>
</event>
<event>
 4    1  0.3704929E-001  0.2919665E+02  0.7818608E-02  0.1607142E+00
         -2   -1    0    0    0  501 -0.00000000000E+00  0.00000000000E+00  0.23892102415E+01  0.23892116562E+01  0.26000000000E-02 0. -1.
          2   -1    0    0  501    0  0.00000000000E+00 -0.00000000000E+00 -0.89197292077E+02  0.89197292115E+02  0.26000000000E-02 0.  1.
        -13    1    1    2    0    0 -0.84256893808E+01 -0.98794549347E+01 -0.22477452100E+02  0.25958484100E+02  0.10570000000E+00 0. -1.
         13    1    1    2    0    0  0.84256893808E+01  0.98794549347E+01 -0.64330629735E+02  0.65628019671E+02  0.10570000000E+00 0.  1.
<mgrwt>
<rscale>  0 0.29196654E+02</rscale>
<asrwt>0</asrwt>
<pdfrwt beam="2">  1        2 0.13722658E-01 0.29196654E+02</pdfrwt>
<pdfrwt beam="1">  1       -2 0.36757099E-03 0.29196654E+02</pdfrwt>
<totfact> 0.21689239E+06</totfact>
</mgrwt>
</event>
<event>
 4    1  0.3704929E-001  0.2385946E+02  0.7818608E-02  0.1677946E+00
          2   -1    0    0  501    0  0.00000000000E+00  0.00000000000E+00  0.30133789471E+01  0.30133800687E+01  0.26000000000E-02 0. -1.
         -2   -1    0    0    0  501 -0.00000000000E+00 -0.00000000000E+00 -0.47228851450E+02  0.47228851521E+02  0.26000000000E-02 0.  1.
        -13    1    1    2    0    0  0.10093130027E+02 -0.15520646739E-01 -0.35498062819E+02  0.36905218480E+02  0.10570000000E+00 0.  1.
         13    1    1    2    0    0 -0.10093130027E+02  0.15520646739E-01 -0.87174096837E+01  0.13337013111E+02  0.10570000000E+00 0. -1.
<mgrwt>
<rscale>  0 0.23859460E+02</rscale>
<asrwt>0</asrwt>
<pdfrwt beam="1">  1        2 0.46359689E-03 0.23859460E+02</pdfrwt>
<pdfrwt beam="2">  1       -2 0.72659767E-02 0.23859460E+02</pdfrwt>
<totfact> 0.23116167E+06</totfact>
</mgrwt>
</event>
<event>
 4    1  0.3704929E-001  0.3388702E+02  0.7818608E-02  0.1558712E+00
         -2   -1    0    0    0  501 -0.00000000000E+00  0.00000000000E+00  0.13664474085E+02  0.13664474333E+02  0.26000000000E-02 0.  1.
          2   -1    0    0  501    0  0.00000000000E+00 -0.00000000000E+00 -0.21009406977E+02  0.21009407138E+02  0.26000000000E-02 0. -1.
        -13    1    1    2    0    0 -0.54287213499E+01  0.13120850509E+02  0.57857416747E+01  0.15333418171E+02  0.10570000000E+00 0.  1.
         13    1    1    2    0    0  0.54287213499E+01 -0.13120850509E+02 -0.13130674567E+02  0.19340463300E+02  0.10570000000E+00 0. -1.
<mgrwt>
<rscale>  0 0.33887018E+02</rscale>
<asrwt>0</asrwt>
<pdfrwt beam="2">  1        2 0.32322165E-02 0.33887018E+02</pdfrwt>
<pdfrwt beam="1">  1       -2 0.21022268E-02 0.33887018E+02</pdfrwt>
<totfact> 0.12035085E+06</totfact>
</mgrwt>
</event>
<event>
 4    1  0.3704929E-001  0.2969707E+02  0.7818608E-02  0.1601462E+00
          2   -1    0    0  501    0  0.00000000000E+00  0.00000000000E+00  0.13074778588E+02  0.13074778846E+02  0.26000000000E-02 0. -1.
         -2   -1    0    0    0  501 -0.00000000000E+00 -0.00000000000E+00 -0.16862920189E+02  0.16862920390E+02  0.26000000000E-02 0.  1.
        -13    1    1    2    0    0  0.11400276342E+01 -0.10285731193E+02 -0.12627969128E+02  0.16327054418E+02  0.10570000000E+00 0.  1.
         13    1    1    2    0    0 -0.11400276342E+01  0.10285731193E+02  0.88398275265E+01  0.13610644818E+02  0.10570000000E+00 0. -1.
<mgrwt>
<rscale>  0 0.29697068E+02</rscale>
<asrwt>0</asrwt>
<pdfrwt beam="1">  1        2 0.20115044E-02 0.29697068E+02</pdfrwt>
<pdfrwt beam="2">  1       -2 0.25942955E-02 0.29697068E+02</pdfrwt>
<totfact> 0.15827881E+06</totfact>
</mgrwt>
</event>
<event>
 4    1  0.3704929E-001  0.6113169E+02  0.7818608E-02  0.1393143E+00
         -2   -1    0    0    0  501 -0.00000000000E+00  0.00000000000E+00  0.32994912979E+02  0.32994913081E+02  0.26000000000E-02 0. -1.
          2   -1    0    0  501    0  0.00000000000E+00 -0.00000000000E+00 -0.28315600327E+02  0.28315600446E+02  0.26000000000E-02 0.  1.
        -13    1    1    2    0    0  0.30264881411E+01  0.13530814115E+02 -0.24980017878E+02  0.28570177227E+02  0.10570000000E+00 0.  1.
         13    1    1    2    0    0 -0.30264881411E+01 -0.13530814115E+02  0.29659330530E+02  0.32740336300E+02  0.10570000000E+00 0. -1.
<mgrwt>
<rscale>  0 0.61131687E+02</rscale>
<asrwt>0</asrwt>
<pdfrwt beam="2">  1        2 0.43562463E-02 0.61131687E+02</pdfrwt>
<pdfrwt beam="1">  1       -2 0.50761404E-02 0.61131687E+02</pdfrwt>
<totfact> 0.27175991E+05</totfact>
</mgrwt>
</event>
<event>
 4    1  0.3704929E-001  0.3957398E+02  0.7818608E-02  0.1511370E+00
         -2   -1    0    0    0  501 -0.00000000000E+00  0.00000000000E+00  0.68286072725E+02  0.68286072775E+02  0.26000000000E-02 0. -1.
          2   -1    0    0  501    0  0.00000000000E+00 -0.00000000000E+00 -0.57335989064E+01  0.57335994959E+01  0.26000000000E-02 0.  1.
        -13    1    1    2    0    0  0.12356083497E+02 -0.14569133005E+02  0.40919545924E+02  0.45159194491E+02  0.10570000000E+00 0. -1.
         13    1    1    2    0    0 -0.12356083497E+02  0.14569133005E+02  0.21632927895E+02  0.28860477780E+02  0.10570000000E+00 0.  1.
<mgrwt>
<rscale>  0 0.39573980E+02</rscale>
<asrwt>0</asrwt>
<pdfrwt beam="2">  1        2 0.88209220E-03 0.39573980E+02</pdfrwt>
<pdfrwt beam="1">  1       -2 0.10505550E-01 0.39573980E+02</pdfrwt>
<totfact> 0.67448824E+05</totfact>
</mgrwt>
</event>
<event>
 4    1  0.3704929E-001  0.2813291E+02  0.7818608E-02  0.1619694E+00
         -2   -1    0    0    0  501 -0.00000000000E+00  0.00000000000E+00  0.38153239045E+01  0.38153247904E+01  0.26000000000E-02 0. -1.
          2   -1    0    0  501    0  0.00000000000E+00 -0.00000000000E+00 -0.51860621321E+02  0.51860621387E+02  0.26000000000E-02 0.  1.
        -13    1    1    2    0    0  0.11398742618E+02  0.62781818454E+01 -0.13456202660E+02  0.18719707879E+02  0.10570000000E+00 0. -1.
         13    1    1    2    0    0 -0.11398742618E+02 -0.62781818454E+01 -0.34589094757E+02  0.36956238298E+02  0.10570000000E+00 0.  1.
<mgrwt>
<rscale>  0 0.28132906E+02</rscale>
<asrwt>0</asrwt>
<pdfrwt beam="2">  1        2 0.79785567E-02 0.28132906E+02</pdfrwt>
<pdfrwt beam="1">  1       -2 0.58697302E-03 0.28132906E+02</pdfrwt>
<totfact> 0.21300604E+06</totfact>
</mgrwt>
</event>
<event>
 4    1  0.3704929E-001  0.2134967E+02  0.7818608E-02  0.1719748E+00
         -2   -1    0    0    0  501 -0.00000000000E+00  0.00000000000E+00  0.31828155092E+01  0.31828165712E+01  0.26000000000E-02 0.  1.
          2   -1    0    0  501    0  0.00000000000E+00 -0.00000000000E+00 -0.35802272587E+02  0.35802272681E+02  0.26000000000E-02 0. -1.
        -13    1    1    2    0    0 -0.74643695547E+01  0.75798650779E+01 -0.14707696025E+02  0.18152098013E+02  0.10570000000E+00 0.  1.
         13    1    1    2    0    0  0.74643695547E+01 -0.75798650779E+01 -0.17911761053E+02  0.20832991239E+02  0.10570000000E+00 0. -1.
<mgrwt>
<rscale>  0 0.21349665E+02</rscale>
<asrwt>0</asrwt>
<pdfrwt beam="2">  1        2 0.55080417E-02 0.21349665E+02</pdfrwt>
<pdfrwt beam="1">  1       -2 0.48966404E-03 0.21349665E+02</pdfrwt>
<totfact> 0.38215979E+06</totfact>
</mgrwt>
</event>
<event>
 4    1  0.3704929E-001  0.2283811E+02  0.7818608E-02  0.1694148E+00
          2   -1    0    0  501    0  0.00000000000E+00  0.00000000000E+00  0.12166718614E+02  0.12166718891E+02  0.26000000000E-02 0. -1.
         -2   -1    0    0    0  501 -0.00000000000E+00 -0.00000000000E+00 -0.10717338043E+02  0.10717338358E+02  0.26000000000E-02 0.  1.
        -13    1    1    2    0    0 -0.92185594623E+01  0.60782110356E+01  0.36386643066E+01  0.11626587564E+02  0.10570000000E+00 0. -1.
         13    1    1    2    0    0  0.92185594623E+01 -0.60782110356E+01 -0.21892837357E+01  0.11257469685E+02  0.10570000000E+00 0.  1.
<mgrwt>
<rscale>  0 0.22838112E+02</rscale>
<asrwt>0</asrwt>
<pdfrwt beam="1">  1        2 0.18718029E-02 0.22838112E+02</pdfrwt>
<pdfrwt beam="2">  1       -2 0.16488213E-02 0.22838112E+02</pdfrwt>
<totfact> 0.29481855E+06</totfact>
</mgrwt>
</event>
<event>
 4    1  0.3704929E-001  0.4116645E+02  0.7818608E-02  0.1499799E+00
         -2   -1    0    0    0  501 -0.00000000000E+00  0.00000000000E+00  0.84958562345E+01  0.84958566323E+01  0.26000000000E-02 0. -1.
          2   -1    0    0  501    0  0.00000000000E+00 -0.00000000000E+00 -0.49867744207E+02  0.49867744275E+02  0.26000000000E-02 0.  1.
        -13    1    1    2    0    0 -0.13845129865E+01  0.19515214229E+02 -0.11619283404E+02  0.22754766137E+02  0.10570000000E+00 0.  1.
         13    1    1    2    0    0  0.13845129865E+01 -0.19515214229E+02 -0.29752604569E+02  0.35608834771E+02  0.10570000000E+00 0. -1.
<mgrwt>
<rscale>  0 0.41166452E+02</rscale>
<asrwt>0</asrwt>
<pdfrwt beam="2">  1        2 0.76719605E-02 0.41166452E+02</pdfrwt>
<pdfrwt beam="1">  1       -2 0.13070549E-02 0.41166452E+02</pdfrwt>
<totfact> 0.83948227E+05</totfact>
</mgrwt>
</event>
<event>
 4    1  0.3704929E-001  0.2437188E+02  0.7818608E-02  0.1670191E+00
          2   -1    0    0  501    0  0.00000000000E+00  0.00000000000E+00  0.52476223256E+01  0.52476229697E+01  0.26000000000E-02 0. -1.
         -2   -1    0    0    0  501 -0.00000000000E+00 -0.00000000000E+00 -0.28297983045E+02  0.28297983165E+02  0.26000000000E-02 0.  1.
        -13    1    1    2    0    0  0.87207164391E+01  0.54042719413E+01 -0.24754886887E+01  0.10554443006E+02  0.10570000000E+00 0. -1.
         13    1    1    2    0    0 -0.87207164391E+01 -0.54042719413E+01 -0.20574872031E+02  0.22991163129E+02  0.10570000000E+00 0.  1.
<mgrwt>
<rscale>  0 0.24371881E+02</rscale>
<asrwt>0</asrwt>
<pdfrwt beam="1">  1        2 0.80732658E-03 0.24371881E+02</pdfrwt>
<pdfrwt beam="2">  1       -2 0.43535358E-02 0.24371881E+02</pdfrwt>
<totfact> 0.23437117E+06</totfact>
</mgrwt>
</event>
<event>
 4    1  0.3704929E-001  0.3185039E+02  0.7818608E-02  0.1578492E+00
          2   -1    0    0  501    0  0.00000000000E+00  0.00000000000E+00  0.17311591675E+02  0.17311591870E+02  0.26000000000E-02 0.  1.
         -2   -1    0    0    0  501 -0.00000000000E+00 -0.00000000000E+00 -0.14649825790E+02  0.14649826020E+02  0.26000000000E-02 0. -1.
        -13    1    1    2    0    0 -0.54474594720E+01  0.12459039173E+02 -0.69864459147E+01  0.15288036853E+02  0.10570000000E+00 0. -1.
         13    1    1    2    0    0  0.54474594720E+01 -0.12459039173E+02  0.96482117997E+01  0.16673381038E+02  0.10570000000E+00 0.  1.
<mgrwt>
<rscale>  0 0.31850388E+02</rscale>
<asrwt>0</asrwt>
<pdfrwt beam="1">  1        2 0.26633218E-02 0.31850388E+02</pdfrwt>
<pdfrwt beam="2">  1       -2 0.22538194E-02 0.31850388E+02</pdfrwt>
<totfact> 0.13721895E+06</totfact>
</mgrwt>
</event>
<event>
 4    1  0.3704929E-001  0.3071175E+02  0.7818608E-02  0.1590352E+00
         -2   -1    0    0    0  501 -0.00000000000E+00  0.00000000000E+00  0.15988515905E+02  0.15988516116E+02  0.26000000000E-02 0. -1.
          2   -1    0    0  501    0  0.00000000000E+00 -0.00000000000E+00 -0.14748270959E+02  0.14748271188E+02  0.26000000000E-02 0.  1.
        -13    1    1    2    0    0  0.14959718192E+02  0.34129183103E+01  0.27508699441E-01  0.15344481386E+02  0.10570000000E+00 0. -1.
         13    1    1    2    0    0 -0.14959718192E+02 -0.34129183103E+01  0.12127362462E+01  0.15392305918E+02  0.10570000000E+00 0.  1.
<mgrwt>
<rscale>  0 0.30711755E+02</rscale>
<asrwt>0</asrwt>
<pdfrwt beam="2">  1        2 0.22689648E-02 0.30711755E+02</pdfrwt>
<pdfrwt beam="1">  1       -2 0.24597717E-02 0.30711755E+02</pdfrwt>
<totfact> 0.14754636E+06</totfact>
</mgrwt>
</event>
<event>
 4    1  0.3704929E-001  0.2399064E+02  0.7818608E-02  0.1675938E+00
          2   -1    0    0  501    0  0.00000000000E+00  0.00000000000E+00  0.37260027557E+02  0.37260027648E+02  0.26000000000E-02 0.  1.
         -2   -1    0    0    0  501 -0.00000000000E+00 -0.00000000000E+00 -0.38617171513E+01  0.38617180266E+01  0.26000000000E-02 0. -1.
        -13    1    1    2    0    0 -0.46844214427E+01 -0.97353193988E+01  0.77668224346E+01  0.13306199731E+02  0.10570000000E+00 0. -1.
         13    1    1    2    0    0  0.46844214427E+01  0.97353193988E+01  0.25631487971E+02  0.27815545944E+02  0.10570000000E+00 0.  1.
<mgrwt>
<rscale>  0 0.23990640E+02</rscale>
<asrwt>0</asrwt>
<pdfrwt beam="1">  1        2 0.57323122E-02 0.23990640E+02</pdfrwt>
<pdfrwt beam="2">  1       -2 0.59411039E-03 0.23990640E+02</pdfrwt>
<totfact> 0.29421562E+06</totfact>
</mgrwt>
</event>
<event>
 4    1  0.3704929E-001  0.4172757E+02  0.7818608E-02  0.1495870E+00
          2   -1    0    0  501    0  0.00000000000E+00  0.00000000000E+00  0.17101847847E+02  0.17101848045E+02  0.26000000000E-02 0. -1.
         -2   -1    0    0    0  501 -0.00000000000E+00 -0.00000000000E+00 -0.25453250131E+02  0.25453250264E+02  0.26000000000E-02 0.  1.
        -13    1    1    2    0    0  0.29336256937E+01 -0.18484711198E+02 -0.13577848012E+02  0.23122712577E+02  0.10570000000E+00 0.  1.
         13    1    1    2    0    0 -0.29336256937E+01  0.18484711198E+02  0.52264457273E+01  0.19432385732E+02  0.10570000000E+00 0. -1.
<mgrwt>
<rscale>  0 0.41727574E+02</rscale>
<asrwt>0</asrwt>
<pdfrwt beam="1">  1        2 0.26310535E-02 0.41727574E+02</pdfrwt>
<pdfrwt beam="2">  1       -2 0.39158847E-02 0.41727574E+02</pdfrwt>
<totfact> 0.69257848E+05</totfact>
</mgrwt>
</event>
<event>
 4    1  0.3704929E-001  0.2765507E+02  0.7818608E-02  0.1625556E+00
         -2   -1    0    0    0  501 -0.00000000000E+00  0.00000000000E+00  0.88421147138E+01  0.88421150960E+01  0.26000000000E-02 0.  1.
          2   -1    0    0  501    0  0.00000000000E+00 -0.00000000000E+00 -0.21623872417E+02  0.21623872573E+02  0.26000000000E-02 0. -1.
        -13    1    1    2    0    0  0.67736216079E+01  0.11927399272E+02 -0.44685869228E+01  0.14426511867E+02  0.10570000000E+00 0.  1.
         13    1    1    2    0    0 -0.67736216079E+01 -0.11927399272E+02 -0.83131707803E+01  0.16039475802E+02  0.10570000000E+00 0. -1.
<mgrwt>
<rscale>  0 0.27655073E+02</rscale>
<asrwt>0</asrwt>
<pdfrwt beam="2">  1        2 0.33267496E-02 0.27655073E+02</pdfrwt>
<pdfrwt beam="1">  1       -2 0.13603254E-02 0.27655073E+02</pdfrwt>
<totfact> 0.19786229E+06</totfact>
</mgrwt>
</event>
<event>
 4    1  0.3704929E-001  0.2713080E+02  0.7818608E-02  0.1632157E+00
          2   -1    0    0  501    0  0.00000000000E+00  0.00000000000E+00  0.50844835670E+01  0.50844842318E+01  0.26000000000E-02 0. -1.
         -2   -1    0    0    0  501 -0.00000000000E+00 -0.00000000000E+00 -0.36192487682E+02  0.36192487775E+02  0.26000000000E-02 0.  1.
        -13    1    1    2    0    0 -0.13181444176E+02 -0.26392015740E+01 -0.12793122857E+02  0.18557775202E+02  0.10570000000E+00 0. -1.
         13    1    1    2    0    0  0.13181444176E+02  0.26392015740E+01 -0.18314881258E+02  0.22719196805E+02  0.10570000000E+00 0.  1.
<mgrwt>
<rscale>  0 0.27130803E+02</rscale>
<asrwt>0</asrwt>
<pdfrwt beam="1">  1        2 0.78222832E-03 0.27130803E+02</pdfrwt>
<pdfrwt beam="2">  1       -2 0.55680749E-02 0.27130803E+02</pdfrwt>
<totfact> 0.17898025E+06</totfact>
</mgrwt>
</event>
<event>
 4    1  0.3704929E-001  0.2281017E+02  0.7818608E-02  0.1694606E+00
         -2   -1    0    0    0  501 -0.00000000000E+00  0.00000000000E+00  0.15030167710E+01  0.15030190198E+01  0.26000000000E-02 0. -1.
          2   -1    0    0  501    0  0.00000000000E+00 -0.00000000000E+00 -0.86543175121E+02  0.86543175160E+02  0.26000000000E-02 0.  1.
        -13    1    1    2    0    0  0.93563347962E+01 -0.64944949899E+01 -0.44788293421E+02  0.46213870926E+02  0.10570000000E+00 0.  1.
         13    1    1    2    0    0 -0.93563347962E+01  0.64944949899E+01 -0.40251864929E+02  0.41832323253E+02  0.10570000000E+00 0. -1.
<mgrwt>
<rscale>  0 0.22810168E+02</rscale>
<asrwt>0</asrwt>
<pdfrwt beam="2">  1        2 0.13314331E-01 0.22810168E+02</pdfrwt>
<pdfrwt beam="1">  1       -2 0.23123359E-03 0.22810168E+02</pdfrwt>
<totfact> 0.38091849E+06</totfact>
</mgrwt>
</event>
<event>
 4    1  0.3704929E-001  0.2579439E+02  0.7818608E-02  0.1649847E+00
          2   -1    0    0  501    0  0.00000000000E+00  0.00000000000E+00  0.70202804640E+01  0.70202809455E+01  0.26000000000E-02 0.  1.
         -2   -1    0    0    0  501 -0.00000000000E+00 -0.00000000000E+00 -0.23693868970E+02  0.23693869113E+02  0.26000000000E-02 0. -1.
        -13    1    1    2    0    0 -0.10178002984E+02  0.77221708342E+01 -0.62393595868E+01  0.14218454475E+02  0.10570000000E+00 0. -1.
         13    1    1    2    0    0  0.10178002984E+02 -0.77221708342E+01 -0.10434228919E+02  0.16495695583E+02  0.10570000000E+00 0.  1.
<mgrwt>
<rscale>  0 0.25794388E+02</rscale>
<asrwt>0</asrwt>
<pdfrwt beam="1">  1        2 0.10800432E-02 0.25794388E+02</pdfrwt>
<pdfrwt beam="2">  1       -2 0.36452106E-02 0.25794388E+02</pdfrwt>
<totfact> 0.21010124E+06</totfact>
</mgrwt>
</event>
<event>
 4    1  0.3704929E-001  0.3993336E+02  0.7818608E-02  0.1508702E+00
         -2   -1    0    0    0  501 -0.00000000000E+00  0.00000000000E+00  0.77584109237E+02  0.77584109280E+02  0.26000000000E-02 0.  1.
          2   -1    0    0  501    0  0.00000000000E+00 -0.00000000000E+00 -0.51385289257E+01  0.51385295835E+01  0.26000000000E-02 0. -1.
        -13    1    1    2    0    0 -0.15990671104E+01 -0.19869971657E+02  0.38570338286E+02  0.43417219594E+02  0.10570000000E+00 0. -1.
         13    1    1    2    0    0  0.15990671104E+01  0.19869971657E+02  0.33875242025E+02  0.39305419270E+02  0.10570000000E+00 0.  1.
<mgrwt>
<rscale>  0 0.39933355E+02</rscale>
<asrwt>0</asrwt>
<pdfrwt beam="2">  1        2 0.79054297E-03 0.39933355E+02</pdfrwt>
<pdfrwt beam="1">  1       -2 0.11936017E-01 0.39933355E+02</pdfrwt>
<totfact> 0.64360935E+05</totfact>
</mgrwt>
</event>
<event>
 4    1  0.3704929E-001  0.3900233E+02  0.7818608E-02  0.1515684E+00
          2   -1    0    0  501    0  0.00000000000E+00  0.00000000000E+00  0.32940238737E+02  0.32940238840E+02  0.26000000000E-02 0. -1.
         -2   -1    0    0    0  501 -0.00000000000E+00 -0.00000000000E+00 -0.11545013758E+02  0.11545014050E+02  0.26000000000E-02 0.  1.
        -13    1    1    2    0    0 -0.10565650663E+02  0.16232823324E+02  0.13285199125E+02  0.23487128715E+02  0.10570000000E+00 0. -1.
         13    1    1    2    0    0  0.10565650663E+02 -0.16232823324E+02  0.81100258543E+01  0.20998124175E+02  0.10570000000E+00 0.  1.
<mgrwt>
<rscale>  0 0.39002334E+02</rscale>
<asrwt>0</asrwt>
<pdfrwt beam="1">  1        2 0.50677290E-02 0.39002334E+02</pdfrwt>
<pdfrwt beam="2">  1       -2 0.17761560E-02 0.39002334E+02</pdfrwt>
<totfact> 0.89909710E+05</totfact>
</mgrwt>
</event>
<event>
 4    1  0.3704929E-001  0.5349162E+02  0.7818608E-02  0.1427370E+00
         -2   -1    0    0    0  501 -0.00000000000E+00  0.00000000000E+00  0.57033974541E+02  0.57033974600E+02  0.26000000000E-02 0. -1.
          2   -1    0    0  501    0  0.00000000000E+00 -0.00000000000E+00 -0.12542317398E+02  0.12542317668E+02  0.26000000000E-02 0.  1.
        -13    1    1    2    0    0 -0.19655386075E+02  0.17686352298E+02  0.27478729721E+02  0.38134407285E+02  0.10570000000E+00 0. -1.
         13    1    1    2    0    0  0.19655386075E+02 -0.17686352298E+02  0.17012927421E+02  0.31441884983E+02  0.10570000000E+00 0.  1.
<mgrwt>
<rscale>  0 0.53491615E+02</rscale>
<asrwt>0</asrwt>
<pdfrwt beam="2">  1        2 0.19295873E-02 0.53491615E+02</pdfrwt>
<pdfrwt beam="1">  1       -2 0.87744577E-02 0.53491615E+02</pdfrwt>
<totfact> 0.33833631E+05</totfact>
</mgrwt>
</event>
<event>
 4    1  0.3704929E-001  0.3504042E+02  0.7818608E-02  0.1548242E+00
         -2   -1    0    0    0  501 -0.00000000000E+00  0.00000000000E+00  0.29180374339E+02  0.29180374455E+02  0.26000000000E-02 0. -1.
          2   -1    0    0  501    0  0.00000000000E+00 -0.00000000000E+00 -0.10519319004E+02  0.10519319326E+02  0.26000000000E-02 0.  1.
        -13    1    1    2    0    0  0.67614034152E+01  0.91793675860E+01  0.24402381703E+02  0.26934453228E+02  0.10570000000E+00 0. -1.
         13    1    1    2    0    0 -0.67614034152E+01 -0.91793675860E+01 -0.57413263677E+01  0.12765240553E+02  0.10570000000E+00 0.  1.
<mgrwt>
<rscale>  0 0.35040415E+02</rscale>
<asrwt>0</asrwt>
<pdfrwt beam="2">  1        2 0.16183568E-02 0.35040415E+02</pdfrwt>
<pdfrwt beam="1">  1       -2 0.44892884E-02 0.35040415E+02</pdfrwt>
<totfact> 0.10208113E+06</totfact>
</mgrwt>
</event>
<event>
 4    1  0.3704929E-001  0.2454675E+02  0.7818608E-02  0.1667599E+00
         -2   -1    0    0    0  501 -0.00000000000E+00  0.00000000000E+00  0.52615691451E+02  0.52615691516E+02  0.26000000000E-02 0. -1.
          2   -1    0    0  501    0  0.00000000000E+00 -0.00000000000E+00 -0.28629417749E+01  0.28629429555E+01  0.26000000000E-02 0.  1.
        -13    1    1    2    0    0  0.66287229524E+01  0.99061442665E+01  0.31486162732E+02  0.33666916673E+02  0.10570000000E+00 0. -1.
         13    1    1    2    0    0 -0.66287229524E+01 -0.99061442665E+01  0.18266586945E+02  0.21811717798E+02  0.10570000000E+00 0.  1.
<mgrwt>
<rscale>  0 0.24546747E+02</rscale>
<asrwt>0</asrwt>
<pdfrwt beam="2">  1        2 0.44045268E-03 0.24546747E+02</pdfrwt>
<pdfrwt beam="1">  1       -2 0.80947218E-02 0.24546747E+02</pdfrwt>
<totfact> 0.21350542E+06</totfact>
</mgrwt>
</event>
<event>
 4    1  0.3704929E-001  0.2218237E+02  0.7818608E-02  0.1705117E+00
          2   -1    0    0  501    0  0.00000000000E+00  0.00000000000E+00  0.80447775417E+01  0.80447779619E+01  0.26000000000E-02 0. -1.
         -2   -1    0    0    0  501 -0.00000000000E+00 -0.00000000000E+00 -0.15291212289E+02  0.15291212511E+02  0.26000000000E-02 0.  1.
        -13    1    1    2    0    0 -0.68404915951E+01 -0.87250464759E+01 -0.33174563088E+01  0.11573048437E+02  0.10570000000E+00 0. -1.
         13    1    1    2    0    0  0.68404915951E+01  0.87250464759E+01 -0.39289784389E+01  0.11762942036E+02  0.10570000000E+00 0.  1.
<mgrwt>
<rscale>  0 0.22182372E+02</rscale>
<asrwt>0</asrwt>
<pdfrwt beam="1">  1        2 0.12376581E-02 0.22182372E+02</pdfrwt>
<pdfrwt beam="2">  1       -2 0.23524942E-02 0.22182372E+02</pdfrwt>
<totfact> 0.30523930E+06</totfact>
</mgrwt>
</event>
<event>
 4    1  0.3704929E-001  0.3579527E+02  0.7818608E-02  0.1541650E+00
         -2   -1    0    0    0  501 -0.00000000000E+00  0.00000000000E+00  0.80188291189E+02  0.80188291231E+02  0.26000000000E-02 0. -1.
          2   -1    0    0  501    0  0.00000000000E+00 -0.00000000000E+00 -0.39946639578E+01  0.39946648040E+01  0.26000000000E-02 0.  1.
        -13    1    1    2    0    0 -0.54180429058E+01  0.11607993306E+02  0.87028772665E+01  0.15487154120E+02  0.10570000000E+00 0.  1.
         13    1    1    2    0    0  0.54180429058E+01 -0.11607993306E+02  0.67490749965E+02  0.68695801916E+02  0.10570000000E+00 0. -1.
<mgrwt>
<rscale>  0 0.35795269E+02</rscale>
<asrwt>0</asrwt>
<pdfrwt beam="2">  1        2 0.61456372E-03 0.35795269E+02</pdfrwt>
<pdfrwt beam="1">  1       -2 0.12336661E-01 0.35795269E+02</pdfrwt>
<totfact> 0.82895676E+05</totfact>
</mgrwt>
</event>
<event>
 4    1  0.3704929E-001  0.4257031E+02  0.7818608E-02  0.1490106E+00
         -2   -1    0    0    0  501 -0.00000000000E+00  0.00000000000E+00  0.97882242641E+01  0.97882246094E+01  0.26000000000E-02 0.  1.
          2   -1    0    0  501    0  0.00000000000E+00 -0.00000000000E+00 -0.46286010778E+02  0.46286010851E+02  0.26000000000E-02 0. -1.
        -13    1    1    2    0    0 -0.85541473828E+01  0.19409784915E+02 -0.20580588214E+02  0.29554779167E+02  0.10570000000E+00 0. -1.
         13    1    1    2    0    0  0.85541473828E+01 -0.19409784915E+02 -0.15917198300E+02  0.26519456294E+02  0.10570000000E+00 0.  1.
<mgrwt>
<rscale>  0 0.42570312E+02</rscale>
<asrwt>0</asrwt>
<pdfrwt beam="2">  1        2 0.71209246E-02 0.42570312E+02</pdfrwt>
<pdfrwt beam="1">  1       -2 0.15058807E-02 0.42570312E+02</pdfrwt>
<totfact> 0.76181004E+05</totfact>
</mgrwt>
</event>
<event>
 4    1  0.3704929E-001  0.3726515E+02  0.7818608E-02  0.1529359E+00
          2   -1    0    0  501    0  0.00000000000E+00  0.00000000000E+00  0.16272326141E+02  0.16272326349E+02  0.26000000000E-02 0.  1.
         -2   -1    0    0    0  501 -0.00000000000E+00 -0.00000000000E+00 -0.21335168487E+02  0.21335168645E+02  0.26000000000E-02 0. -1.
        -13    1    1    2    0    0 -0.89979529129E+01 -0.79914932333E+01  0.11823689800E+02  0.16871216130E+02  0.10570000000E+00 0.  1.
         13    1    1    2    0    0  0.89979529129E+01  0.79914932333E+01 -0.16886532146E+02  0.20736278864E+02  0.10570000000E+00 0. -1.
<mgrwt>
<rscale>  0 0.37265149E+02</rscale>
<asrwt>0</asrwt>
<pdfrwt beam="1">  1        2 0.25034348E-02 0.37265149E+02</pdfrwt>
<pdfrwt beam="2">  1       -2 0.32823337E-02 0.37265149E+02</pdfrwt>
<totfact> 0.91996948E+05</totfact>
</mgrwt>
</event>
<event>
 4    1  0.3704929E-001  0.2691283E+02  0.7818608E-02  0.1634956E+00
          2   -1    0    0  501    0  0.00000000000E+00  0.00000000000E+00  0.49736293127E+02  0.49736293195E+02  0.26000000000E-02 0.  1.
         -2   -1    0    0    0  501 -0.00000000000E+00 -0.00000000000E+00 -0.36407043046E+01  0.36407052330E+01  0.26000000000E-02 0. -1.
        -13    1    1    2    0    0  0.12969482973E+02  0.28028808072E+01  0.18612776306E+02  0.22858482971E+02  0.10570000000E+00 0. -1.
         13    1    1    2    0    0 -0.12969482973E+02 -0.28028808072E+01  0.27482812516E+02  0.30518515457E+02  0.10570000000E+00 0.  1.
<mgrwt>
<rscale>  0 0.26912834E+02</rscale>
<asrwt>0</asrwt>
<pdfrwt beam="1">  1        2 0.76517372E-02 0.26912834E+02</pdfrwt>
<pdfrwt beam="2">  1       -2 0.56010845E-03 0.26912834E+02</pdfrwt>
<totfact> 0.23479440E+06</totfact>
</mgrwt>
</event>
<event>
 4    1  0.3704929E-001  0.2297256E+02  0.7818608E-02  0.1691955E+00
          2   -1    0    0  501    0  0.00000000000E+00  0.00000000000E+00  0.47823908536E+02  0.47823908607E+02  0.26000000000E-02 0.  1.
         -2   -1    0    0    0  501 -0.00000000000E+00 -0.00000000000E+00 -0.27587572986E+01  0.27587585238E+01  0.26000000000E-02 0. -1.
        -13    1    1    2    0    0 -0.55691766895E+01  0.91933246389E+01  0.13618258098E+02  0.17349382497E+02  0.10570000000E+00 0. -1.
         13    1    1    2    0    0  0.55691766895E+01 -0.91933246389E+01  0.31446893139E+02  0.33233284633E+02  0.10570000000E+00 0.  1.
<mgrwt>
<rscale>  0 0.22972557E+02</rscale>
<asrwt>0</asrwt>
<pdfrwt beam="1">  1        2 0.73575246E-02 0.22972557E+02</pdfrwt>
<pdfrwt beam="2">  1       -2 0.42442429E-03 0.22972557E+02</pdfrwt>
<totfact> 0.33660212E+06</totfact>
</mgrwt>
</event>
<event>
 4    1  0.3704929E-001  0.2107386E+02  0.7818608E-02  0.1724780E+00
         -2   -1    0    0    0  501 -0.00000000000E+00  0.00000000000E+00  0.28662653072E+02  0.28662653190E+02  0.26000000000E-02 0.  1.
          2   -1    0    0  501    0  0.00000000000E+00 -0.00000000000E+00 -0.38735711524E+01  0.38735720250E+01  0.26000000000E-02 0. -1.
        -13    1    1    2    0    0  0.32957307347E+01 -0.99613017496E+01  0.10908611844E+02  0.15135995457E+02  0.10570000000E+00 0.  1.
         13    1    1    2    0    0 -0.32957307347E+01  0.99613017496E+01  0.13880470076E+02  0.17400229758E+02  0.10570000000E+00 0. -1.
<mgrwt>
<rscale>  0 0.21073855E+02</rscale>
<asrwt>0</asrwt>
<pdfrwt beam="2">  1        2 0.59593408E-03 0.21073855E+02</pdfrwt>
<pdfrwt beam="1">  1       -2 0.44096391E-02 0.21073855E+02</pdfrwt>
<totfact> 0.32309842E+06</totfact>
</mgrwt>
</event>
<event>
 4    1  0.3704929E-001  0.2973315E+02  0.7818608E-02  0.1601057E+00
         -2   -1    0    0    0  501 -0.00000000000E+00  0.00000000000E+00  0.17040618253E+02  0.17040618452E+02  0.26000000000E-02 0.  1.
          2   -1    0    0  501    0  0.00000000000E+00 -0.00000000000E+00 -0.12969892438E+02  0.12969892699E+02  0.26000000000E-02 0. -1.
        -13    1    1    2    0    0 -0.64339740636E+01  0.80546142798E+01 -0.87758120013E+01  0.13538791756E+02  0.10570000000E+00 0. -1.
         13    1    1    2    0    0  0.64339740636E+01 -0.80546142798E+01  0.12846537817E+02  0.16471719394E+02  0.10570000000E+00 0.  1.
<mgrwt>
<rscale>  0 0.29733146E+02</rscale>
<asrwt>0</asrwt>
<pdfrwt beam="2">  1        2 0.19953681E-02 0.29733146E+02</pdfrwt>
<pdfrwt beam="1">  1       -2 0.26216336E-02 0.29733146E+02</pdfrwt>
<totfact> 0.15767863E+06</totfact>
</mgrwt>
</event>
<event>
 4    1  0.3704929E-001  0.5144478E+02  0.7818608E-02  0.1437701E+00
          2   -1    0    0  501    0  0.00000000000E+00  0.00000000000E+00  0.63827403990E+02  0.63827404043E+02  0.26000000000E-02 0.  1.
         -2   -1    0    0    0  501 -0.00000000000E+00 -0.00000000000E+00 -0.10366100455E+02  0.10366100781E+02  0.26000000000E-02 0. -1.
        -13    1    1    2    0    0  0.19659979749E+02  0.13982461427E+02  0.13863046157E+02  0.27824795642E+02  0.10570000000E+00 0. -1.
         13    1    1    2    0    0 -0.19659979749E+02 -0.13982461427E+02  0.39598257378E+02  0.46368709182E+02  0.10570000000E+00 0.  1.
<mgrwt>
<rscale>  0 0.51444778E+02</rscale>
<asrwt>0</asrwt>
<pdfrwt beam="1">  1        2 0.98196006E-02 0.51444778E+02</pdfrwt>
<pdfrwt beam="2">  1       -2 0.15947847E-02 0.51444778E+02</pdfrwt>
<totfact> 0.50083522E+05</totfact>
</mgrwt>
</event>
<event>
 4    1  0.3704929E-001  0.2703415E+02  0.7818608E-02  0.1633394E+00
          2   -1    0    0  501    0  0.00000000000E+00  0.00000000000E+00  0.25835558424E+02  0.25835558555E+02  0.26000000000E-02 0.  1.
         -2   -1    0    0    0  501 -0.00000000000E+00 -0.00000000000E+00 -0.70720859701E+01  0.70720864481E+01  0.26000000000E-02 0. -1.
        -13    1    1    2    0    0  0.10672777776E+00  0.12303627021E+02  0.25705592690E+01  0.12570186002E+02  0.10570000000E+00 0.  1.
         13    1    1    2    0    0 -0.10672777776E+00 -0.12303627021E+02  0.16192913185E+02  0.20337459000E+02  0.10570000000E+00 0. -1.
<mgrwt>
<rscale>  0 0.27034149E+02</rscale>
<asrwt>0</asrwt>
<pdfrwt beam="1">  1        2 0.39747014E-02 0.27034149E+02</pdfrwt>
<pdfrwt beam="2">  1       -2 0.10880133E-02 0.27034149E+02</pdfrwt>
<totfact> 0.21290617E+06</totfact>
</mgrwt>
</event>
<event>
 4    1  0.3704929E-001  0.2126070E+02  0.7818608E-02  0.1721360E+00
         -2   -1    0    0    0  501 -0.00000000000E+00  0.00000000000E+00  0.18015908982E+01  0.18015927743E+01  0.26000000000E-02 0. -1.
          2   -1    0    0  501    0  0.00000000000E+00 -0.00000000000E+00 -0.62724744061E+02  0.62724744115E+02  0.26000000000E-02 0.  1.
        -13    1    1    2    0    0  0.10555630440E+02 -0.91283308272E+00 -0.27853203228E+02  0.29800447996E+02  0.10570000000E+00 0.  1.
         13    1    1    2    0    0 -0.10555630440E+02  0.91283308272E+00 -0.33069949936E+02  0.34725888894E+02  0.10570000000E+00 0. -1.
<mgrwt>
<rscale>  0 0.21260705E+02</rscale>
<asrwt>0</asrwt>
<pdfrwt beam="2">  1        2 0.96499591E-02 0.21260705E+02</pdfrwt>
<pdfrwt beam="1">  1       -2 0.27716803E-03 0.21260705E+02</pdfrwt>
<totfact> 0.41927165E+06</totfact>
</mgrwt>
</event>
<event>
 4    1  0.3704929E-001  0.4109021E+02  0.7818608E-02  0.1500339E+00
          2   -1    0    0  501    0  0.00000000000E+00  0.00000000000E+00  0.46524535061E+02  0.46524535133E+02  0.26000000000E-02 0.  1.
         -2   -1    0    0    0  501 -0.00000000000E+00 -0.00000000000E+00 -0.90726625864E+01  0.90726629589E+01  0.26000000000E-02 0. -1.
        -13    1    1    2    0    0  0.14454572469E+02 -0.14133913164E+02  0.13775155610E+02  0.24463610754E+02  0.10570000000E+00 0.  1.
         13    1    1    2    0    0 -0.14454572469E+02  0.14133913164E+02  0.23676716865E+02  0.31133587338E+02  0.10570000000E+00 0. -1.
<mgrwt>
<rscale>  0 0.41090214E+02</rscale>
<asrwt>0</asrwt>
<pdfrwt beam="1">  1        2 0.71576207E-02 0.41090214E+02</pdfrwt>
<pdfrwt beam="2">  1       -2 0.13957943E-02 0.41090214E+02</pdfrwt>
<totfact> 0.83322655E+05</totfact>
</mgrwt>
</event>
<event>
 4    1  0.3704929E-001  0.2157298E+02  0.7818608E-02  0.1715743E+00
          2   -1    0    0  501    0  0.00000000000E+00  0.00000000000E+00  0.31744754490E+02  0.31744754596E+02  0.26000000000E-02 0. -1.
         -2   -1    0    0    0  501 -0.00000000000E+00 -0.00000000000E+00 -0.36651197758E+01  0.36651206980E+01  0.26000000000E-02 0.  1.
        -13    1    1    2    0    0  0.10104816924E+02  0.19101564767E+01  0.87005614336E+01  0.13470967470E+02  0.10570000000E+00 0.  1.
         13    1    1    2    0    0 -0.10104816924E+02 -0.19101564767E+01  0.19379073281E+02  0.21938907824E+02  0.10570000000E+00 0. -1.
<mgrwt>
<rscale>  0 0.21572978E+02</rscale>
<asrwt>0</asrwt>
<pdfrwt beam="1">  1        2 0.48838086E-02 0.21572978E+02</pdfrwt>
<pdfrwt beam="2">  1       -2 0.56386464E-03 0.21572978E+02</pdfrwt>
<totfact> 0.36789732E+06</totfact>
</mgrwt>
</event>
<event>
 4    1  0.3704929E-001  0.3509704E+02  0.7818608E-02  0.1547741E+00
         -2   -1    0    0    0  501 -0.00000000000E+00  0.00000000000E+00  0.53740125259E+01  0.53740131548E+01  0.26000000000E-02 0. -1.
          2   -1    0    0  501    0  0.00000000000E+00 -0.00000000000E+00 -0.57303637747E+02  0.57303637806E+02  0.26000000000E-02 0.  1.
        -13    1    1    2    0    0 -0.14965396673E+02 -0.48649080857E-01 -0.95998768702E+01  0.17780165149E+02  0.10570000000E+00 0. -1.
         13    1    1    2    0    0  0.14965396673E+02  0.48649080857E-01 -0.42329748351E+02  0.44897485812E+02  0.10570000000E+00 0.  1.
<mgrwt>
<rscale>  0 0.35097036E+02</rscale>
<asrwt>0</asrwt>
<pdfrwt beam="2">  1        2 0.88159439E-02 0.35097036E+02</pdfrwt>
<pdfrwt beam="1">  1       -2 0.82677125E-03 0.35097036E+02</pdfrwt>
<totfact> 0.12757587E+06</totfact>
</mgrwt>
</event>
<event>
 4    1  0.3704929E-001  0.2596461E+02  0.7818608E-02  0.1647521E+00
         -2   -1    0    0    0  501 -0.00000000000E+00  0.00000000000E+00  0.41935803182E+02  0.41935803263E+02  0.26000000000E-02 0.  1.
          2   -1    0    0  501    0  0.00000000000E+00 -0.00000000000E+00 -0.40190046101E+01  0.40190054511E+01  0.26000000000E-02 0. -1.
        -13    1    1    2    0    0  0.71788224339E+01  0.10389124282E+02  0.13631129657E+02  0.18581933782E+02  0.10570000000E+00 0.  1.
         13    1    1    2    0    0 -0.71788224339E+01 -0.10389124282E+02  0.24285668915E+02  0.27372874931E+02  0.10570000000E+00 0. -1.
<mgrwt>
<rscale>  0 0.25964607E+02</rscale>
<asrwt>0</asrwt>
<pdfrwt beam="2">  1        2 0.61830850E-03 0.25964607E+02</pdfrwt>
<pdfrwt beam="1">  1       -2 0.64516618E-02 0.25964607E+02</pdfrwt>
<totfact> 0.19411923E+06</totfact>
</mgrwt>
</event>
<event>
 4    1  0.3704929E-001  0.5527103E+02  0.7818608E-02  0.1418821E+00
          2   -1    0    0  501    0  0.00000000000E+00  0.00000000000E+00  0.13278191382E+02  0.13278191637E+02  0.26000000000E-02 0. -1.
         -2   -1    0    0    0  501 -0.00000000000E+00 -0.00000000000E+00 -0.57517005656E+02  0.57517005715E+02  0.26000000000E-02 0.  1.
        -13    1    1    2    0    0 -0.16833049392E+02 -0.24289725384E+01  0.57806846682E+01  0.17963266606E+02  0.10570000000E+00 0. -1.
         13    1    1    2    0    0  0.16833049392E+02  0.24289725384E+01 -0.50019498942E+02  0.52831930746E+02  0.10570000000E+00 0.  1.
<mgrwt>
<rscale>  0 0.55271035E+02</rscale>
<asrwt>0</asrwt>
<pdfrwt beam="1">  1        2 0.20427987E-02 0.55271035E+02</pdfrwt>
<pdfrwt beam="2">  1       -2 0.88487700E-02 0.55271035E+02</pdfrwt>
<totfact> 0.31207373E+05</totfact>
</mgrwt>
</event>
<event>
 4    1  0.3704929E-001  0.3669308E+02  0.7818608E-02  0.1534060E+00
          2   -1    0    0  501    0  0.00000000000E+00  0.00000000000E+00  0.84615178994E+01  0.84615182988E+01  0.26000000000E-02 0. -1.
         -2   -1    0    0    0  501 -0.00000000000E+00 -0.00000000000E+00 -0.39779568691E+02  0.39779568776E+02  0.26000000000E-02 0.  1.
        -13    1    1    2    0    0  0.84135378505E+01  0.13713783897E+02 -0.27250111296E+02  0.31645461382E+02  0.10570000000E+00 0.  1.
         13    1    1    2    0    0 -0.84135378505E+01 -0.13713783897E+02 -0.40679394960E+01  0.16595625694E+02  0.10570000000E+00 0. -1.
<mgrwt>
<rscale>  0 0.36693081E+02</rscale>
<asrwt>0</asrwt>
<pdfrwt beam="1">  1        2 0.13017720E-02 0.36693081E+02</pdfrwt>
<pdfrwt beam="2">  1       -2 0.61199336E-02 0.36693081E+02</pdfrwt>
<totfact> 0.88047112E+05</totfact>
</mgrwt>
</event>
<event>
 4    1  0.3704929E-001  0.2448803E+02  0.7818608E-02  0.1668466E+00
         -2   -1    0    0    0  501 -0.00000000000E+00  0.00000000000E+00  0.63134507893E+01  0.63134513247E+01  0.26000000000E-02 0.  1.
          2   -1    0    0  501    0  0.00000000000E+00 -0.00000000000E+00 -0.23745477773E+02  0.23745477915E+02  0.26000000000E-02 0. -1.
        -13    1    1    2    0    0 -0.10451563501E+02  0.12016740501E+01 -0.16403849692E+02  0.19487859229E+02  0.10570000000E+00 0. -1.
         13    1    1    2    0    0  0.10451563501E+02 -0.12016740501E+01 -0.10281772919E+01  0.10571070011E+02  0.10570000000E+00 0.  1.
<mgrwt>
<rscale>  0 0.24488031E+02</rscale>
<asrwt>0</asrwt>
<pdfrwt beam="2">  1        2 0.36531504E-02 0.24488031E+02</pdfrwt>
<pdfrwt beam="1">  1       -2 0.97130019E-03 0.24488031E+02</pdfrwt>
<totfact> 0.26625622E+06</totfact>
</mgrwt>
</event>
<event>
 4    1  0.3704929E-001  0.3068163E+02  0.7818608E-02  0.1590674E+00
          2   -1    0    0  501    0  0.00000000000E+00  0.00000000000E+00  0.18358591036E+02  0.18358591220E+02  0.26000000000E-02 0. -1.
         -2   -1    0    0    0  501 -0.00000000000E+00 -0.00000000000E+00 -0.12819101081E+02  0.12819101345E+02  0.26000000000E-02 0.  1.
        -13    1    1    2    0    0 -0.75895210047E+01 -0.10526337795E+02  0.11082772511E+02  0.17065861698E+02  0.10570000000E+00 0. -1.
         13    1    1    2    0    0  0.75895210047E+01  0.10526337795E+02 -0.55432825565E+01  0.14111830868E+02  0.10570000000E+00 0.  1.
<mgrwt>
<rscale>  0 0.30681632E+02</rscale>
<asrwt>0</asrwt>
<pdfrwt beam="1">  1        2 0.28243986E-02 0.30681632E+02</pdfrwt>
<pdfrwt beam="2">  1       -2 0.19721694E-02 0.30681632E+02</pdfrwt>
<totfact> 0.15135359E+06</totfact>
</mgrwt>
</event>
<event>
 4    1  0.3704929E-001  0.2188206E+02  0.7818608E-02  0.1710300E+00
         -2   -1    0    0    0  501 -0.00000000000E+00  0.00000000000E+00  0.25677725624E+02  0.25677725756E+02  0.26000000000E-02 0.  1.
          2   -1    0    0  501    0  0.00000000000E+00 -0.00000000000E+00 -0.46618680107E+01  0.46618687357E+01  0.26000000000E-02 0. -1.
        -13    1    1    2    0    0 -0.98475611338E+01 -0.24508833447E+01  0.16176296754E+02  0.19096204822E+02  0.10570000000E+00 0.  1.
         13    1    1    2    0    0  0.98475611338E+01  0.24508833447E+01  0.48395608598E+01  0.11243389669E+02  0.10570000000E+00 0. -1.
<mgrwt>
<rscale>  0 0.21882064E+02</rscale>
<asrwt>0</asrwt>
<pdfrwt beam="2">  1        2 0.71721052E-03 0.21882064E+02</pdfrwt>
<pdfrwt beam="1">  1       -2 0.39504194E-02 0.21882064E+02</pdfrwt>
<totfact> 0.30062928E+06</totfact>
</mgrwt>
</event>
<event>
 4    1  0.3704929E-001  0.2550984E+02  0.7818608E-02  0.1653785E+00
         -2   -1    0    0    0  501 -0.00000000000E+00  0.00000000000E+00  0.14933504736E+02  0.14933504962E+02  0.26000000000E-02 0. -1.
          2   -1    0    0  501    0  0.00000000000E+00 -0.00000000000E+00 -0.10894160507E+02  0.10894160817E+02  0.26000000000E-02 0.  1.
        -13    1    1    2    0    0  0.15795306463E+01  0.11454459889E+02  0.74697923268E+01  0.13766210019E+02  0.10570000000E+00 0. -1.
         13    1    1    2    0    0 -0.15795306463E+01 -0.11454459889E+02 -0.34304480979E+01  0.12061455760E+02  0.10570000000E+00 0.  1.
<mgrwt>
<rscale>  0 0.25509842E+02</rscale>
<asrwt>0</asrwt>
<pdfrwt beam="2">  1        2 0.16760247E-02 0.25509842E+02</pdfrwt>
<pdfrwt beam="1">  1       -2 0.22974623E-02 0.25509842E+02</pdfrwt>
<totfact> 0.22481525E+06</totfact>
</mgrwt>
</event>
<event>
 4    1  0.3704929E-001  0.3988097E+02  0.7818608E-02  0.1509089E+00
          2   -1    0    0  501    0  0.00000000000E+00  0.00000000000E+00  0.17685906308E+02  0.17685906499E+02  0.26000000000E-02 0.  1.
         -2   -1    0    0    0  501 -0.00000000000E+00 -0.00000000000E+00 -0.22482479216E+02  0.22482479366E+02  0.26000000000E-02 0. -1.
        -13    1    1    2    0    0 -0.65446159155E+01 -0.13595178281E+02  0.10732189361E+02  0.18516261257E+02  0.10570000000E+00 0.  1.
         13    1    1    2    0    0  0.65446159155E+01  0.13595178281E+02 -0.15528762269E+02  0.21652124609E+02  0.10570000000E+00 0. -1.
<mgrwt>
<rscale>  0 0.39880974E+02</rscale>
<asrwt>0</asrwt>
<pdfrwt beam="1">  1        2 0.27209087E-02 0.39880974E+02</pdfrwt>
<pdfrwt beam="2">  1       -2 0.34588430E-02 0.39880974E+02</pdfrwt>
<totfact> 0.78175054E+05</totfact>
</mgrwt>
</event>
<event>
 4    1  0.3704929E-001  0.2913989E+02  0.7818608E-02  0.1607795E+00
         -2   -1    0    0    0  501 -0.00000000000E+00  0.00000000000E+00  0.67128013758E+01  0.67128018794E+01  0.26000000000E-02 0. -1.
          2   -1    0    0  501    0  0.00000000000E+00 -0.00000000000E+00 -0.31623645597E+02  0.31623645704E+02  0.26000000000E-02 0.  1.
        -13    1    1    2    0    0 -0.27626149077E+01  0.13240893920E+02 -0.19578979471E+02  0.23797078026E+02  0.10570000000E+00 0.  1.
         13    1    1    2    0    0  0.27626149077E+01 -0.13240893920E+02 -0.53318647504E+01  0.14539369558E+02  0.10570000000E+00 0. -1.
<mgrwt>
<rscale>  0 0.29139888E+02</rscale>
<asrwt>0</asrwt>
<pdfrwt beam="2">  1        2 0.48651762E-02 0.29139888E+02</pdfrwt>
<pdfrwt beam="1">  1       -2 0.10327387E-02 0.29139888E+02</pdfrwt>
<totfact> 0.18246153E+06</totfact>
</mgrwt>
</event>
<event>
 4    1  0.3704929E-001  0.4911573E+02  0.7818608E-02  0.1450170E+00
          2   -1    0    0  501    0  0.00000000000E+00  0.00000000000E+00  0.12698455785E+03  0.12698455788E+03  0.26000000000E-02 0. -1.
         -2   -1    0    0    0  501 -0.00000000000E+00 -0.00000000000E+00 -0.47493065348E+01  0.47493072465E+01  0.26000000000E-02 0.  1.
        -13    1    1    2    0    0 -0.21336610589E+02  0.11027322016E+02  0.47382520167E+02  0.53122190957E+02  0.10570000000E+00 0.  1.
         13    1    1    2    0    0  0.21336610589E+02 -0.11027322016E+02  0.74852731150E+02  0.78611674167E+02  0.10570000000E+00 0. -1.
<mgrwt>
<rscale>  0 0.49115726E+02</rscale>
<asrwt>0</asrwt>
<pdfrwt beam="1">  1        2 0.19536084E-01 0.49115726E+02</pdfrwt>
<pdfrwt beam="2">  1       -2 0.73066268E-03 0.49115726E+02</pdfrwt>
<totfact> 0.66856802E+05</totfact>
</mgrwt>
</event>
<event>
 4    1  0.3704929E-001  0.3038647E+02  0.7818608E-02  0.1593856E+00
         -2   -1    0    0    0  501 -0.00000000000E+00  0.00000000000E+00  0.25425126751E+01  0.25425140045E+01  0.26000000000E-02 0. -1.
          2   -1    0    0  501    0  0.00000000000E+00 -0.00000000000E+00 -0.90789872106E+02  0.90789872143E+02  0.26000000000E-02 0.  1.
        -13    1    1    2    0    0 -0.37624196148E+00 -0.14421676700E+02 -0.58756769526E+02  0.60502028515E+02  0.10570000000E+00 0. -1.
         13    1    1    2    0    0  0.37624196148E+00  0.14421676700E+02 -0.29490589905E+02  0.32830357632E+02  0.10570000000E+00 0.  1.
<mgrwt>
<rscale>  0 0.30386475E+02</rscale>
<asrwt>0</asrwt>
<pdfrwt beam="2">  1        2 0.13967670E-01 0.30386475E+02</pdfrwt>
<pdfrwt beam="1">  1       -2 0.39115597E-03 0.30386475E+02</pdfrwt>
<totfact> 0.19817077E+06</totfact>
</mgrwt>
</event>
<event>
 4    1  0.3704929E-001  0.2412486E+02  0.7818608E-02  0.1673900E+00
         -2   -1    0    0    0  501 -0.00000000000E+00  0.00000000000E+00  0.60943466110E+01  0.60943471656E+01  0.26000000000E-02 0. -1.
          2   -1    0    0  501    0  0.00000000000E+00 -0.00000000000E+00 -0.23874949883E+02  0.23874950025E+02  0.26000000000E-02 0.  1.
        -13    1    1    2    0    0 -0.10310257086E+02  0.30302401060E+01 -0.20853473974E+01  0.10947310287E+02  0.10570000000E+00 0. -1.
         13    1    1    2    0    0  0.10310257086E+02 -0.30302401060E+01 -0.15695255875E+02  0.19021986903E+02  0.10570000000E+00 0.  1.
<mgrwt>
<rscale>  0 0.24124861E+02</rscale>
<asrwt>0</asrwt>
<pdfrwt beam="2">  1        2 0.36730692E-02 0.24124861E+02</pdfrwt>
<pdfrwt beam="1">  1       -2 0.93759185E-03 0.24124861E+02</pdfrwt>
<totfact> 0.27583577E+06</totfact>
</mgrwt>
</event>
<event>
 4    1  0.3704929E-001  0.2108431E+02  0.7818608E-02  0.1724587E+00
         -2   -1    0    0    0  501 -0.00000000000E+00  0.00000000000E+00  0.12019074225E+02  0.12019074506E+02  0.26000000000E-02 0. -1.
          2   -1    0    0  501    0  0.00000000000E+00 -0.00000000000E+00 -0.92467177413E+01  0.92467181068E+01  0.26000000000E-02 0.  1.
        -13    1    1    2    0    0 -0.70788457328E+01 -0.77985624580E+01  0.18351932545E+01  0.10691433023E+02  0.10570000000E+00 0.  1.
         13    1    1    2    0    0  0.70788457328E+01  0.77985624580E+01  0.93716322904E+00  0.10574359590E+02  0.10570000000E+00 0. -1.
<mgrwt>
<rscale>  0 0.21084306E+02</rscale>
<asrwt>0</asrwt>
<pdfrwt beam="2">  1        2 0.14225720E-02 0.21084306E+02</pdfrwt>
<pdfrwt beam="1">  1       -2 0.18490884E-02 0.21084306E+02</pdfrwt>
<totfact> 0.34742328E+06</totfact>
</mgrwt>
</event>
<event>
 4    1  0.3704929E-001  0.2467277E+02  0.7818608E-02  0.1665747E+00
         -2   -1    0    0    0  501 -0.00000000000E+00  0.00000000000E+00  0.52188416549E+01  0.52188423026E+01  0.26000000000E-02 0.  1.
          2   -1    0    0  501    0  0.00000000000E+00 -0.00000000000E+00 -0.29160944785E+02  0.29160944901E+02  0.26000000000E-02 0. -1.
        -13    1    1    2    0    0  0.10987103277E+02  0.10980706352E+01 -0.43068042095E+01  0.11852507436E+02  0.10570000000E+00 0. -1.
         13    1    1    2    0    0 -0.10987103277E+02 -0.10980706352E+01 -0.19635298921E+02  0.22527279768E+02  0.10570000000E+00 0.  1.
<mgrwt>
<rscale>  0 0.24672768E+02</rscale>
<asrwt>0</asrwt>
<pdfrwt beam="2">  1        2 0.44862992E-02 0.24672768E+02</pdfrwt>
<pdfrwt beam="1">  1       -2 0.80289879E-03 0.24672768E+02</pdfrwt>
<totfact> 0.26755392E+06</totfact>
</mgrwt>
</event>
<event>
 4    1  0.3704929E-001  0.4074128E+02  0.7818608E-02  0.1502826E+00
          2   -1    0    0  501    0  0.00000000000E+00  0.00000000000E+00  0.11770744344E+02  0.11770744631E+02  0.26000000000E-02 0. -1.
         -2   -1    0    0    0  501 -0.00000000000E+00 -0.00000000000E+00 -0.35253754190E+02  0.35253754286E+02  0.26000000000E-02 0.  1.
        -13    1    1    2    0    0  0.13094257064E+02 -0.55117065341E+01 -0.28591306486E+02  0.31926673112E+02  0.10570000000E+00 0. -1.
         13    1    1    2    0    0 -0.13094257064E+02  0.55117065341E+01  0.51082966395E+01  0.15097825804E+02  0.10570000000E+00 0.  1.
<mgrwt>
<rscale>  0 0.40741278E+02</rscale>
<asrwt>0</asrwt>
<pdfrwt beam="1">  1        2 0.18108838E-02 0.40741278E+02</pdfrwt>
<pdfrwt beam="2">  1       -2 0.54236545E-02 0.40741278E+02</pdfrwt>
<totfact> 0.70045377E+05</totfact>
</mgrwt>
</event>
<event>
 4    1  0.3704929E-001  0.2883684E+02  0.7818608E-02  0.1611314E+00
          2   -1    0    0  501    0  0.00000000000E+00  0.00000000000E+00  0.95305621345E+02  0.95305621381E+02  0.26000000000E-02 0. -1.
         -2   -1    0    0    0  501 -0.00000000000E+00 -0.00000000000E+00 -0.21813057379E+01  0.21813072874E+01  0.26000000000E-02 0.  1.
        -13    1    1    2    0    0  0.89862291183E+01 -0.87168314400E+01  0.70738841000E+02  0.71838222852E+02  0.10570000000E+00 0. -1.
         13    1    1    2    0    0 -0.89862291183E+01  0.87168314400E+01  0.22385474608E+02  0.25648705816E+02  0.10570000000E+00 0.  1.
<mgrwt>
<rscale>  0 0.28836836E+02</rscale>
<asrwt>0</asrwt>
<pdfrwt beam="1">  1        2 0.14662398E-01 0.28836836E+02</pdfrwt>
<pdfrwt beam="2">  1       -2 0.33558574E-03 0.28836836E+02</pdfrwt>
<totfact> 0.22672563E+06</totfact>
</mgrwt>
</event>
<event>
 4    1  0.3704929E-001  0.2534853E+02  0.7818608E-02  0.1656046E+00
          2   -1    0    0  501    0  0.00000000000E+00  0.00000000000E+00  0.76295699564E+01  0.76295703994E+01  0.26000000000E-02 0.  1.
         -2   -1    0    0    0  501 -0.00000000000E+00 -0.00000000000E+00 -0.21054533351E+02  0.21054533511E+02  0.26000000000E-02 0. -1.
        -13    1    1    2    0    0 -0.11578901602E+02 -0.46154900432E+01 -0.41191537580E+01  0.13128301902E+02  0.10570000000E+00 0. -1.
         13    1    1    2    0    0  0.11578901602E+02  0.46154900432E+01 -0.93058096365E+01  0.15555802009E+02  0.10570000000E+00 0.  1.
<mgrwt>
<rscale>  0 0.25348534E+02</rscale>
<asrwt>0</asrwt>
<pdfrwt beam="1">  1        2 0.11737800E-02 0.25348534E+02</pdfrwt>
<pdfrwt beam="2">  1       -2 0.32391590E-02 0.25348534E+02</pdfrwt>
<totfact> 0.22097903E+06</totfact>
</mgrwt>
</event>
