<event>
 5    1  0.3296574E-054  0.1249981E+03  0.7818608E-02  0.1235072E+00
          4   -1    0    0  501    0  0.00000000000E+00  0.00000000000E+00  0.14504545688E+02  0.14573889172E+02  0.14200000000E+01 0. -1.
         -4   -1    0    0    0  501 -0.00000000000E+00 -0.00000000000E+00 -0.26859044902E+03  0.26859420266E+03  0.14200000000E+01 0.  1.
         25    2    1    2    0    0  0.00000000000E+00  0.00000000000E+00 -0.25408590333E+03  0.28316809183E+03  0.12499808783E+03 0.  0.
        -11    1    3    3    0    0 -0.59565372551E+02 -0.18907858432E+02 -0.12530321603E+03  0.14002298621E+03  0.51100000000E-03 0.  1.
         11    1    3    3    0    0  0.59565372551E+02  0.18907858432E+02 -0.12878268730E+03  0.14314510563E+03  0.51100000000E-03 0. -1.
<mgrwt>
<rscale>  0 0.12499809E+03</rscale>
<asrwt>0</asrwt>
<pdfrwt beam="1">  1        4 0.22370916E-02 0.12499809E+03</pdfrwt>
<pdfrwt beam="2">  1       -4 0.41327227E-01 0.12499809E+03</pdfrwt>
<totfact> 0.77763212E+03</totfact>
</mgrwt>
</event>
<event>
 5    1  0.3296574E-054  0.1250022E+03  0.7818608E-02  0.1235066E+00
         -4   -1    0    0    0  501 -0.00000000000E+00  0.00000000000E+00  0.30308889020E+02  0.30342134955E+02  0.14200000000E+01 0.  1.
          4   -1    0    0  501    0  0.00000000000E+00 -0.00000000000E+00 -0.12877810529E+03  0.12878593402E+03  0.14200000000E+01 0. -1.
         25    2    1    2    0    0  0.00000000000E+00  0.00000000000E+00 -0.98469216270E+02  0.15912806898E+03  0.12500222311E+03 0.  0.
        -11    1    3    3    0    0  0.62170076523E+02 -0.45563510104E+01 -0.54999802628E+02  0.83131564636E+02  0.51100000000E-03 0.  1.
         11    1    3    3    0    0 -0.62170076523E+02  0.45563510104E+01 -0.43469413642E+02  0.75996504342E+02  0.51100000000E-03 0. -1.
<mgrwt>
<rscale>  0 0.12500222E+03</rscale>
<asrwt>0</asrwt>
<pdfrwt beam="2">  1        4 0.19815176E-01 0.12500222E+03</pdfrwt>
<pdfrwt beam="1">  1       -4 0.46660657E-02 0.12500222E+03</pdfrwt>
<totfact> 0.97506277E+03</totfact>
</mgrwt>
</event>
<event>
 5    1  0.3296574E-054  0.1250051E+03  0.7818608E-02  0.1235061E+00
          4   -1    0    0  501    0  0.00000000000E+00  0.00000000000E+00  0.48405896836E+02  0.48426720398E+02  0.14200000000E+01 0. -1.
         -4   -1    0    0    0  501 -0.00000000000E+00 -0.00000000000E+00 -0.80659941390E+02  0.80672439811E+02  0.14200000000E+01 0.  1.
         25    2    1    2    0    0  0.00000000000E+00  0.00000000000E+00 -0.32254044555E+02  0.12909916021E+03  0.12500507900E+03 0.  0.
        -11    1    3    3    0    0  0.45022424647E+01 -0.62311345459E+02 -0.14169288641E+02  0.64060461292E+02  0.51100000000E-03 0.  1.
         11    1    3    3    0    0 -0.45022424647E+01  0.62311345459E+02 -0.18084755914E+02  0.65038698917E+02  0.51100000000E-03 0. -1.
<mgrwt>
<rscale>  0 0.12500508E+03</rscale>
<asrwt>0</asrwt>
<pdfrwt beam="1">  1        4 0.74496243E-02 0.12500508E+03</pdfrwt>
<pdfrwt beam="2">  1       -4 0.12411785E-01 0.12500508E+03</pdfrwt>
<totfact> 0.10362628E+04</totfact>
</mgrwt>
</event>
<event>
 5    1  0.3296574E-054  0.1249992E+03  0.7818608E-02  0.1235070E+00
         -4   -1    0    0    0  501 -0.00000000000E+00  0.00000000000E+00  0.16402882116E+02  0.16464232193E+02  0.14200000000E+01 0.  1.
          4   -1    0    0  501    0  0.00000000000E+00 -0.00000000000E+00 -0.23763316368E+03  0.23763740631E+03  0.14200000000E+01 0. -1.
         25    2    1    2    0    0  0.00000000000E+00  0.00000000000E+00 -0.22123028156E+03  0.25410163851E+03  0.12499922084E+03 0.  0.
        -11    1    3    3    0    0  0.53680414821E+02 -0.12889505523E+02 -0.51053865292E+02  0.75194570612E+02  0.51100000000E-03 0.  1.
         11    1    3    3    0    0 -0.53680414821E+02  0.12889505523E+02 -0.17017641627E+03  0.17890706790E+03  0.51100000000E-03 0. -1.
<mgrwt>
<rscale>  0 0.12499922E+03</rscale>
<asrwt>0</asrwt>
<pdfrwt beam="2">  1        4 0.36563991E-01 0.12499922E+03</pdfrwt>
<pdfrwt beam="1">  1       -4 0.25285661E-02 0.12499922E+03</pdfrwt>
<totfact> 0.81742424E+03</totfact>
</mgrwt>
</event>
<event>
 5    1  0.3296574E-054  0.1249957E+03  0.7818608E-02  0.1235076E+00
         -4   -1    0    0    0  501 -0.00000000000E+00  0.00000000000E+00  0.10284270429E+03  0.10285250714E+03  0.14200000000E+01 0.  1.
          4   -1    0    0  501    0  0.00000000000E+00 -0.00000000000E+00 -0.37955285686E+02  0.37981839233E+02  0.14200000000E+01 0. -1.
         25    2    1    2    0    0  0.00000000000E+00  0.00000000000E+00  0.64887418601E+02  0.14083434637E+03  0.12499574403E+03 0.  0.
        -11    1    3    3    0    0  0.36120170697E+02  0.41780139756E+02  0.65403432942E+02  0.85602896272E+02  0.51100000000E-03 0.  1.
         11    1    3    3    0    0 -0.36120170697E+02 -0.41780139756E+02 -0.51601434101E+00  0.55231450101E+02  0.51100000000E-03 0. -1.
<mgrwt>
<rscale>  0 0.12499574E+03</rscale>
<asrwt>0</asrwt>
<pdfrwt beam="2">  1        4 0.58420713E-02 0.12499574E+03</pdfrwt>
<pdfrwt beam="1">  1       -4 0.15824751E-01 0.12499574E+03</pdfrwt>
<totfact> 0.10117293E+04</totfact>
</mgrwt>
</event>
<event>
 5    1  0.3296574E-054  0.1249899E+03  0.7818608E-02  0.1235085E+00
         -4   -1    0    0    0  501 -0.00000000000E+00  0.00000000000E+00  0.19246649214E+03  0.19247173039E+03  0.14200000000E+01 0. -1.
          4   -1    0    0  501    0  0.00000000000E+00 -0.00000000000E+00 -0.20262095393E+02  0.20311792381E+02  0.14200000000E+01 0.  1.
         25    2    1    2    0    0  0.00000000000E+00  0.00000000000E+00  0.17220439675E+03  0.21278352277E+03  0.12498989280E+03 0.  0.
        -11    1    3    3    0    0  0.20467979875E+02 -0.49874759643E+02  0.13991514920E+03  0.14994225164E+03  0.51100000000E-03 0. -1.
         11    1    3    3    0    0 -0.20467979875E+02  0.49874759643E+02  0.32289247546E+02  0.62841271128E+02  0.51100000000E-03 0.  1.
<mgrwt>
<rscale>  0 0.12498989E+03</rscale>
<asrwt>0</asrwt>
<pdfrwt beam="2">  1        4 0.31214712E-02 0.12498989E+03</pdfrwt>
<pdfrwt beam="1">  1       -4 0.29614456E-01 0.12498989E+03</pdfrwt>
<totfact> 0.88043190E+03</totfact>
</mgrwt>
</event>
<event>
 5    1  0.3296574E-054  0.1249963E+03  0.7818608E-02  0.1235075E+00
         -4   -1    0    0    0  501 -0.00000000000E+00  0.00000000000E+00  0.38809741481E+02  0.38835710806E+02  0.14200000000E+01 0.  1.
          4   -1    0    0  501    0  0.00000000000E+00 -0.00000000000E+00 -0.10058069503E+03  0.10059071832E+03  0.14200000000E+01 0. -1.
         25    2    1    2    0    0  0.00000000000E+00  0.00000000000E+00 -0.61770953546E+02  0.13942642913E+03  0.12499631369E+03 0.  0.
        -11    1    3    3    0    0 -0.34732665173E+02  0.49678480845E+02 -0.13906152589E+02  0.62190759516E+02  0.51100000000E-03 0.  1.
         11    1    3    3    0    0  0.34732665173E+02 -0.49678480845E+02 -0.47864800957E+02  0.77235669609E+02  0.51100000000E-03 0. -1.
<mgrwt>
<rscale>  0 0.12499631E+03</rscale>
<asrwt>0</asrwt>
<pdfrwt beam="2">  1        4 0.15476722E-01 0.12499631E+03</pdfrwt>
<pdfrwt beam="1">  1       -4 0.59734981E-02 0.12499631E+03</pdfrwt>
<totfact> 0.10146330E+04</totfact>
</mgrwt>
</event>
<event>
 5    1  0.3296574E-054  0.1249951E+03  0.7818608E-02  0.1235077E+00
          4   -1    0    0  501    0  0.00000000000E+00  0.00000000000E+00  0.17543783584E+02  0.17601157418E+02  0.14200000000E+01 0. -1.
         -4   -1    0    0    0  501 -0.00000000000E+00 -0.00000000000E+00 -0.22221671882E+03  0.22222125579E+03  0.14200000000E+01 0.  1.
         25    2    1    2    0    0  0.00000000000E+00  0.00000000000E+00 -0.20467293524E+03  0.23982241321E+03  0.12499511773E+03 0.  0.
        -11    1    3    3    0    0 -0.59933676147E+02  0.98340074670E+01 -0.13061248603E+03  0.14404296146E+03  0.51100000000E-03 0.  1.
         11    1    3    3    0    0  0.59933676147E+02 -0.98340074670E+01 -0.74060449205E+02  0.95779451743E+02  0.51100000000E-03 0. -1.
<mgrwt>
<rscale>  0 0.12499512E+03</rscale>
<asrwt>0</asrwt>
<pdfrwt beam="1">  1        4 0.27038062E-02 0.12499512E+03</pdfrwt>
<pdfrwt beam="2">  1       -4 0.34191948E-01 0.12499512E+03</pdfrwt>
<totfact> 0.83832948E+03</totfact>
</mgrwt>
</event>
<event>
 5    1  0.3296574E-054  0.1249989E+03  0.7818608E-02  0.1235071E+00
          4   -1    0    0  501    0  0.00000000000E+00  0.00000000000E+00  0.99932702705E+02  0.99942790985E+02  0.14200000000E+01 0. -1.
         -4   -1    0    0    0  501 -0.00000000000E+00 -0.00000000000E+00 -0.39063178893E+02  0.39088979844E+02  0.14200000000E+01 0.  1.
         25    2    1    2    0    0  0.00000000000E+00  0.00000000000E+00  0.60869523812E+02  0.13903177083E+03  0.12499893748E+03 0.  0.
        -11    1    3    3    0    0 -0.14150273080E+02  0.60646768813E+02  0.24557335625E+02  0.66942688391E+02  0.51100000000E-03 0.  1.
         11    1    3    3    0    0  0.14150273080E+02 -0.60646768813E+02  0.36312188186E+02  0.72089082439E+02  0.51100000000E-03 0. -1.
<mgrwt>
<rscale>  0 0.12499894E+03</rscale>
<asrwt>0</asrwt>
<pdfrwt beam="1">  1        4 0.15377023E-01 0.12499894E+03</pdfrwt>
<pdfrwt beam="2">  1       -4 0.60124806E-02 0.12499894E+03</pdfrwt>
<totfact> 0.10153935E+04</totfact>
</mgrwt>
</event>
<event>
 5    1  0.3296574E-054  0.1250145E+03  0.7818608E-02  0.1235047E+00
         -4   -1    0    0    0  501 -0.00000000000E+00  0.00000000000E+00  0.12963794571E+02  0.13041333125E+02  0.14200000000E+01 0.  1.
          4   -1    0    0  501    0  0.00000000000E+00 -0.00000000000E+00 -0.30041190658E+03  0.30041526262E+03  0.14200000000E+01 0. -1.
         25    2    1    2    0    0  0.00000000000E+00  0.00000000000E+00 -0.28744811201E+03  0.31345659575E+03  0.12501448044E+03 0.  0.
        -11    1    3    3    0    0  0.38510291860E+02 -0.40466805381E+02 -0.73403822376E+02  0.92242756120E+02  0.51100000000E-03 0.  1.
         11    1    3    3    0    0 -0.38510291860E+02  0.40466805381E+02 -0.21404428963E+03  0.22121383963E+03  0.51100000000E-03 0. -1.
<mgrwt>
<rscale>  0 0.12501448E+03</rscale>
<asrwt>0</asrwt>
<pdfrwt beam="2">  1        4 0.46223434E-01 0.12501448E+03</pdfrwt>
<pdfrwt beam="1">  1       -4 0.20006528E-02 0.12501448E+03</pdfrwt>
<totfact> 0.73917459E+03</totfact>
</mgrwt>
</event>
<event>
 5    1  0.3296574E-054  0.1250027E+03  0.7818608E-02  0.1235065E+00
         -4   -1    0    0    0  501 -0.00000000000E+00  0.00000000000E+00  0.24791087644E+02  0.24831722183E+02  0.14200000000E+01 0.  1.
          4   -1    0    0  501    0  0.00000000000E+00 -0.00000000000E+00 -0.15740074703E+03  0.15740715221E+03  0.14200000000E+01 0. -1.
         25    2    1    2    0    0  0.00000000000E+00  0.00000000000E+00 -0.13260965939E+03  0.18223887439E+03  0.12500274228E+03 0.  0.
        -11    1    3    3    0    0  0.39725676381E+02  0.47751445931E+02 -0.76414928054E+02  0.98476246792E+02  0.51100000000E-03 0.  1.
         11    1    3    3    0    0 -0.39725676381E+02 -0.47751445931E+02 -0.56194731334E+02  0.83762627600E+02  0.51100000000E-03 0. -1.
<mgrwt>
<rscale>  0 0.12500274E+03</rscale>
<asrwt>0</asrwt>
<pdfrwt beam="2">  1        4 0.24219117E-01 0.12500274E+03</pdfrwt>
<pdfrwt beam="1">  1       -4 0.38176320E-02 0.12500274E+03</pdfrwt>
<totfact> 0.93209814E+03</totfact>
</mgrwt>
</event>
<event>
 5    1  0.3296574E-054  0.1250006E+03  0.7818608E-02  0.1235068E+00
          4   -1    0    0  501    0  0.00000000000E+00  0.00000000000E+00  0.12511252337E+03  0.12512058146E+03  0.14200000000E+01 0. -1.
         -4   -1    0    0    0  501 -0.00000000000E+00 -0.00000000000E+00 -0.31196967870E+02  0.31229268392E+02  0.14200000000E+01 0.  1.
         25    2    1    2    0    0  0.00000000000E+00  0.00000000000E+00  0.93915555501E+02  0.15634984985E+03  0.12500057593E+03 0.  0.
        -11    1    3    3    0    0  0.11686368917E+02  0.52054491674E+02  0.62340487618E+01  0.53713170509E+02  0.51100000000E-03 0.  1.
         11    1    3    3    0    0 -0.11686368917E+02 -0.52054491674E+02  0.87681506739E+02  0.10263667934E+03  0.51100000000E-03 0. -1.
<mgrwt>
<rscale>  0 0.12500058E+03</rscale>
<asrwt>0</asrwt>
<pdfrwt beam="1">  1        4 0.19251184E-01 0.12500058E+03</pdfrwt>
<pdfrwt beam="2">  1       -4 0.48026382E-02 0.12500058E+03</pdfrwt>
<totfact> 0.98049887E+03</totfact>
</mgrwt>
</event>
<event>
 5    1  0.3296574E-054  0.1250001E+03  0.7818608E-02  0.1235069E+00
          4   -1    0    0  501    0  0.00000000000E+00  0.00000000000E+00  0.95491495967E+02  0.95502053392E+02  0.14200000000E+01 0. -1.
         -4   -1    0    0    0  501 -0.00000000000E+00 -0.00000000000E+00 -0.40881728134E+02  0.40906382084E+02  0.14200000000E+01 0.  1.
         25    2    1    2    0    0  0.00000000000E+00  0.00000000000E+00  0.54609767834E+02  0.13640843548E+03  0.12500013810E+03 0.  0.
        -11    1    3    3    0    0 -0.58617709365E+02  0.19850680118E+01  0.50869219181E+02  0.77637966270E+02  0.51100000000E-03 0.  1.
         11    1    3    3    0    0  0.58617709365E+02 -0.19850680118E+01  0.37405486526E+01  0.58770469206E+02  0.51100000000E-03 0. -1.
<mgrwt>
<rscale>  0 0.12500014E+03</rscale>
<asrwt>0</asrwt>
<pdfrwt beam="1">  1        4 0.14693708E-01 0.12500014E+03</pdfrwt>
<pdfrwt beam="2">  1       -4 0.62922053E-02 0.12500014E+03</pdfrwt>
<totfact> 0.10208437E+04</totfact>
</mgrwt>
</event>
<event>
 5    1  0.3296574E-054  0.1249994E+03  0.7818608E-02  0.1235070E+00
         -4   -1    0    0    0  501 -0.00000000000E+00  0.00000000000E+00  0.15491977839E+03  0.15492628614E+03  0.14200000000E+01 0.  1.
          4   -1    0    0  501    0  0.00000000000E+00 -0.00000000000E+00 -0.25187388674E+02  0.25227384886E+02  0.14200000000E+01 0. -1.
         25    2    1    2    0    0  0.00000000000E+00  0.00000000000E+00  0.12973238971E+03  0.18015367102E+03  0.12499940897E+03 0.  0.
        -11    1    3    3    0    0  0.32881595478E+00  0.48756959299E+02  0.12121952224E+03  0.13065803371E+03  0.51100000000E-03 0.  1.
         11    1    3    3    0    0 -0.32881595478E+00 -0.48756959299E+02  0.85128674706E+01  0.49495637311E+02  0.51100000000E-03 0. -1.
<mgrwt>
<rscale>  0 0.12499941E+03</rscale>
<asrwt>0</asrwt>
<pdfrwt beam="2">  1        4 0.38785601E-02 0.12499941E+03</pdfrwt>
<pdfrwt beam="1">  1       -4 0.23837389E-01 0.12499941E+03</pdfrwt>
<totfact> 0.93590589E+03</totfact>
</mgrwt>
</event>
<event>
 5    1  0.3296574E-054  0.1250021E+03  0.7818608E-02  0.1235066E+00
          4   -1    0    0  501    0  0.00000000000E+00  0.00000000000E+00  0.61061842363E+02  0.61078351261E+02  0.14200000000E+01 0. -1.
         -4   -1    0    0    0  501 -0.00000000000E+00 -0.00000000000E+00 -0.63941173972E+02  0.63956939646E+02  0.14200000000E+01 0.  1.
         25    2    1    2    0    0  0.00000000000E+00  0.00000000000E+00 -0.28793316090E+01  0.12503529091E+03  0.12500213367E+03 0.  0.
        -11    1    3    3    0    0  0.13566205341E+02  0.45206731330E+02 -0.42422388339E+02  0.63461401793E+02  0.51100000000E-03 0.  1.
         11    1    3    3    0    0 -0.13566205341E+02 -0.45206731330E+02  0.39543056730E+02  0.61573889115E+02  0.51100000000E-03 0. -1.
<mgrwt>
<rscale>  0 0.12500213E+03</rscale>
<asrwt>0</asrwt>
<pdfrwt beam="1">  1        4 0.93966122E-02 0.12500213E+03</pdfrwt>
<pdfrwt beam="2">  1       -4 0.98395864E-02 0.12500213E+03</pdfrwt>
<totfact> 0.10451592E+04</totfact>
</mgrwt>
</event>
<event>
 5    1  0.3296574E-054  0.1250058E+03  0.7818608E-02  0.1235060E+00
         -4   -1    0    0    0  501 -0.00000000000E+00  0.00000000000E+00  0.38394371355E+03  0.38394633945E+03  0.14200000000E+01 0.  1.
          4   -1    0    0  501    0  0.00000000000E+00 -0.00000000000E+00 -0.10122748645E+02  0.10221860893E+02  0.14200000000E+01 0. -1.
         25    2    1    2    0    0  0.00000000000E+00  0.00000000000E+00  0.37382096491E+03  0.39416820034E+03  0.12500582529E+03 0.  0.
        -11    1    3    3    0    0  0.57164780096E+02 -0.23678905530E+02  0.15904229967E+03  0.17065449228E+03  0.51100000000E-03 0.  1.
         11    1    3    3    0    0 -0.57164780096E+02  0.23678905530E+02  0.21477866524E+03  0.22351370806E+03  0.51100000000E-03 0. -1.
<mgrwt>
<rscale>  0 0.12500583E+03</rscale>
<asrwt>0</asrwt>
<pdfrwt beam="2">  1        4 0.15651720E-02 0.12500583E+03</pdfrwt>
<pdfrwt beam="1">  1       -4 0.59076088E-01 0.12500583E+03</pdfrwt>
<totfact> 0.65115585E+03</totfact>
</mgrwt>
</event>
<event>
 5    1  0.3296574E-054  0.1249949E+03  0.7818608E-02  0.1235077E+00
          4   -1    0    0  501    0  0.00000000000E+00  0.00000000000E+00  0.20053329050E+03  0.20053831803E+03  0.14200000000E+01 0. -1.
         -4   -1    0    0    0  501 -0.00000000000E+00 -0.00000000000E+00 -0.19446561570E+02  0.19498337285E+02  0.14200000000E+01 0.  1.
         25    2    1    2    0    0  0.00000000000E+00  0.00000000000E+00  0.18108672893E+03  0.22003665531E+03  0.12499490505E+03 0.  0.
        -11    1    3    3    0    0 -0.39947672712E+02 -0.21484243278E+02  0.14857038963E+02  0.47729664480E+02  0.51100000000E-03 0.  1.
         11    1    3    3    0    0  0.39947672712E+02  0.21484243278E+02  0.16622968996E+03  0.17230699083E+03  0.51100000000E-03 0. -1.
<mgrwt>
<rscale>  0 0.12499491E+03</rscale>
<asrwt>0</asrwt>
<pdfrwt beam="1">  1        4 0.30855644E-01 0.12499491E+03</pdfrwt>
<pdfrwt beam="2">  1       -4 0.29961483E-02 0.12499491E+03</pdfrwt>
<totfact> 0.86872436E+03</totfact>
</mgrwt>
</event>
<event>
 5    1  0.3296574E-054  0.1249989E+03  0.7818608E-02  0.1235071E+00
         -4   -1    0    0    0  501 -0.00000000000E+00  0.00000000000E+00  0.72915443455E+01  0.74285273737E+01  0.14200000000E+01 0. -1.
          4   -1    0    0  501    0  0.00000000000E+00 -0.00000000000E+00 -0.53059096185E+03  0.53059286199E+03  0.14200000000E+01 0.  1.
         25    2    1    2    0    0  0.00000000000E+00  0.00000000000E+00 -0.52329941750E+03  0.53802138937E+03  0.12499894021E+03 0.  0.
        -11    1    3    3    0    0 -0.41639082512E+02  0.44367516637E+02 -0.20018929571E+03  0.20923203350E+03  0.51100000000E-03 0. -1.
         11    1    3    3    0    0  0.41639082512E+02 -0.44367516637E+02 -0.32311012180E+03  0.32878935587E+03  0.51100000000E-03 0.  1.
<mgrwt>
<rscale>  0 0.12499894E+03</rscale>
<asrwt>0</asrwt>
<pdfrwt beam="2">  1        4 0.81640032E-01 0.12499894E+03</pdfrwt>
<pdfrwt beam="1">  1       -4 0.11324598E-02 0.12499894E+03</pdfrwt>
<totfact> 0.53031760E+03</totfact>
</mgrwt>
</event>
<event>
 5    1  0.3296574E-054  0.1250009E+03  0.7818608E-02  0.1235068E+00
         -4   -1    0    0    0  501 -0.00000000000E+00  0.00000000000E+00  0.29068128990E+02  0.29102792357E+02  0.14200000000E+01 0.  1.
          4   -1    0    0  501    0  0.00000000000E+00 -0.00000000000E+00 -0.13426604367E+03  0.13427355244E+03  0.14200000000E+01 0. -1.
         25    2    1    2    0    0  0.00000000000E+00  0.00000000000E+00 -0.10519791468E+03  0.16337634479E+03  0.12500091513E+03 0.  0.
        -11    1    3    3    0    0  0.51088513427E+02  0.15573483575E+02 -0.10171967346E+02  0.54369463073E+02  0.51100000000E-03 0.  1.
         11    1    3    3    0    0 -0.51088513427E+02 -0.15573483575E+02 -0.95025947336E+02  0.10900688172E+03  0.51100000000E-03 0. -1.
<mgrwt>
<rscale>  0 0.12500092E+03</rscale>
<asrwt>0</asrwt>
<pdfrwt beam="2">  1        4 0.20659558E-01 0.12500092E+03</pdfrwt>
<pdfrwt beam="1">  1       -4 0.44752639E-02 0.12500092E+03</pdfrwt>
<totfact> 0.96693785E+03</totfact>
</mgrwt>
</event>
<event>
 5    1  0.3296574E-054  0.1250017E+03  0.7818608E-02  0.1235067E+00
          4   -1    0    0  501    0  0.00000000000E+00  0.00000000000E+00  0.20496057484E+02  0.20545188546E+02  0.14200000000E+01 0.  1.
         -4   -1    0    0    0  501 -0.00000000000E+00 -0.00000000000E+00 -0.19031076790E+03  0.19031606548E+03  0.14200000000E+01 0. -1.
         25    2    1    2    0    0  0.00000000000E+00  0.00000000000E+00 -0.16981471042E+03  0.21086125403E+03  0.12500173029E+03 0.  0.
        -11    1    3    3    0    0  0.59590256919E+01 -0.57074349101E+02 -0.12668470668E+03  0.13907554142E+03  0.51100000000E-03 0. -1.
         11    1    3    3    0    0 -0.59590256919E+01  0.57074349101E+02 -0.43130003735E+02  0.71785712610E+02  0.51100000000E-03 0.  1.
<mgrwt>
<rscale>  0 0.12500173E+03</rscale>
<asrwt>0</asrwt>
<pdfrwt beam="1">  1        4 0.31574266E-02 0.12500173E+03</pdfrwt>
<pdfrwt beam="2">  1       -4 0.29282765E-01 0.12500173E+03</pdfrwt>
<totfact> 0.88332004E+03</totfact>
</mgrwt>
</event>
<event>
 5    1  0.3297715E-054  0.1249997E+03  0.7818608E-02  0.1235070E+00
          4   -1    0    0  501    0  0.00000000000E+00  0.00000000000E+00  0.64620314044E+02  0.64635914066E+02  0.14200000000E+01 0. -1.
         -4   -1    0    0    0  501 -0.00000000000E+00 -0.00000000000E+00 -0.60417761659E+02  0.60434446501E+02  0.14200000000E+01 0.  1.
         25    2    1    2    0    0  0.00000000000E+00  0.00000000000E+00  0.42025523852E+01  0.12507036057E+03  0.12499973458E+03 0.  0.
        -11    1    3    3    0    0  0.36317132407E+02  0.48263197418E+02 -0.13969027639E+02  0.61995193884E+02  0.51100000000E-03 0.  1.
         11    1    3    3    0    0 -0.36317132407E+02 -0.48263197418E+02  0.18171580024E+02  0.63075166683E+02  0.51100000000E-03 0. -1.
<mgrwt>
<rscale>  0 0.12499973E+03</rscale>
<asrwt>0</asrwt>
<pdfrwt beam="1">  1        4 0.99440701E-02 0.12499973E+03</pdfrwt>
<pdfrwt beam="2">  1       -4 0.92975238E-02 0.12499973E+03</pdfrwt>
<totfact> 0.10451397E+04</totfact>
</mgrwt>
</event>
<event>
 5    1  0.3296574E-054  0.1250044E+03  0.7818608E-02  0.1235062E+00
         -4   -1    0    0    0  501 -0.00000000000E+00  0.00000000000E+00  0.27297422374E+03  0.27297791710E+03  0.14200000000E+01 0.  1.
          4   -1    0    0  501    0  0.00000000000E+00 -0.00000000000E+00 -0.14271933766E+02  0.14342401941E+02  0.14200000000E+01 0. -1.
         25    2    1    2    0    0  0.00000000000E+00  0.00000000000E+00  0.25870228997E+03  0.28732031904E+03  0.12500436352E+03 0.  0.
        -11    1    3    3    0    0 -0.53346512024E+02  0.32474127943E+02  0.13502955638E+03  0.14877298285E+03  0.51100000000E-03 0.  1.
         11    1    3    3    0    0  0.53346512024E+02 -0.32474127943E+02  0.12367273359E+03  0.13854733619E+03  0.51100000000E-03 0. -1.
<mgrwt>
<rscale>  0 0.12500436E+03</rscale>
<asrwt>0</asrwt>
<pdfrwt beam="2">  1        4 0.22013869E-02 0.12500436E+03</pdfrwt>
<pdfrwt beam="1">  1       -4 0.42001738E-01 0.12500436E+03</pdfrwt>
<totfact> 0.77209903E+03</totfact>
</mgrwt>
</event>
<event>
 5    1  0.3296574E-054  0.1249976E+03  0.7818608E-02  0.1235073E+00
          4   -1    0    0  501    0  0.00000000000E+00  0.00000000000E+00  0.39042917137E+02  0.39068731469E+02  0.14200000000E+01 0. -1.
         -4   -1    0    0    0  501 -0.00000000000E+00 -0.00000000000E+00 -0.99982379159E+02  0.99992462428E+02  0.14200000000E+01 0.  1.
         25    2    1    2    0    0  0.00000000000E+00  0.00000000000E+00 -0.60939462022E+02  0.13906119390E+03  0.12499759044E+03 0.  0.
        -11    1    3    3    0    0 -0.61196969982E+02  0.50564435933E+01 -0.17521391116E+02  0.63856369328E+02  0.51100000000E-03 0.  1.
         11    1    3    3    0    0  0.61196969982E+02 -0.50564435933E+01 -0.43418070906E+02  0.75204824568E+02  0.51100000000E-03 0. -1.
<mgrwt>
<rscale>  0 0.12499759E+03</rscale>
<asrwt>0</asrwt>
<pdfrwt beam="1">  1        4 0.60093640E-02 0.12499759E+03</pdfrwt>
<pdfrwt beam="2">  1       -4 0.15384666E-01 0.12499759E+03</pdfrwt>
<totfact> 0.10153631E+04</totfact>
</mgrwt>
</event>
<event>
 5    1  0.3296574E-054  0.1250007E+03  0.7818608E-02  0.1235068E+00
          4   -1    0    0  501    0  0.00000000000E+00  0.00000000000E+00  0.14725878847E+02  0.14794184932E+02  0.14200000000E+01 0. -1.
         -4   -1    0    0    0  501 -0.00000000000E+00 -0.00000000000E+00 -0.26458325965E+03  0.26458707014E+03  0.14200000000E+01 0.  1.
         25    2    1    2    0    0  0.00000000000E+00  0.00000000000E+00 -0.24985738080E+03  0.27938125507E+03  0.12500069978E+03 0.  0.
        -11    1    3    3    0    0  0.53702532856E+02  0.31931364629E+02 -0.12861457420E+03  0.14298700213E+03  0.51100000000E-03 0.  1.
         11    1    3    3    0    0 -0.53702532856E+02 -0.31931364629E+02 -0.12124280660E+03  0.13639425294E+03  0.51100000000E-03 0. -1.
<mgrwt>
<rscale>  0 0.12500070E+03</rscale>
<asrwt>0</asrwt>
<pdfrwt beam="1">  1        4 0.22710674E-02 0.12500070E+03</pdfrwt>
<pdfrwt beam="2">  1       -4 0.40710661E-01 0.12500070E+03</pdfrwt>
<totfact> 0.78259002E+03</totfact>
</mgrwt>
</event>
<event>
 5    1  0.3296574E-054  0.1249986E+03  0.7818608E-02  0.1235072E+00
          4   -1    0    0  501    0  0.00000000000E+00  0.00000000000E+00  0.89220171982E+02  0.89231471402E+02  0.14200000000E+01 0. -1.
         -4   -1    0    0    0  501 -0.00000000000E+00 -0.00000000000E+00 -0.43755550905E+02  0.43778586489E+02  0.14200000000E+01 0.  1.
         25    2    1    2    0    0  0.00000000000E+00  0.00000000000E+00  0.45464621077E+02  0.13301005789E+03  0.12499857491E+03 0.  0.
        -11    1    3    3    0    0 -0.32202321740E+02  0.50425122572E+02  0.35055259294E+01  0.59933056189E+02  0.51100000000E-03 0.  1.
         11    1    3    3    0    0  0.32202321740E+02 -0.50425122572E+02  0.41959095148E+02  0.73077001702E+02  0.51100000000E-03 0. -1.
<mgrwt>
<rscale>  0 0.12499857E+03</rscale>
<asrwt>0</asrwt>
<pdfrwt beam="1">  1        4 0.13728821E-01 0.12499857E+03</pdfrwt>
<pdfrwt beam="2">  1       -4 0.67342644E-02 0.12499857E+03</pdfrwt>
<totfact> 0.10280517E+04</totfact>
</mgrwt>
</event>
<event>
 5    1  0.3296574E-054  0.1249996E+03  0.7818608E-02  0.1235070E+00
          4   -1    0    0  501    0  0.00000000000E+00  0.00000000000E+00  0.52424413343E+02  0.52443641314E+02  0.14200000000E+01 0.  1.
         -4   -1    0    0    0  501 -0.00000000000E+00 -0.00000000000E+00 -0.74471899225E+02  0.74485435987E+02  0.14200000000E+01 0. -1.
         25    2    1    2    0    0  0.00000000000E+00  0.00000000000E+00 -0.22047485882E+02  0.12692907730E+03  0.12499959612E+03 0.  0.
        -11    1    3    3    0    0  0.62391335053E+02  0.34157513401E+01 -0.96319249448E+01  0.63222780905E+02  0.51100000000E-03 0. -1.
         11    1    3    3    0    0 -0.62391335053E+02 -0.34157513401E+01 -0.12415560938E+02  0.63706296397E+02  0.51100000000E-03 0.  1.
<mgrwt>
<rscale>  0 0.12499960E+03</rscale>
<asrwt>0</asrwt>
<pdfrwt beam="1">  1        4 0.80678147E-02 0.12499960E+03</pdfrwt>
<pdfrwt beam="2">  1       -4 0.11459736E-01 0.12499960E+03</pdfrwt>
<totfact> 0.10410782E+04</totfact>
</mgrwt>
</event>
<event>
 5    1  0.4506100E-054  0.1249977E+03  0.7818608E-02  0.1235073E+00
          4   -1    0    0  501    0  0.00000000000E+00  0.00000000000E+00  0.16041566434E+02  0.16104293019E+02  0.14200000000E+01 0. -1.
         -4   -1    0    0    0  501 -0.00000000000E+00 -0.00000000000E+00 -0.24295900639E+03  0.24296315603E+03  0.14200000000E+01 0.  1.
         25    2    1    2    0    0  0.00000000000E+00  0.00000000000E+00 -0.22691743996E+03  0.25906744905E+03  0.12499767437E+03 0.  0.
        -11    1    3    3    0    0  0.65879235582E+01 -0.47061349304E+02 -0.19759450139E+03  0.20322834034E+03  0.51100000000E-03 0.  1.
         11    1    3    3    0    0 -0.65879235582E+01  0.47061349304E+02 -0.29322938564E+02  0.55839108709E+02  0.51100000000E-03 0. -1.
<mgrwt>
<rscale>  0 0.12499767E+03</rscale>
<asrwt>0</asrwt>
<pdfrwt beam="1">  1        4 0.24730778E-02 0.12499767E+03</pdfrwt>
<pdfrwt beam="2">  1       -4 0.37383450E-01 0.12499767E+03</pdfrwt>
<totfact> 0.81041306E+03</totfact>
</mgrwt>
</event>
<event>
 5    1  0.3296574E-054  0.1250000E+03  0.7818608E-02  0.1235069E+00
          4   -1    0    0  501    0  0.00000000000E+00  0.00000000000E+00  0.17667512272E+02  0.17724485602E+02  0.14200000000E+01 0. -1.
         -4   -1    0    0    0  501 -0.00000000000E+00 -0.00000000000E+00 -0.22068288619E+03  0.22068745469E+03  0.14200000000E+01 0.  1.
         25    2    1    2    0    0  0.00000000000E+00  0.00000000000E+00 -0.20301537392E+03  0.23841194029E+03  0.12500004491E+03 0.  0.
        -11    1    3    3    0    0 -0.46353663748E+02  0.27209190338E+02 -0.16233964782E+03  0.17100632572E+03  0.51100000000E-03 0.  1.
         11    1    3    3    0    0  0.46353663748E+02 -0.27209190338E+02 -0.40675726096E+02  0.67405614569E+02  0.51100000000E-03 0. -1.
<mgrwt>
<rscale>  0 0.12500004E+03</rscale>
<asrwt>0</asrwt>
<pdfrwt beam="1">  1        4 0.27228130E-02 0.12500004E+03</pdfrwt>
<pdfrwt beam="2">  1       -4 0.33955945E-01 0.12500004E+03</pdfrwt>
<totfact> 0.84034367E+03</totfact>
</mgrwt>
</event>
<event>
 5    1  0.3296574E-054  0.1250075E+03  0.7818608E-02  0.1235058E+00
         -4   -1    0    0    0  501 -0.00000000000E+00  0.00000000000E+00  0.12644729030E+03  0.12645526333E+03  0.14200000000E+01 0.  1.
          4   -1    0    0  501    0  0.00000000000E+00 -0.00000000000E+00 -0.30870736782E+02  0.30903378285E+02  0.14200000000E+01 0. -1.
         25    2    1    2    0    0  0.00000000000E+00  0.00000000000E+00  0.95576553514E+02  0.15735864161E+03  0.12500745781E+03 0.  0.
        -11    1    3    3    0    0 -0.46051206674E+02 -0.15304253207E+02  0.97375532582E+02  0.10879764771E+03  0.51100000000E-03 0.  1.
         11    1    3    3    0    0  0.46051206674E+02  0.15304253207E+02 -0.17989790675E+01  0.48560993898E+02  0.51100000000E-03 0. -1.
<mgrwt>
<rscale>  0 0.12500746E+03</rscale>
<asrwt>0</asrwt>
<pdfrwt beam="2">  1        4 0.47524684E-02 0.12500746E+03</pdfrwt>
<pdfrwt beam="1">  1       -4 0.19456553E-01 0.12500746E+03</pdfrwt>
<totfact> 0.97838042E+03</totfact>
</mgrwt>
</event>
<event>
 5    1  0.3296574E-054  0.1250019E+03  0.7818608E-02  0.1235066E+00
         -4   -1    0    0    0  501 -0.00000000000E+00  0.00000000000E+00  0.10623744883E+02  0.10718225382E+02  0.14200000000E+01 0.  1.
          4   -1    0    0  501    0  0.00000000000E+00 -0.00000000000E+00 -0.36597793847E+03  0.36598069327E+03  0.14200000000E+01 0. -1.
         25    2    1    2    0    0  0.00000000000E+00  0.00000000000E+00 -0.35535419359E+03  0.37669891865E+03  0.12500188964E+03 0.  0.
        -11    1    3    3    0    0  0.45968589588E+02  0.16690726756E+02 -0.60393374443E+02  0.77711332926E+02  0.51100000000E-03 0.  1.
         11    1    3    3    0    0 -0.45968589588E+02 -0.16690726756E+02 -0.29496081915E+03  0.29898758573E+03  0.51100000000E-03 0. -1.
<mgrwt>
<rscale>  0 0.12500189E+03</rscale>
<asrwt>0</asrwt>
<pdfrwt beam="2">  1        4 0.56311768E-01 0.12500189E+03</pdfrwt>
<pdfrwt beam="1">  1       -4 0.16419022E-02 0.12500189E+03</pdfrwt>
<totfact> 0.66881091E+03</totfact>
</mgrwt>
</event>
<event>
 5    1  0.3296574E-054  0.1249992E+03  0.7818608E-02  0.1235070E+00
          4   -1    0    0  501    0  0.00000000000E+00  0.00000000000E+00  0.15192793419E+03  0.15193457008E+03  0.14200000000E+01 0. -1.
         -4   -1    0    0    0  501 -0.00000000000E+00 -0.00000000000E+00 -0.25684082586E+02  0.25723306519E+02  0.14200000000E+01 0.  1.
         25    2    1    2    0    0  0.00000000000E+00  0.00000000000E+00  0.12624385160E+03  0.17765787660E+03  0.12499924420E+03 0.  0.
        -11    1    3    3    0    0 -0.49924980404E+02 -0.37217648223E+02  0.55528323507E+02  0.83432917481E+02  0.51100000000E-03 0.  1.
         11    1    3    3    0    0  0.49924980404E+02  0.37217648223E+02  0.70715528093E+02  0.94224959120E+02  0.51100000000E-03 0. -1.
<mgrwt>
<rscale>  0 0.12499924E+03</rscale>
<asrwt>0</asrwt>
<pdfrwt beam="1">  1        4 0.23377056E-01 0.12499924E+03</pdfrwt>
<pdfrwt beam="2">  1       -4 0.39549250E-02 0.12499924E+03</pdfrwt>
<totfact> 0.94041894E+03</totfact>
</mgrwt>
</event>
<event>
 5    1  0.3296574E-054  0.1249937E+03  0.7818608E-02  0.1235079E+00
          4   -1    0    0  501    0  0.00000000000E+00  0.00000000000E+00  0.38428971112E+03  0.38429233465E+03  0.14200000000E+01 0. -1.
         -4   -1    0    0    0  501 -0.00000000000E+00 -0.00000000000E+00 -0.10111567170E+02  0.10210787953E+02  0.14200000000E+01 0.  1.
         25    2    1    2    0    0  0.00000000000E+00  0.00000000000E+00  0.37417814395E+03  0.39450312261E+03  0.12499372118E+03 0.  0.
        -11    1    3    3    0    0  0.46026703832E+02 -0.39189905065E+02  0.13703082141E+03  0.14977233437E+03  0.51100000000E-03 0.  1.
         11    1    3    3    0    0 -0.46026703832E+02  0.39189905065E+02  0.23714732254E+03  0.24473078824E+03  0.51100000000E-03 0. -1.
<mgrwt>
<rscale>  0 0.12499372E+03</rscale>
<asrwt>0</asrwt>
<pdfrwt beam="1">  1        4 0.59129309E-01 0.12499372E+03</pdfrwt>
<pdfrwt beam="2">  1       -4 0.15634604E-02 0.12499372E+03</pdfrwt>
<totfact> 0.65099979E+03</totfact>
</mgrwt>
</event>
<event>
 5    1  0.3296574E-054  0.1250037E+03  0.7818608E-02  0.1235063E+00
          4   -1    0    0  501    0  0.00000000000E+00  0.00000000000E+00  0.94120392873E+02  0.94131104076E+02  0.14200000000E+01 0. -1.
         -4   -1    0    0    0  501 -0.00000000000E+00 -0.00000000000E+00 -0.41479955668E+02  0.41504254267E+02  0.14200000000E+01 0.  1.
         25    2    1    2    0    0  0.00000000000E+00  0.00000000000E+00  0.52640437205E+02  0.13563535834E+03  0.12500373916E+03 0.  0.
        -11    1    3    3    0    0  0.56909489450E+02 -0.23955060940E+02  0.15803131845E+02  0.63735970303E+02  0.51100000000E-03 0.  1.
         11    1    3    3    0    0 -0.56909489450E+02  0.23955060940E+02  0.36837305360E+02  0.71899388040E+02  0.51100000000E-03 0. -1.
<mgrwt>
<rscale>  0 0.12500374E+03</rscale>
<asrwt>0</asrwt>
<pdfrwt beam="1">  1        4 0.14482753E-01 0.12500374E+03</pdfrwt>
<pdfrwt beam="2">  1       -4 0.63842248E-02 0.12500374E+03</pdfrwt>
<totfact> 0.10223834E+04</totfact>
</mgrwt>
</event>
<event>
 5    1  0.3296574E-054  0.1249936E+03  0.7818608E-02  0.1235079E+00
          4   -1    0    0  501    0  0.00000000000E+00  0.00000000000E+00  0.77235908922E+01  0.78530412116E+01  0.14200000000E+01 0. -1.
         -4   -1    0    0    0  501 -0.00000000000E+00 -0.00000000000E+00 -0.50137037116E+03  0.50137238204E+03  0.14200000000E+01 0.  1.
         25    2    1    2    0    0  0.00000000000E+00  0.00000000000E+00 -0.49364678026E+03  0.50922542325E+03  0.12499355192E+03 0.  0.
        -11    1    3    3    0    0  0.29864055395E+02  0.52141779369E+02 -0.31682296287E+03  0.32247079986E+03  0.51100000000E-03 0.  1.
         11    1    3    3    0    0 -0.29864055395E+02 -0.52141779369E+02 -0.17682381740E+03  0.18675462340E+03  0.51100000000E-03 0. -1.
<mgrwt>
<rscale>  0 0.12499355E+03</rscale>
<asrwt>0</asrwt>
<pdfrwt beam="1">  1        4 0.11983575E-02 0.12499355E+03</pdfrwt>
<pdfrwt beam="2">  1       -4 0.77143991E-01 0.12499355E+03</pdfrwt>
<totfact> 0.55163454E+03</totfact>
</mgrwt>
</event>
<event>
 5    1  0.3296574E-054  0.1249986E+03  0.7818608E-02  0.1235071E+00
         -4   -1    0    0    0  501 -0.00000000000E+00  0.00000000000E+00  0.94819352746E+01  0.95876741993E+01  0.14200000000E+01 0.  1.
          4   -1    0    0  501    0  0.00000000000E+00 -0.00000000000E+00 -0.40956724161E+03  0.40956970323E+03  0.14200000000E+01 0. -1.
         25    2    1    2    0    0  0.00000000000E+00  0.00000000000E+00 -0.40008530634E+03  0.41915737742E+03  0.12499861881E+03 0.  0.
        -11    1    3    3    0    0 -0.31039965200E+02 -0.53279806734E+02 -0.16585441740E+03  0.17694605115E+03  0.51100000000E-03 0.  1.
         11    1    3    3    0    0  0.31039965200E+02  0.53279806734E+02 -0.23423088894E+03  0.24221132628E+03  0.51100000000E-03 0. -1.
<mgrwt>
<rscale>  0 0.12499862E+03</rscale>
<asrwt>0</asrwt>
<pdfrwt beam="2">  1        4 0.63018654E-01 0.12499862E+03</pdfrwt>
<pdfrwt beam="1">  1       -4 0.14670827E-02 0.12499862E+03</pdfrwt>
<totfact> 0.62733176E+03</totfact>
</mgrwt>
</event>
<event>
 5    1  0.3296574E-054  0.1249998E+03  0.7818608E-02  0.1235070E+00
          4   -1    0    0  501    0  0.00000000000E+00  0.00000000000E+00  0.22204898304E+03  0.22205352343E+03  0.14200000000E+01 0. -1.
         -4   -1    0    0    0  501 -0.00000000000E+00 -0.00000000000E+00 -0.17558397333E+02  0.17615723570E+02  0.14200000000E+01 0.  1.
         25    2    1    2    0    0  0.00000000000E+00  0.00000000000E+00  0.20449058570E+03  0.23966924700E+03  0.12499979326E+03 0.  0.
        -11    1    3    3    0    0 -0.52320449016E+02  0.33150535388E+02  0.86220763619E+02  0.10616217528E+03  0.51100000000E-03 0.  1.
         11    1    3    3    0    0  0.52320449016E+02 -0.33150535388E+02  0.11826982209E+03  0.13350707172E+03  0.51100000000E-03 0. -1.
<mgrwt>
<rscale>  0 0.12499979E+03</rscale>
<asrwt>0</asrwt>
<pdfrwt beam="1">  1        4 0.34166138E-01 0.12499979E+03</pdfrwt>
<pdfrwt beam="2">  1       -4 0.27060511E-02 0.12499979E+03</pdfrwt>
<totfact> 0.83847040E+03</totfact>
</mgrwt>
</event>
<event>
 5    1  0.3296574E-054  0.1250007E+03  0.7818608E-02  0.1235068E+00
          4   -1    0    0  501    0  0.00000000000E+00  0.00000000000E+00  0.12274708222E+03  0.12275529558E+03  0.14200000000E+01 0. -1.
         -4   -1    0    0    0  501 -0.00000000000E+00 -0.00000000000E+00 -0.31798806207E+02  0.31830496009E+02  0.14200000000E+01 0.  1.
         25    2    1    2    0    0  0.00000000000E+00  0.00000000000E+00  0.90948276011E+02  0.15458579159E+03  0.12500071221E+03 0.  0.
        -11    1    3    3    0    0  0.37564743367E+02  0.46845693916E+02  0.66917797738E+02  0.89908957491E+02  0.51100000000E-03 0.  1.
         11    1    3    3    0    0 -0.37564743367E+02 -0.46845693916E+02  0.24030478273E+02  0.64676834098E+02  0.51100000000E-03 0. -1.
<mgrwt>
<rscale>  0 0.12500071E+03</rscale>
<asrwt>0</asrwt>
<pdfrwt beam="1">  1        4 0.18887236E-01 0.12500071E+03</pdfrwt>
<pdfrwt beam="2">  1       -4 0.48951934E-02 0.12500071E+03</pdfrwt>
<totfact> 0.98395298E+03</totfact>
</mgrwt>
</event>
<event>
 5    1  0.3296574E-054  0.1250038E+03  0.7818608E-02  0.1235063E+00
         -4   -1    0    0    0  501 -0.00000000000E+00  0.00000000000E+00  0.17343193224E+03  0.17343774537E+03  0.14200000000E+01 0.  1.
          4   -1    0    0  501    0  0.00000000000E+00 -0.00000000000E+00 -0.22496041028E+02  0.22540813249E+02  0.14200000000E+01 0. -1.
         25    2    1    2    0    0  0.00000000000E+00  0.00000000000E+00  0.15093589121E+03  0.19597855862E+03  0.12500380868E+03 0.  0.
        -11    1    3    3    0    0  0.19543667848E+01 -0.56070972266E+02  0.11865211039E+03  0.13124822582E+03  0.51100000000E-03 0.  1.
         11    1    3    3    0    0 -0.19543667848E+01  0.56070972266E+02  0.32283780818E+02  0.64730332801E+02  0.51100000000E-03 0. -1.
<mgrwt>
<rscale>  0 0.12500381E+03</rscale>
<asrwt>0</asrwt>
<pdfrwt beam="2">  1        4 0.34648205E-02 0.12500381E+03</pdfrwt>
<pdfrwt beam="1">  1       -4 0.26685727E-01 0.12500381E+03</pdfrwt>
<totfact> 0.90809601E+03</totfact>
</mgrwt>
</event>
<event>
 5    1  0.3296574E-054  0.1249991E+03  0.7818608E-02  0.1235071E+00
         -4   -1    0    0    0  501 -0.00000000000E+00  0.00000000000E+00  0.72798045382E+01  0.74170043895E+01  0.14200000000E+01 0.  1.
          4   -1    0    0  501    0  0.00000000000E+00 -0.00000000000E+00 -0.53143190188E+03  0.53143379902E+03  0.14200000000E+01 0. -1.
         25    2    1    2    0    0  0.00000000000E+00  0.00000000000E+00 -0.52415209734E+03  0.53885080341E+03  0.12499906873E+03 0.  0.
        -11    1    3    3    0    0  0.42967765308E+02  0.44118339656E+02 -0.21614284605E+03  0.22474515935E+03  0.51100000000E-03 0.  1.
         11    1    3    3    0    0 -0.42967765308E+02 -0.44118339656E+02 -0.30800925129E+03  0.31410564406E+03  0.51100000000E-03 0. -1.
<mgrwt>
<rscale>  0 0.12499907E+03</rscale>
<asrwt>0</asrwt>
<pdfrwt beam="2">  1        4 0.81769424E-01 0.12499907E+03</pdfrwt>
<pdfrwt beam="1">  1       -4 0.11306701E-02 0.12499907E+03</pdfrwt>
<totfact> 0.52972280E+03</totfact>
</mgrwt>
</event>
<event>
 5    1  0.3296574E-054  0.1250000E+03  0.7818608E-02  0.1235069E+00
         -4   -1    0    0    0  501 -0.00000000000E+00  0.00000000000E+00  0.15221445089E+02  0.15287537100E+02  0.14200000000E+01 0. -1.
          4   -1    0    0  501    0  0.00000000000E+00 -0.00000000000E+00 -0.25600407134E+03  0.25600800952E+03  0.14200000000E+01 0.  1.
         25    2    1    2    0    0  0.00000000000E+00  0.00000000000E+00 -0.24078262625E+03  0.27129554662E+03  0.12500000206E+03 0.  0.
        -11    1    3    3    0    0 -0.17945505874E+02 -0.39995589614E+02 -0.23705010238E+02  0.49835889480E+02  0.51100000000E-03 0. -1.
         11    1    3    3    0    0  0.17945505874E+02  0.39995589614E+02 -0.21707761601E+03  0.22145965714E+03  0.51100000000E-03 0.  1.
<mgrwt>
<rscale>  0 0.12500000E+03</rscale>
<asrwt>0</asrwt>
<pdfrwt beam="2">  1        4 0.39390626E-01 0.12500000E+03</pdfrwt>
<pdfrwt beam="1">  1       -4 0.23471479E-02 0.12500000E+03</pdfrwt>
<totfact> 0.79346565E+03</totfact>
</mgrwt>
</event>
<event>
 5    1  0.3296574E-054  0.1250018E+03  0.7818608E-02  0.1235067E+00
         -4   -1    0    0    0  501 -0.00000000000E+00  0.00000000000E+00  0.33670189231E+03  0.33670488663E+03  0.14200000000E+01 0.  1.
          4   -1    0    0  501    0  0.00000000000E+00 -0.00000000000E+00 -0.11555328675E+02  0.11642251535E+02  0.14200000000E+01 0. -1.
         25    2    1    2    0    0  0.00000000000E+00  0.00000000000E+00  0.32514656363E+03  0.34834713817E+03  0.12500176330E+03 0.  0.
        -11    1    3    3    0    0 -0.52316241228E+02  0.33153860014E+02  0.13922569441E+03  0.15238097491E+03  0.51100000000E-03 0.  1.
         11    1    3    3    0    0  0.52316241228E+02 -0.33153860014E+02  0.18592086922E+03  0.19596616326E+03  0.51100000000E-03 0. -1.
<mgrwt>
<rscale>  0 0.12500176E+03</rscale>
<asrwt>0</asrwt>
<pdfrwt beam="2">  1        4 0.17846596E-02 0.12500176E+03</pdfrwt>
<pdfrwt beam="1">  1       -4 0.51807206E-01 0.12500176E+03</pdfrwt>
<totfact> 0.69904046E+03</totfact>
</mgrwt>
</event>
<event>
 5    1  0.3296574E-054  0.1250016E+03  0.7818608E-02  0.1235067E+00
         -4   -1    0    0    0  501 -0.00000000000E+00  0.00000000000E+00  0.19239587928E+02  0.19291919128E+02  0.14200000000E+01 0.  1.
          4   -1    0    0  501    0  0.00000000000E+00 -0.00000000000E+00 -0.20270655961E+03  0.20271153324E+03  0.14200000000E+01 0. -1.
         25    2    1    2    0    0  0.00000000000E+00  0.00000000000E+00 -0.18346697168E+03  0.22200345237E+03  0.12500161265E+03 0.  0.
        -11    1    3    3    0    0 -0.58783045970E+02 -0.12289103246E+02 -0.12248875164E+03  0.13641833759E+03  0.51100000000E-03 0.  1.
         11    1    3    3    0    0  0.58783045970E+02  0.12289103246E+02 -0.60978220041E+02  0.85585114779E+02  0.51100000000E-03 0. -1.
<mgrwt>
<rscale>  0 0.12500161E+03</rscale>
<asrwt>0</asrwt>
<pdfrwt beam="2">  1        4 0.31190031E-01 0.12500161E+03</pdfrwt>
<pdfrwt beam="1">  1       -4 0.29643448E-02 0.12500161E+03</pdfrwt>
<totfact> 0.86549203E+03</totfact>
</mgrwt>
</event>
<event>
 5    1  0.3296574E-054  0.1249989E+03  0.7818608E-02  0.1235071E+00
         -4   -1    0    0    0  501 -0.00000000000E+00  0.00000000000E+00  0.82408042793E+02  0.82420276127E+02  0.14200000000E+01 0. -1.
          4   -1    0    0  501    0  0.00000000000E+00 -0.00000000000E+00 -0.47374124226E+02  0.47395401108E+02  0.14200000000E+01 0.  1.
         25    2    1    2    0    0  0.00000000000E+00  0.00000000000E+00  0.35033918567E+02  0.12981567724E+03  0.12499893842E+03 0.  0.
        -11    1    3    3    0    0  0.56122272067E+01  0.61006844524E+02  0.30356681861E+02  0.68372950111E+02  0.51100000000E-03 0. -1.
         11    1    3    3    0    0 -0.56122272067E+01 -0.61006844524E+02  0.46772367058E+01  0.61442727124E+02  0.51100000000E-03 0.  1.
<mgrwt>
<rscale>  0 0.12499894E+03</rscale>
<asrwt>0</asrwt>
<pdfrwt beam="2">  1        4 0.72909047E-02 0.12499894E+03</pdfrwt>
<pdfrwt beam="1">  1       -4 0.12680738E-01 0.12499894E+03</pdfrwt>
<totfact> 0.10348700E+04</totfact>
</mgrwt>
</event>
<event>
 5    1  0.3296574E-054  0.1250014E+03  0.7818608E-02  0.1235067E+00
         -4   -1    0    0    0  501 -0.00000000000E+00  0.00000000000E+00  0.18033037532E+03  0.18033596608E+03  0.14200000000E+01 0.  1.
          4   -1    0    0  501    0  0.00000000000E+00 -0.00000000000E+00 -0.21632905655E+02  0.21679460488E+02  0.14200000000E+01 0. -1.
         25    2    1    2    0    0  0.00000000000E+00  0.00000000000E+00  0.15869746967E+03  0.20201542657E+03  0.12500138277E+03 0.  0.
        -11    1    3    3    0    0 -0.23716601859E+02  0.30131400443E+02  0.15911230954E+03  0.16366766798E+03  0.51100000000E-03 0.  1.
         11    1    3    3    0    0  0.23716601859E+02 -0.30131400443E+02 -0.41483987222E+00  0.38347758588E+02  0.51100000000E-03 0. -1.
<mgrwt>
<rscale>  0 0.12500138E+03</rscale>
<asrwt>0</asrwt>
<pdfrwt beam="2">  1        4 0.33321507E-02 0.12500138E+03</pdfrwt>
<pdfrwt beam="1">  1       -4 0.27747145E-01 0.12500138E+03</pdfrwt>
<totfact> 0.89793921E+03</totfact>
</mgrwt>
</event>
<event>
 5    1  0.3296574E-054  0.1249990E+03  0.7818608E-02  0.1235071E+00
         -4   -1    0    0    0  501 -0.00000000000E+00  0.00000000000E+00  0.62650632690E+02  0.62666723040E+02  0.14200000000E+01 0.  1.
          4   -1    0    0  501    0  0.00000000000E+00 -0.00000000000E+00 -0.62316547771E+02  0.62332724360E+02  0.14200000000E+01 0. -1.
         25    2    1    2    0    0  0.00000000000E+00  0.00000000000E+00  0.33408491918E+00  0.12499944740E+03  0.12499900095E+03 0.  0.
        -11    1    3    3    0    0  0.50451750368E+02 -0.36806350854E+02 -0.23029826919E+01  0.62493122085E+02  0.51100000000E-03 0.  1.
         11    1    3    3    0    0 -0.50451750368E+02  0.36806350854E+02  0.26370676111E+01  0.62506325314E+02  0.51100000000E-03 0. -1.
<mgrwt>
<rscale>  0 0.12499900E+03</rscale>
<asrwt>0</asrwt>
<pdfrwt beam="2">  1        4 0.95896433E-02 0.12499900E+03</pdfrwt>
<pdfrwt beam="1">  1       -4 0.96410410E-02 0.12499900E+03</pdfrwt>
<totfact> 0.10453111E+04</totfact>
</mgrwt>
</event>
<event>
 5    1  0.3296574E-054  0.1249979E+03  0.7818608E-02  0.1235073E+00
         -4   -1    0    0    0  501 -0.00000000000E+00  0.00000000000E+00  0.13773160190E+03  0.13773892174E+03  0.14200000000E+01 0.  1.
          4   -1    0    0  501    0  0.00000000000E+00 -0.00000000000E+00 -0.28334505184E+02  0.28370064928E+02  0.14200000000E+01 0. -1.
         25    2    1    2    0    0  0.00000000000E+00  0.00000000000E+00  0.10939709672E+03  0.16610898667E+03  0.12499788271E+03 0.  0.
        -11    1    3    3    0    0  0.42581080710E+02  0.38019337260E+02  0.88513603533E+02  0.10532462414E+03  0.51100000000E-03 0.  1.
         11    1    3    3    0    0 -0.42581080710E+02 -0.38019337260E+02  0.20883493188E+02  0.60784362530E+02  0.51100000000E-03 0. -1.
<mgrwt>
<rscale>  0 0.12499788E+03</rscale>
<asrwt>0</asrwt>
<pdfrwt beam="2">  1        4 0.43624530E-02 0.12499788E+03</pdfrwt>
<pdfrwt beam="1">  1       -4 0.21192776E-01 0.12499788E+03</pdfrwt>
<totfact> 0.96182353E+03</totfact>
</mgrwt>
</event>
<event>
 5    1  0.3296574E-054  0.1249981E+03  0.7818608E-02  0.1235072E+00
          4   -1    0    0  501    0  0.00000000000E+00  0.00000000000E+00  0.39194869775E+02  0.39220584095E+02  0.14200000000E+01 0.  1.
         -4   -1    0    0    0  501 -0.00000000000E+00 -0.00000000000E+00 -0.99595848255E+02  0.99605970653E+02  0.14200000000E+01 0. -1.
         25    2    1    2    0    0  0.00000000000E+00  0.00000000000E+00 -0.60400978480E+02  0.13882655475E+03  0.12499813639E+03 0.  0.
        -11    1    3    3    0    0  0.28706688743E+02 -0.53852786910E+02 -0.15219882980E+02  0.62895480559E+02  0.51100000000E-03 0. -1.
         11    1    3    3    0    0 -0.28706688743E+02  0.53852786910E+02 -0.45181095500E+02  0.75931074188E+02  0.51100000000E-03 0.  1.
<mgrwt>
<rscale>  0 0.12499814E+03</rscale>
<asrwt>0</asrwt>
<pdfrwt beam="1">  1        4 0.60327367E-02 0.12499814E+03</pdfrwt>
<pdfrwt beam="2">  1       -4 0.15325195E-01 0.12499814E+03</pdfrwt>
<totfact> 0.10158391E+04</totfact>
</mgrwt>
</event>
<event>
 5    1  0.3296574E-054  0.1250025E+03  0.7818608E-02  0.1235065E+00
         -4   -1    0    0    0  501 -0.00000000000E+00  0.00000000000E+00  0.27494276080E+03  0.27494642772E+03  0.14200000000E+01 0. -1.
          4   -1    0    0  501    0  0.00000000000E+00 -0.00000000000E+00 -0.14168826634E+02  0.14239805062E+02  0.14200000000E+01 0.  1.
         25    2    1    2    0    0  0.00000000000E+00  0.00000000000E+00  0.26077393417E+03  0.28918623278E+03  0.12500252994E+03 0.  0.
        -11    1    3    3    0    0 -0.56752455336E+02  0.54550189791E+01  0.18963142501E+03  0.19801685729E+03  0.51100000000E-03 0. -1.
         11    1    3    3    0    0  0.56752455336E+02 -0.54550189791E+01  0.71142509158E+02  0.91169375496E+02  0.51100000000E-03 0.  1.
<mgrwt>
<rscale>  0 0.12500253E+03</rscale>
<asrwt>0</asrwt>
<pdfrwt beam="2">  1        4 0.21855616E-02 0.12500253E+03</pdfrwt>
<pdfrwt beam="1">  1       -4 0.42304625E-01 0.12500253E+03</pdfrwt>
<totfact> 0.76971309E+03</totfact>
</mgrwt>
</event>
<event>
 5    1  0.3296574E-054  0.1250058E+03  0.7818608E-02  0.1235060E+00
         -4   -1    0    0    0  501 -0.00000000000E+00  0.00000000000E+00  0.30471864599E+03  0.30472195460E+03  0.14200000000E+01 0. -1.
          4   -1    0    0  501    0  0.00000000000E+00 -0.00000000000E+00 -0.12777674403E+02  0.12856335526E+02  0.14200000000E+01 0.  1.
         25    2    1    2    0    0  0.00000000000E+00  0.00000000000E+00  0.29194097159E+03  0.31757829012E+03  0.12500575773E+03 0.  0.
        -11    1    3    3    0    0 -0.10882804348E+02 -0.61006666300E+02  0.16666606505E+03  0.17781402083E+03  0.51100000000E-03 0. -1.
         11    1    3    3    0    0  0.10882804348E+02  0.61006666300E+02  0.12527490653E+03  0.13976426929E+03  0.51100000000E-03 0.  1.
<mgrwt>
<rscale>  0 0.12500576E+03</rscale>
<asrwt>0</asrwt>
<pdfrwt beam="2">  1        4 0.19721014E-02 0.12500576E+03</pdfrwt>
<pdfrwt beam="1">  1       -4 0.46886097E-01 0.12500576E+03</pdfrwt>
<totfact> 0.73435708E+03</totfact>
</mgrwt>
</event>
<event>
 5    1  0.3296574E-054  0.1250024E+03  0.7818608E-02  0.1235066E+00
          4   -1    0    0  501    0  0.00000000000E+00  0.00000000000E+00  0.12309306724E+03  0.12310125752E+03  0.14200000000E+01 0. -1.
         -4   -1    0    0    0  501 -0.00000000000E+00 -0.00000000000E+00 -0.31710189817E+02  0.31741968090E+02  0.14200000000E+01 0.  1.
         25    2    1    2    0    0  0.00000000000E+00  0.00000000000E+00  0.91382877422E+02  0.15484322561E+03  0.12500237690E+03 0.  0.
        -11    1    3    3    0    0  0.62058456358E+02 -0.46355769038E+01  0.38504930042E+02  0.73180395029E+02  0.51100000000E-03 0.  1.
         11    1    3    3    0    0 -0.62058456358E+02  0.46355769038E+01  0.52877947381E+02  0.81662830579E+02  0.51100000000E-03 0. -1.
<mgrwt>
<rscale>  0 0.12500238E+03</rscale>
<asrwt>0</asrwt>
<pdfrwt beam="1">  1        4 0.18940469E-01 0.12500238E+03</pdfrwt>
<pdfrwt beam="2">  1       -4 0.48815653E-02 0.12500238E+03</pdfrwt>
<totfact> 0.98341027E+03</totfact>
</mgrwt>
</event>
<event>
 5    1  0.3296574E-054  0.1249999E+03  0.7818608E-02  0.1235069E+00
          4   -1    0    0  501    0  0.00000000000E+00  0.00000000000E+00  0.13212525275E+03  0.13213288317E+03  0.14200000000E+01 0. -1.
         -4   -1    0    0    0  501 -0.00000000000E+00 -0.00000000000E+00 -0.29539166505E+02  0.29573277765E+02  0.14200000000E+01 0.  1.
         25    2    1    2    0    0  0.00000000000E+00  0.00000000000E+00  0.10258608625E+03  0.16170616093E+03  0.12499990957E+03 0.  0.
        -11    1    3    3    0    0 -0.22366154781E+02 -0.57486287386E+02  0.38271039505E+02  0.72591945711E+02  0.51100000000E-03 0.  1.
         11    1    3    3    0    0  0.22366154781E+02  0.57486287386E+02  0.64315046740E+02  0.89114215222E+02  0.51100000000E-03 0. -1.
<mgrwt>
<rscale>  0 0.12499991E+03</rscale>
<asrwt>0</asrwt>
<pdfrwt beam="1">  1        4 0.20330172E-01 0.12499991E+03</pdfrwt>
<pdfrwt beam="2">  1       -4 0.45476981E-02 0.12499991E+03</pdfrwt>
<totfact> 0.97015053E+03</totfact>
</mgrwt>
</event>
<event>
 5    1  0.3296574E-054  0.1250014E+03  0.7818608E-02  0.1235067E+00
         -4   -1    0    0    0  501 -0.00000000000E+00  0.00000000000E+00  0.66355302304E+02  0.66370494528E+02  0.14200000000E+01 0.  1.
          4   -1    0    0  501    0  0.00000000000E+00 -0.00000000000E+00 -0.58839535798E+02  0.58856668042E+02  0.14200000000E+01 0. -1.
         25    2    1    2    0    0  0.00000000000E+00  0.00000000000E+00  0.75157665054E+01  0.12522716257E+03  0.12500142199E+03 0.  0.
        -11    1    3    3    0    0 -0.95770858955E+01 -0.58964987127E+02  0.22169009726E+02  0.63718563022E+02  0.51100000000E-03 0.  1.
         11    1    3    3    0    0  0.95770858955E+01  0.58964987127E+02 -0.14653243221E+02  0.61508599547E+02  0.51100000000E-03 0. -1.
<mgrwt>
<rscale>  0 0.12500142E+03</rscale>
<asrwt>0</asrwt>
<pdfrwt beam="2">  1        4 0.90547228E-02 0.12500142E+03</pdfrwt>
<pdfrwt beam="1">  1       -4 0.10210995E-01 0.12500142E+03</pdfrwt>
<totfact> 0.10447595E+04</totfact>
</mgrwt>
</event>
<event>
 5    1  0.3296574E-054  0.1250014E+03  0.7818608E-02  0.1235067E+00
          4   -1    0    0  501    0  0.00000000000E+00  0.00000000000E+00  0.65880215302E+02  0.65895517057E+02  0.14200000000E+01 0. -1.
         -4   -1    0    0    0  501 -0.00000000000E+00 -0.00000000000E+00 -0.59263829816E+02  0.59280839438E+02  0.14200000000E+01 0.  1.
         25    2    1    2    0    0  0.00000000000E+00  0.00000000000E+00  0.66163854861E+01  0.12517635649E+03  0.12500137467E+03 0.  0.
        -11    1    3    3    0    0 -0.26422425619E+02  0.53446736442E+02 -0.15470062408E+02  0.61595625194E+02  0.51100000000E-03 0.  1.
         11    1    3    3    0    0  0.26422425619E+02 -0.53446736442E+02  0.22086447894E+02  0.63580731301E+02  0.51100000000E-03 0. -1.
<mgrwt>
<rscale>  0 0.12500137E+03</rscale>
<asrwt>0</asrwt>
<pdfrwt beam="1">  1        4 0.10137903E-01 0.12500137E+03</pdfrwt>
<pdfrwt beam="2">  1       -4 0.91199978E-02 0.12500137E+03</pdfrwt>
<totfact> 0.10448709E+04</totfact>
</mgrwt>
</event>
<event>
 5    1  0.3296574E-054  0.1249577E+03  0.7818608E-02  0.1235135E+00
          4   -1    0    0  501    0  0.00000000000E+00  0.00000000000E+00  0.12753242670E+02  0.12832053562E+02  0.14200000000E+01 0. -1.
         -4   -1    0    0    0  501 -0.00000000000E+00 -0.00000000000E+00 -0.30506423321E+03  0.30506753807E+03  0.14200000000E+01 0.  1.
         25    2    1    2    0    0  0.00000000000E+00  0.00000000000E+00 -0.29231099054E+03  0.31789959163E+03  0.12495773353E+03 0.  0.
        -11    1    3    3    0    0  0.52949253945E+02  0.30955443023E+02 -0.17644429060E+03  0.18680056379E+03  0.51100000000E-03 0.  1.
         11    1    3    3    0    0 -0.52949253945E+02 -0.30955443023E+02 -0.11586669993E+03  0.13109902784E+03  0.51100000000E-03 0. -1.
<mgrwt>
<rscale>  0 0.12495773E+03</rscale>
<asrwt>0</asrwt>
<pdfrwt beam="1">  1        4 0.19683542E-02 0.12495773E+03</pdfrwt>
<pdfrwt beam="2">  1       -4 0.46939270E-01 0.12495773E+03</pdfrwt>
<totfact> 0.73475469E+03</totfact>
</mgrwt>
</event>
<event>
 5    1  0.3296574E-054  0.1249999E+03  0.7818608E-02  0.1235070E+00
         -4   -1    0    0    0  501 -0.00000000000E+00  0.00000000000E+00  0.50986186374E+02  0.51005956524E+02  0.14200000000E+01 0.  1.
          4   -1    0    0  501    0  0.00000000000E+00 -0.00000000000E+00 -0.76572503945E+02  0.76585669420E+02  0.14200000000E+01 0. -1.
         25    2    1    2    0    0  0.00000000000E+00  0.00000000000E+00 -0.25586317572E+02  0.12759162594E+03  0.12499985346E+03 0.  0.
        -11    1    3    3    0    0  0.35593142346E+02 -0.38792136580E+02  0.21588151249E+02  0.56901229487E+02  0.51100000000E-03 0.  1.
         11    1    3    3    0    0 -0.35593142346E+02  0.38792136580E+02 -0.47174468820E+02  0.70690396457E+02  0.51100000000E-03 0. -1.
<mgrwt>
<rscale>  0 0.12499985E+03</rscale>
<asrwt>0</asrwt>
<pdfrwt beam="2">  1        4 0.11782919E-01 0.12499985E+03</pdfrwt>
<pdfrwt beam="1">  1       -4 0.78465622E-02 0.12499985E+03</pdfrwt>
<totfact> 0.10396351E+04</totfact>
</mgrwt>
</event>
<event>
 5    1  0.3296574E-054  0.1249995E+03  0.7818608E-02  0.1235070E+00
          4   -1    0    0  501    0  0.00000000000E+00  0.00000000000E+00  0.15456649885E+03  0.15457302147E+03  0.14200000000E+01 0. -1.
         -4   -1    0    0    0  501 -0.00000000000E+00 -0.00000000000E+00 -0.25245100906E+02  0.25285005829E+02  0.14200000000E+01 0.  1.
         25    2    1    2    0    0  0.00000000000E+00  0.00000000000E+00  0.12932139794E+03  0.17985802730E+03  0.12499954407E+03 0.  0.
        -11    1    3    3    0    0  0.40463316768E+02  0.18764140975E+02  0.16643626361E+01  0.44633430225E+02  0.51100000000E-03 0.  1.
         11    1    3    3    0    0 -0.40463316768E+02 -0.18764140975E+02  0.12765703531E+03  0.13522459707E+03  0.51100000000E-03 0. -1.
<mgrwt>
<rscale>  0 0.12499954E+03</rscale>
<asrwt>0</asrwt>
<pdfrwt beam="1">  1        4 0.23783033E-01 0.12499954E+03</pdfrwt>
<pdfrwt beam="2">  1       -4 0.38874330E-02 0.12499954E+03</pdfrwt>
<totfact> 0.93643522E+03</totfact>
</mgrwt>
</event>
<event>
 5    1  0.3296574E-054  0.1250061E+03  0.7818608E-02  0.1235060E+00
         -4   -1    0    0    0  501 -0.00000000000E+00  0.00000000000E+00  0.24492374268E+03  0.24492785903E+03  0.14200000000E+01 0.  1.
          4   -1    0    0  501    0  0.00000000000E+00 -0.00000000000E+00 -0.15914543282E+02  0.15977768551E+02  0.14200000000E+01 0. -1.
         25    2    1    2    0    0  0.00000000000E+00  0.00000000000E+00  0.22900919940E+03  0.26090562758E+03  0.12500613222E+03 0.  0.
        -11    1    3    3    0    0  0.55380472749E+02  0.28031714990E+02  0.99187266838E+02  0.11700806686E+03  0.51100000000E-03 0.  1.
         11    1    3    3    0    0 -0.55380472749E+02 -0.28031714990E+02  0.12982193256E+03  0.14389756072E+03  0.51100000000E-03 0. -1.
<mgrwt>
<rscale>  0 0.12500613E+03</rscale>
<asrwt>0</asrwt>
<pdfrwt beam="2">  1        4 0.24535715E-02 0.12500613E+03</pdfrwt>
<pdfrwt beam="1">  1       -4 0.37685755E-01 0.12500613E+03</pdfrwt>
<totfact> 0.80768112E+03</totfact>
</mgrwt>
</event>
<event>
 5    1  0.3296574E-054  0.1249998E+03  0.7818608E-02  0.1235070E+00
         -4   -1    0    0    0  501 -0.00000000000E+00  0.00000000000E+00  0.23354528949E+02  0.23397658481E+02  0.14200000000E+01 0.  1.
          4   -1    0    0  501    0  0.00000000000E+00 -0.00000000000E+00 -0.16705775073E+03  0.16706378565E+03  0.14200000000E+01 0. -1.
         25    2    1    2    0    0  0.00000000000E+00  0.00000000000E+00 -0.14370322178E+03  0.19046144414E+03  0.12499978301E+03 0.  0.
        -11    1    3    3    0    0 -0.38737940525E+02 -0.44055172507E+02 -0.10469950983E+03  0.12001447255E+03  0.51100000000E-03 0.  1.
         11    1    3    3    0    0  0.38737940525E+02  0.44055172507E+02 -0.39003711942E+02  0.70446971590E+02  0.51100000000E-03 0. -1.
<mgrwt>
<rscale>  0 0.12499978E+03</rscale>
<asrwt>0</asrwt>
<pdfrwt beam="2">  1        4 0.25704974E-01 0.12499978E+03</pdfrwt>
<pdfrwt beam="1">  1       -4 0.35967864E-02 0.12499978E+03</pdfrwt>
<totfact> 0.91767533E+03</totfact>
</mgrwt>
</event>
<event>
 5    1  0.3296574E-054  0.1250017E+03  0.7818608E-02  0.1235067E+00
         -4   -1    0    0    0  501 -0.00000000000E+00  0.00000000000E+00  0.11060659357E+03  0.11061570838E+03  0.14200000000E+01 0.  1.
          4   -1    0    0  501    0  0.00000000000E+00 -0.00000000000E+00 -0.35292748635E+02  0.35321303858E+02  0.14200000000E+01 0. -1.
         25    2    1    2    0    0  0.00000000000E+00  0.00000000000E+00  0.75313844935E+02  0.14593701224E+03  0.12500174520E+03 0.  0.
        -11    1    3    3    0    0 -0.58646287570E+02 -0.44525185369E+01  0.62344278913E+02  0.85708932326E+02  0.51100000000E-03 0.  1.
         11    1    3    3    0    0  0.58646287570E+02  0.44525185369E+01  0.12969566022E+02  0.60228079914E+02  0.51100000000E-03 0. -1.
<mgrwt>
<rscale>  0 0.12500175E+03</rscale>
<asrwt>0</asrwt>
<pdfrwt beam="2">  1        4 0.54325513E-02 0.12500175E+03</pdfrwt>
<pdfrwt beam="1">  1       -4 0.17019297E-01 0.12500175E+03</pdfrwt>
<totfact> 0.10011592E+04</totfact>
</mgrwt>
</event>
<event>
 5    1  0.3296574E-054  0.1249995E+03  0.7818608E-02  0.1235070E+00
         -4   -1    0    0    0  501 -0.00000000000E+00  0.00000000000E+00  0.57317722524E+02  0.57335309499E+02  0.14200000000E+01 0.  1.
          4   -1    0    0  501    0  0.00000000000E+00 -0.00000000000E+00 -0.68114785288E+02  0.68129585165E+02  0.14200000000E+01 0. -1.
         25    2    1    2    0    0  0.00000000000E+00  0.00000000000E+00 -0.10797062764E+02  0.12546489466E+03  0.12499945291E+03 0.  0.
        -11    1    3    3    0    0 -0.44827546138E+02 -0.19610995721E+02  0.33632195033E+02  0.59373601785E+02  0.51100000000E-03 0.  1.
         11    1    3    3    0    0  0.44827546138E+02  0.19610995721E+02 -0.44429257797E+02  0.66091292880E+02  0.51100000000E-03 0. -1.
<mgrwt>
<rscale>  0 0.12499945E+03</rscale>
<asrwt>0</asrwt>
<pdfrwt beam="2">  1        4 0.10481689E-01 0.12499945E+03</pdfrwt>
<pdfrwt beam="1">  1       -4 0.88206025E-02 0.12499945E+03</pdfrwt>
<totfact> 0.10442859E+04</totfact>
</mgrwt>
</event>
<event>
 5    1  0.3296574E-054  0.1250082E+03  0.7818608E-02  0.1235056E+00
          4   -1    0    0  501    0  0.00000000000E+00  0.00000000000E+00  0.17914434791E+03  0.17914997569E+03  0.14200000000E+01 0. -1.
         -4   -1    0    0    0  501 -0.00000000000E+00 -0.00000000000E+00 -0.21778822371E+02  0.21825065953E+02  0.14200000000E+01 0.  1.
         25    2    1    2    0    0  0.00000000000E+00  0.00000000000E+00  0.15736552554E+03  0.20097504164E+03  0.12500823466E+03 0.  0.
        -11    1    3    3    0    0  0.72761739523E+01 -0.60455744441E+02  0.56007719593E+02  0.82732728697E+02  0.51100000000E-03 0.  1.
         11    1    3    3    0    0 -0.72761739523E+01  0.60455744441E+02  0.10135780595E+03  0.11824231294E+03  0.51100000000E-03 0. -1.
<mgrwt>
<rscale>  0 0.12500823E+03</rscale>
<asrwt>0</asrwt>
<pdfrwt beam="1">  1        4 0.27564660E-01 0.12500823E+03</pdfrwt>
<pdfrwt beam="2">  1       -4 0.33545780E-02 0.12500823E+03</pdfrwt>
<totfact> 0.89954741E+03</totfact>
</mgrwt>
</event>
<event>
 5    1  0.3296574E-054  0.1250049E+03  0.7818608E-02  0.1235062E+00
         -4   -1    0    0    0  501 -0.00000000000E+00  0.00000000000E+00  0.12720503122E+03  0.12721295676E+03  0.14200000000E+01 0.  1.
          4   -1    0    0  501    0  0.00000000000E+00 -0.00000000000E+00 -0.30685422221E+02  0.30718260642E+02  0.14200000000E+01 0. -1.
         25    2    1    2    0    0  0.00000000000E+00  0.00000000000E+00  0.96519609001E+02  0.15793121740E+03  0.12500493794E+03 0.  0.
        -11    1    3    3    0    0 -0.22001066574E+02  0.57270974056E+02  0.63343932235E+02  0.88184268161E+02  0.51100000000E-03 0.  1.
         11    1    3    3    0    0  0.22001066574E+02 -0.57270974056E+02  0.33175676766E+02  0.69746949244E+02  0.51100000000E-03 0. -1.
<mgrwt>
<rscale>  0 0.12500494E+03</rscale>
<asrwt>0</asrwt>
<pdfrwt beam="2">  1        4 0.47239699E-02 0.12500494E+03</pdfrwt>
<pdfrwt beam="1">  1       -4 0.19573140E-01 0.12500494E+03</pdfrwt>
<totfact> 0.97732268E+03</totfact>
</mgrwt>
</event>
<event>
 5    1  0.3296574E-054  0.1250015E+03  0.7818608E-02  0.1235067E+00
         -4   -1    0    0    0  501 -0.00000000000E+00  0.00000000000E+00  0.10539992682E+02  0.10635217239E+02  0.14200000000E+01 0. -1.
          4   -1    0    0  501    0  0.00000000000E+00 -0.00000000000E+00 -0.36885772139E+03  0.36886045468E+03  0.14200000000E+01 0.  1.
         25    2    1    2    0    0  0.00000000000E+00  0.00000000000E+00 -0.35831772871E+03  0.37949567192E+03  0.12500148120E+03 0.  0.
        -11    1    3    3    0    0  0.47104350544E+02  0.24168612814E+02 -0.78312944223E+02  0.94529672160E+02  0.51100000000E-03 0. -1.
         11    1    3    3    0    0 -0.47104350544E+02 -0.24168612814E+02 -0.28000478449E+03  0.28496599976E+03  0.51100000000E-03 0.  1.
<mgrwt>
<rscale>  0 0.12500148E+03</rscale>
<asrwt>0</asrwt>
<pdfrwt beam="2">  1        4 0.56754867E-01 0.12500148E+03</pdfrwt>
<pdfrwt beam="1">  1       -4 0.16290728E-02 0.12500148E+03</pdfrwt>
<totfact> 0.66594900E+03</totfact>
</mgrwt>
</event>
<event>
 5    1  0.3296574E-054  0.1249972E+03  0.7818608E-02  0.1235074E+00
         -4   -1    0    0    0  501 -0.00000000000E+00  0.00000000000E+00  0.32816872798E+02  0.32847580432E+02  0.14200000000E+01 0.  1.
          4   -1    0    0  501    0  0.00000000000E+00 -0.00000000000E+00 -0.11893589612E+03  0.11894437265E+03  0.14200000000E+01 0. -1.
         25    2    1    2    0    0  0.00000000000E+00  0.00000000000E+00 -0.86119023323E+02  0.15179195309E+03  0.12499724335E+03 0.  0.
        -11    1    3    3    0    0  0.76045134143E+01 -0.54767791564E+02 -0.76813582235E+01  0.55824214114E+02  0.51100000000E-03 0.  1.
         11    1    3    3    0    0 -0.76045134143E+01  0.54767791564E+02 -0.78437665100E+02  0.95967738973E+02  0.51100000000E-03 0. -1.
<mgrwt>
<rscale>  0 0.12499724E+03</rscale>
<asrwt>0</asrwt>
<pdfrwt beam="2">  1        4 0.18300844E-01 0.12499724E+03</pdfrwt>
<pdfrwt beam="1">  1       -4 0.50517639E-02 0.12499724E+03</pdfrwt>
<totfact> 0.98953829E+03</totfact>
</mgrwt>
</event>
<event>
 5    1  0.3296574E-054  0.1250005E+03  0.7818608E-02  0.1235069E+00
         -4   -1    0    0    0  501 -0.00000000000E+00  0.00000000000E+00  0.44428405026E+03  0.44428631952E+03  0.14200000000E+01 0.  1.
          4   -1    0    0  501    0  0.00000000000E+00 -0.00000000000E+00 -0.87326606892E+01  0.88473590813E+01  0.14200000000E+01 0. -1.
         25    2    1    2    0    0  0.00000000000E+00  0.00000000000E+00  0.43555138957E+03  0.45313367860E+03  0.12500047091E+03 0.  0.
        -11    1    3    3    0    0 -0.16784633775E+02 -0.54162876347E+02  0.31306284413E+03  0.31815669957E+03  0.51100000000E-03 0.  1.
         11    1    3    3    0    0  0.16784633775E+02  0.54162876347E+02  0.12248854544E+03  0.13497697903E+03  0.51100000000E-03 0. -1.
<mgrwt>
<rscale>  0 0.12500047E+03</rscale>
<asrwt>0</asrwt>
<pdfrwt beam="2">  1        4 0.13524840E-02 0.12500047E+03</pdfrwt>
<pdfrwt beam="1">  1       -4 0.68360378E-01 0.12500047E+03</pdfrwt>
<totfact> 0.59692668E+03</totfact>
</mgrwt>
</event>
<event>
 5    1  0.3296574E-054  0.1250022E+03  0.7818608E-02  0.1235066E+00
          4   -1    0    0  501    0  0.00000000000E+00  0.00000000000E+00  0.10282850514E+02  0.10380434225E+02  0.14200000000E+01 0. -1.
         -4   -1    0    0    0  501 -0.00000000000E+00 -0.00000000000E+00 -0.37800024842E+03  0.37800291561E+03  0.14200000000E+01 0.  1.
         25    2    1    2    0    0  0.00000000000E+00  0.00000000000E+00 -0.36771739791E+03  0.38838334983E+03  0.12500216679E+03 0.  0.
        -11    1    3    3    0    0 -0.14593528687E+02 -0.60769208800E+02 -0.18162336028E+03  0.19207527904E+03  0.51100000000E-03 0.  1.
         11    1    3    3    0    0  0.14593528687E+02  0.60769208800E+02 -0.18609403763E+03  0.19630807080E+03  0.51100000000E-03 0. -1.
<mgrwt>
<rscale>  0 0.12500217E+03</rscale>
<asrwt>0</asrwt>
<pdfrwt beam="1">  1        4 0.15896889E-02 0.12500217E+03</pdfrwt>
<pdfrwt beam="2">  1       -4 0.58161585E-01 0.12500217E+03</pdfrwt>
<totfact> 0.65695372E+03</totfact>
</mgrwt>
</event>
<event>
 5    1  0.3296574E-054  0.1249967E+03  0.7818608E-02  0.1235074E+00
         -4   -1    0    0    0  501 -0.00000000000E+00  0.00000000000E+00  0.24248015658E+02  0.24289558731E+02  0.14200000000E+01 0.  1.
          4   -1    0    0  501    0  0.00000000000E+00 -0.00000000000E+00 -0.16090470800E+03  0.16091097370E+03  0.14200000000E+01 0. -1.
         25    2    1    2    0    0  0.00000000000E+00  0.00000000000E+00 -0.13665669234E+03  0.18520053243E+03  0.12499674256E+03 0.  0.
        -11    1    3    3    0    0 -0.57360288626E+02  0.23685472480E+02 -0.57355973455E+02  0.84503917123E+02  0.51100000000E-03 0.  1.
         11    1    3    3    0    0  0.57360288626E+02 -0.23685472480E+02 -0.79300718887E+02  0.10069661531E+03  0.51100000000E-03 0. -1.
<mgrwt>
<rscale>  0 0.12499674E+03</rscale>
<asrwt>0</asrwt>
<pdfrwt beam="2">  1        4 0.24758247E-01 0.12499674E+03</pdfrwt>
<pdfrwt beam="1">  1       -4 0.37341416E-02 0.12499674E+03</pdfrwt>
<totfact> 0.92695945E+03</totfact>
</mgrwt>
</event>
<event>
 5    1  0.3296574E-054  0.1250002E+03  0.7818608E-02  0.1235069E+00
         -4   -1    0    0    0  501 -0.00000000000E+00  0.00000000000E+00  0.18650199362E+03  0.18650739938E+03  0.14200000000E+01 0.  1.
          4   -1    0    0  501    0  0.00000000000E+00 -0.00000000000E+00 -0.20915086003E+02  0.20963235020E+02  0.14200000000E+01 0. -1.
         25    2    1    2    0    0  0.00000000000E+00  0.00000000000E+00  0.16558690762E+03  0.20747063440E+03  0.12500016066E+03 0.  0.
        -11    1    3    3    0    0 -0.61899544312E+02  0.59196139638E+01  0.72340290316E+02  0.95392415940E+02  0.51100000000E-03 0.  1.
         11    1    3    3    0    0  0.61899544312E+02 -0.59196139638E+01  0.93246617301E+02  0.11207821846E+03  0.51100000000E-03 0. -1.
<mgrwt>
<rscale>  0 0.12500016E+03</rscale>
<asrwt>0</asrwt>
<pdfrwt beam="2">  1        4 0.32218253E-02 0.12500016E+03</pdfrwt>
<pdfrwt beam="1">  1       -4 0.28696733E-01 0.12500016E+03</pdfrwt>
<totfact> 0.88890314E+03</totfact>
</mgrwt>
</event>
<event>
 5    1  0.3296574E-054  0.1250010E+03  0.7818608E-02  0.1235068E+00
         -4   -1    0    0    0  501 -0.00000000000E+00  0.00000000000E+00  0.12580641254E+02  0.12660526622E+02  0.14200000000E+01 0.  1.
          4   -1    0    0  501    0  0.00000000000E+00 -0.00000000000E+00 -0.30943750800E+03  0.30944076615E+03  0.14200000000E+01 0. -1.
         25    2    1    2    0    0  0.00000000000E+00  0.00000000000E+00 -0.29685686674E+03  0.32210129277E+03  0.12500097389E+03 0.  0.
        -11    1    3    3    0    0 -0.77546609912E+01 -0.61863976039E+02 -0.15966766160E+03  0.17140900927E+03  0.51100000000E-03 0.  1.
         11    1    3    3    0    0  0.77546609912E+01  0.61863976039E+02 -0.13718920514E+03  0.15069228350E+03  0.51100000000E-03 0. -1.
<mgrwt>
<rscale>  0 0.12500097E+03</rscale>
<asrwt>0</asrwt>
<pdfrwt beam="2">  1        4 0.47612160E-01 0.12500097E+03</pdfrwt>
<pdfrwt beam="1">  1       -4 0.19418792E-02 0.12500097E+03</pdfrwt>
<totfact> 0.72905328E+03</totfact>
</mgrwt>
</event>
<event>
 5    1  0.3296574E-054  0.1249984E+03  0.7818608E-02  0.1235072E+00
          4   -1    0    0  501    0  0.00000000000E+00  0.00000000000E+00  0.13823747840E+03  0.13824477145E+03  0.14200000000E+01 0. -1.
         -4   -1    0    0    0  501 -0.00000000000E+00 -0.00000000000E+00 -0.28230917510E+02  0.28266607569E+02  0.14200000000E+01 0.  1.
         25    2    1    2    0    0  0.00000000000E+00  0.00000000000E+00  0.11000656089E+03  0.16651137902E+03  0.12499838361E+03 0.  0.
        -11    1    3    3    0    0  0.54569859109E+02 -0.27544623833E+02  0.37656532607E+02  0.71795475300E+02  0.51100000000E-03 0.  1.
         11    1    3    3    0    0 -0.54569859109E+02  0.27544623833E+02  0.72350028279E+02  0.94715903720E+02  0.51100000000E-03 0. -1.
<mgrwt>
<rscale>  0 0.12499838E+03</rscale>
<asrwt>0</asrwt>
<pdfrwt beam="1">  1        4 0.21270611E-01 0.12499838E+03</pdfrwt>
<pdfrwt beam="2">  1       -4 0.43465245E-02 0.12499838E+03</pdfrwt>
<totfact> 0.96105413E+03</totfact>
</mgrwt>
</event>
<event>
 4    1  0.3296574E-054  0.1249524E+03  0.7818608E-02  0.1235144E+00
          4   -1    0    0  501    0  0.00000000000E+00  0.00000000000E+00  0.10280349155E+03  0.10281329814E+03  0.14200000000E+01 0. -1.
         -4   -1    0    0    0  501 -0.00000000000E+00 -0.00000000000E+00 -0.37943392349E+02  0.37969954213E+02  0.14200000000E+01 0.  1.
        -11    1    1    2    0    0  0.45804272182E+02  0.38257573647E+02  0.11605997915E+02  0.60797799955E+02  0.51100000000E-03 0.  1.
         11    1    1    2    0    0 -0.45804272182E+02 -0.38257573647E+02  0.53254101285E+02  0.79985452399E+02  0.51100000000E-03 0. -1.
<mgrwt>
<rscale>  0 0.12495236E+03</rscale>
<asrwt>0</asrwt>
<pdfrwt beam="1">  1        4 0.15818719E-01 0.12495236E+03</pdfrwt>
<pdfrwt beam="2">  1       -4 0.58402426E-02 0.12495236E+03</pdfrwt>
<totfact> 0.10128245E+04</totfact>
</mgrwt>
</event>
<event>
 5    1  0.3296574E-054  0.1250033E+03  0.7818608E-02  0.1235064E+00
          4   -1    0    0  501    0  0.00000000000E+00  0.00000000000E+00  0.16449185870E+02  0.16510363890E+02  0.14200000000E+01 0. -1.
         -4   -1    0    0    0  501 -0.00000000000E+00 -0.00000000000E+00 -0.23698233610E+03  0.23698659038E+03  0.14200000000E+01 0.  1.
         25    2    1    2    0    0  0.00000000000E+00  0.00000000000E+00 -0.22053315023E+03  0.25349695427E+03  0.12500334186E+03 0.  0.
        -11    1    3    3    0    0 -0.69446185534E+01  0.43477147507E+02 -0.20022880776E+03  0.20501235460E+03  0.51100000000E-03 0.  1.
         11    1    3    3    0    0  0.69446185534E+01 -0.43477147507E+02 -0.20304342470E+02  0.48484599675E+02  0.51100000000E-03 0. -1.
<mgrwt>
<rscale>  0 0.12500334E+03</rscale>
<asrwt>0</asrwt>
<pdfrwt beam="1">  1        4 0.25356774E-02 0.12500334E+03</pdfrwt>
<pdfrwt beam="2">  1       -4 0.36463852E-01 0.12500334E+03</pdfrwt>
<totfact> 0.81821333E+03</totfact>
</mgrwt>
</event>
<event>
 5    1  0.3296574E-054  0.1249935E+03  0.7818608E-02  0.1235079E+00
          4   -1    0    0  501    0  0.00000000000E+00  0.00000000000E+00  0.15746661217E+02  0.15810557849E+02  0.14200000000E+01 0.  1.
         -4   -1    0    0    0  501 -0.00000000000E+00 -0.00000000000E+00 -0.24747449520E+03  0.24747856912E+03  0.14200000000E+01 0. -1.
         25    2    1    2    0    0  0.00000000000E+00  0.00000000000E+00 -0.23172783398E+03  0.26328912697E+03  0.12499350119E+03 0.  0.
        -11    1    3    3    0    0 -0.41079995047E+02 -0.16863005083E+02 -0.20849663253E+03  0.21317310504E+03  0.51100000000E-03 0. -1.
         11    1    3    3    0    0  0.41079995047E+02  0.16863005083E+02 -0.23231201452E+02  0.50116021935E+02  0.51100000000E-03 0.  1.
<mgrwt>
<rscale>  0 0.12499350E+03</rscale>
<asrwt>0</asrwt>
<pdfrwt beam="1">  1        4 0.24277920E-02 0.12499350E+03</pdfrwt>
<pdfrwt beam="2">  1       -4 0.38078225E-01 0.12499350E+03</pdfrwt>
<totfact> 0.80458320E+03</totfact>
</mgrwt>
</event>
<event>
 5    1  0.3456590E-054  0.1250008E+03  0.7818608E-02  0.1235068E+00
          4   -1    0    0  501    0  0.00000000000E+00  0.00000000000E+00  0.86603070264E+02  0.86614711101E+02  0.14200000000E+01 0. -1.
         -4   -1    0    0    0  501 -0.00000000000E+00 -0.00000000000E+00 -0.45079919586E+02  0.45102278766E+02  0.14200000000E+01 0.  1.
         25    2    1    2    0    0  0.00000000000E+00  0.00000000000E+00  0.41523150677E+02  0.13171698987E+03  0.12500077351E+03 0.  0.
        -11    1    3    3    0    0 -0.29930181586E+02 -0.52403780158E+02  0.36299184862E+01  0.60457822100E+02  0.51100000000E-03 0.  1.
         11    1    3    3    0    0  0.29930181586E+02  0.52403780158E+02  0.37893232191E+02  0.71259167767E+02  0.51100000000E-03 0. -1.
<mgrwt>
<rscale>  0 0.12500077E+03</rscale>
<asrwt>0</asrwt>
<pdfrwt beam="1">  1        4 0.13326165E-01 0.12500077E+03</pdfrwt>
<pdfrwt beam="2">  1       -4 0.69379877E-02 0.12500077E+03</pdfrwt>
<totfact> 0.10307563E+04</totfact>
</mgrwt>
</event>
<event>
 5    1  0.3296574E-054  0.1249992E+03  0.7818608E-02  0.1235071E+00
          4   -1    0    0  501    0  0.00000000000E+00  0.00000000000E+00  0.50155735533E+03  0.50155936547E+03  0.14200000000E+01 0. -1.
         -4   -1    0    0    0  501 -0.00000000000E+00 -0.00000000000E+00 -0.77213680122E+01  0.78508549840E+01  0.14200000000E+01 0.  1.
         25    2    1    2    0    0  0.00000000000E+00  0.00000000000E+00  0.49383598732E+03  0.50941022045E+03  0.12499916131E+03 0.  0.
        -11    1    3    3    0    0 -0.45770898667E+02 -0.42500100633E+02  0.25599767177E+03  0.26350719473E+03  0.51100000000E-03 0.  1.
         11    1    3    3    0    0  0.45770898667E+02  0.42500100633E+02  0.23783831555E+03  0.24590302573E+03  0.51100000000E-03 0. -1.
<mgrwt>
<rscale>  0 0.12499916E+03</rscale>
<asrwt>0</asrwt>
<pdfrwt beam="1">  1        4 0.77172791E-01 0.12499916E+03</pdfrwt>
<pdfrwt beam="2">  1       -4 0.11980178E-02 0.12499916E+03</pdfrwt>
<totfact> 0.55142583E+03</totfact>
</mgrwt>
</event>
<event>
 5    1  0.3296574E-054  0.1250001E+03  0.7818608E-02  0.1235069E+00
          4   -1    0    0  501    0  0.00000000000E+00  0.00000000000E+00  0.20524669910E+03  0.20525161118E+03  0.14200000000E+01 0. -1.
         -4   -1    0    0    0  501 -0.00000000000E+00 -0.00000000000E+00 -0.19000371550E+02  0.19053359783E+02  0.14200000000E+01 0.  1.
         25    2    1    2    0    0  0.00000000000E+00  0.00000000000E+00  0.18624632755E+03  0.22430497097E+03  0.12500010189E+03 0.  0.
        -11    1    3    3    0    0 -0.52359826063E+02  0.22963833266E+02  0.47820531657E+02  0.74536516365E+02  0.51100000000E-03 0.  1.
         11    1    3    3    0    0  0.52359826063E+02 -0.22963833266E+02  0.13842579590E+03  0.14976845460E+03  0.51100000000E-03 0. -1.
<mgrwt>
<rscale>  0 0.12500010E+03</rscale>
<asrwt>0</asrwt>
<pdfrwt beam="1">  1        4 0.31580870E-01 0.12500010E+03</pdfrwt>
<pdfrwt beam="2">  1       -4 0.29275878E-02 0.12500010E+03</pdfrwt>
<totfact> 0.86191497E+03</totfact>
</mgrwt>
</event>
<event>
 5    1  0.3296574E-054  0.1250004E+03  0.7818608E-02  0.1235069E+00
         -4   -1    0    0    0  501 -0.00000000000E+00  0.00000000000E+00  0.11823481458E+02  0.11908447161E+02  0.14200000000E+01 0. -1.
          4   -1    0    0  501    0  0.00000000000E+00 -0.00000000000E+00 -0.32911345432E+03  0.32911651769E+03  0.14200000000E+01 0.  1.
         25    2    1    2    0    0  0.00000000000E+00  0.00000000000E+00 -0.31728997287E+03  0.34102496485E+03  0.12500039908E+03 0.  0.
        -11    1    3    3    0    0  0.92364696452E+01 -0.61343973575E+02 -0.13788930137E+03  0.15120137201E+03  0.51100000000E-03 0. -1.
         11    1    3    3    0    0 -0.92364696452E+01  0.61343973575E+02 -0.17940067150E+03  0.18982359284E+03  0.51100000000E-03 0.  1.
<mgrwt>
<rscale>  0 0.12500040E+03</rscale>
<asrwt>0</asrwt>
<pdfrwt beam="2">  1        4 0.50639604E-01 0.12500040E+03</pdfrwt>
<pdfrwt beam="1">  1       -4 0.18257689E-02 0.12500040E+03</pdfrwt>
<totfact> 0.70722715E+03</totfact>
</mgrwt>
</event>
<event>
 5    1  0.3296574E-054  0.1250011E+03  0.7818608E-02  0.1235068E+00
         -4   -1    0    0    0  501 -0.00000000000E+00  0.00000000000E+00  0.31900104409E+03  0.31900420457E+03  0.14200000000E+01 0.  1.
          4   -1    0    0  501    0  0.00000000000E+00 -0.00000000000E+00 -0.12201076771E+02  0.12283430888E+02  0.14200000000E+01 0. -1.
         25    2    1    2    0    0  0.00000000000E+00  0.00000000000E+00  0.30679996732E+03  0.33128763546E+03  0.12500110983E+03 0.  0.
        -11    1    3    3    0    0  0.41685327096E+02  0.24467153235E+02  0.25841290611E+03  0.26289453803E+03  0.51100000000E-03 0.  1.
         11    1    3    3    0    0 -0.41685327096E+02 -0.24467153235E+02  0.48387061215E+02  0.68393097428E+02  0.51100000000E-03 0. -1.
<mgrwt>
<rscale>  0 0.12500111E+03</rscale>
<asrwt>0</asrwt>
<pdfrwt beam="2">  1        4 0.18836667E-02 0.12500111E+03</pdfrwt>
<pdfrwt beam="1">  1       -4 0.49083665E-01 0.12500111E+03</pdfrwt>
<totfact> 0.71831652E+03</totfact>
</mgrwt>
</event>
<event>
 5    1  0.3296574E-054  0.1249979E+03  0.7818608E-02  0.1235073E+00
         -4   -1    0    0    0  501 -0.00000000000E+00  0.00000000000E+00  0.22512051899E+03  0.22512499744E+03  0.14200000000E+01 0. -1.
          4   -1    0    0  501    0  0.00000000000E+00 -0.00000000000E+00 -0.17317532870E+02  0.17375653792E+02  0.14200000000E+01 0.  1.
         25    2    1    2    0    0  0.00000000000E+00  0.00000000000E+00  0.20780298612E+03  0.24250065123E+03  0.12499793920E+03 0.  0.
        -11    1    3    3    0    0 -0.26678193640E+02  0.56272994021E+02  0.11412041297E+03  0.13000709415E+03  0.51100000000E-03 0. -1.
         11    1    3    3    0    0  0.26678193640E+02 -0.56272994021E+02  0.93682573149E+02  0.11249355708E+03  0.51100000000E-03 0.  1.
<mgrwt>
<rscale>  0 0.12499794E+03</rscale>
<asrwt>0</asrwt>
<pdfrwt beam="2">  1        4 0.26690514E-02 0.12499794E+03</pdfrwt>
<pdfrwt beam="1">  1       -4 0.34638738E-01 0.12499794E+03</pdfrwt>
<totfact> 0.83430178E+03</totfact>
</mgrwt>
</event>
<event>
 5    1  0.3296574E-054  0.1250026E+03  0.7818608E-02  0.1235065E+00
          4   -1    0    0  501    0  0.00000000000E+00  0.00000000000E+00  0.88011777337E+02  0.88023231877E+02  0.14200000000E+01 0. -1.
         -4   -1    0    0    0  501 -0.00000000000E+00 -0.00000000000E+00 -0.44359388139E+02  0.44382110316E+02  0.14200000000E+01 0.  1.
         25    2    1    2    0    0  0.00000000000E+00  0.00000000000E+00  0.43652389198E+02  0.13240534219E+03  0.12500257421E+03 0.  0.
        -11    1    3    3    0    0 -0.64780635556E+01 -0.59424973896E+02  0.24938004777E+01  0.59829021979E+02  0.51100000000E-03 0.  1.
         11    1    3    3    0    0  0.64780635556E+01  0.59424973896E+02  0.41158588720E+02  0.72576320213E+02  0.51100000000E-03 0. -1.
<mgrwt>
<rscale>  0 0.12500257E+03</rscale>
<asrwt>0</asrwt>
<pdfrwt beam="1">  1        4 0.13542902E-01 0.12500257E+03</pdfrwt>
<pdfrwt beam="2">  1       -4 0.68271503E-02 0.12500257E+03</pdfrwt>
<totfact> 0.10292457E+04</totfact>
</mgrwt>
</event>
<event>
 5    1  0.3296574E-054  0.1250035E+03  0.7818608E-02  0.1235064E+00
          4   -1    0    0  501    0  0.00000000000E+00  0.00000000000E+00  0.52528421621E+02  0.52547611535E+02  0.14200000000E+01 0. -1.
         -4   -1    0    0    0  501 -0.00000000000E+00 -0.00000000000E+00 -0.74329080439E+02  0.74342643207E+02  0.14200000000E+01 0.  1.
         25    2    1    2    0    0  0.00000000000E+00  0.00000000000E+00 -0.21800658818E+02  0.12689025474E+03  0.12500347205E+03 0.  0.
        -11    1    3    3    0    0  0.57816223687E+02 -0.15075090641E+02 -0.29520950501E+02  0.66644284061E+02  0.51100000000E-03 0.  1.
         11    1    3    3    0    0 -0.57816223687E+02  0.15075090641E+02  0.77202916824E+01  0.60245970680E+02  0.51100000000E-03 0. -1.
<mgrwt>
<rscale>  0 0.12500347E+03</rscale>
<asrwt>0</asrwt>
<pdfrwt beam="1">  1        4 0.80838151E-02 0.12500347E+03</pdfrwt>
<pdfrwt beam="2">  1       -4 0.11437763E-01 0.12500347E+03</pdfrwt>
<totfact> 0.10410715E+04</totfact>
</mgrwt>
</event>
<event>
 5    1  0.3296574E-054  0.1249799E+03  0.7818608E-02  0.1235101E+00
         -4   -1    0    0    0  501 -0.00000000000E+00  0.00000000000E+00  0.43061780294E+02  0.43085186806E+02  0.14200000000E+01 0.  1.
          4   -1    0    0  501    0  0.00000000000E+00 -0.00000000000E+00 -0.90629980393E+02  0.90641104065E+02  0.14200000000E+01 0. -1.
         25    2    1    2    0    0  0.00000000000E+00  0.00000000000E+00 -0.47568200099E+02  0.13372629087E+03  0.12497994723E+03 0.  0.
        -11    1    3    3    0    0  0.47568986731E+02  0.21003509846E+02  0.13297234538E+02  0.53672827121E+02  0.51100000000E-03 0.  1.
         11    1    3    3    0    0 -0.47568986731E+02 -0.21003509846E+02 -0.60865434637E+02  0.80053463750E+02  0.51100000000E-03 0. -1.
<mgrwt>
<rscale>  0 0.12497995E+03</rscale>
<asrwt>0</asrwt>
<pdfrwt beam="2">  1        4 0.13945730E-01 0.12497995E+03</pdfrwt>
<pdfrwt beam="1">  1       -4 0.66275454E-02 0.12497995E+03</pdfrwt>
<totfact> 0.10269632E+04</totfact>
</mgrwt>
</event>
<event>
 5    1  0.3296574E-054  0.1250013E+03  0.7818608E-02  0.1235067E+00
         -4   -1    0    0    0  501 -0.00000000000E+00  0.00000000000E+00  0.16088656066E+02  0.16151199770E+02  0.14200000000E+01 0.  1.
          4   -1    0    0  501    0  0.00000000000E+00 -0.00000000000E+00 -0.24226480645E+03  0.24226896798E+03  0.14200000000E+01 0. -1.
         25    2    1    2    0    0  0.00000000000E+00  0.00000000000E+00 -0.22617615039E+03  0.25842016775E+03  0.12500132838E+03 0.  0.
        -11    1    3    3    0    0 -0.24561127274E+02 -0.56030437668E+02 -0.13953661887E+03  0.15235854726E+03  0.51100000000E-03 0.  1.
         11    1    3    3    0    0  0.24561127274E+02  0.56030437668E+02 -0.86639531515E+02  0.10606162048E+03  0.51100000000E-03 0. -1.
<mgrwt>
<rscale>  0 0.12500133E+03</rscale>
<asrwt>0</asrwt>
<pdfrwt beam="2">  1        4 0.37276637E-01 0.12500133E+03</pdfrwt>
<pdfrwt beam="1">  1       -4 0.24803092E-02 0.12500133E+03</pdfrwt>
<totfact> 0.81125882E+03</totfact>
</mgrwt>
</event>
<event>
 5    1  0.3296574E-054  0.1250037E+03  0.7818608E-02  0.1235064E+00
         -4   -1    0    0    0  501 -0.00000000000E+00  0.00000000000E+00  0.32876230497E+02  0.32906882740E+02  0.14200000000E+01 0.  1.
          4   -1    0    0  501    0  0.00000000000E+00 -0.00000000000E+00 -0.11873358896E+03  0.11874207994E+03  0.14200000000E+01 0. -1.
         25    2    1    2    0    0  0.00000000000E+00  0.00000000000E+00 -0.85857358466E+02  0.15164896268E+03  0.12500368746E+03 0.  0.
        -11    1    3    3    0    0  0.19109628549E+01 -0.55175963080E+02 -0.73842090626E+01  0.55700675261E+02  0.51100000000E-03 0.  1.
         11    1    3    3    0    0 -0.19109628549E+01  0.55175963080E+02 -0.78473149403E+02  0.95948287417E+02  0.51100000000E-03 0. -1.
<mgrwt>
<rscale>  0 0.12500369E+03</rscale>
<asrwt>0</asrwt>
<pdfrwt beam="2">  1        4 0.18269717E-01 0.12500369E+03</pdfrwt>
<pdfrwt beam="1">  1       -4 0.50608927E-02 0.12500369E+03</pdfrwt>
<totfact> 0.98967801E+03</totfact>
</mgrwt>
</event>
<event>
 5    1  0.3470742E-054  0.1250018E+03  0.7818608E-02  0.1235066E+00
         -4   -1    0    0    0  501 -0.00000000000E+00  0.00000000000E+00  0.14939340393E+02  0.15006674894E+02  0.14200000000E+01 0.  1.
          4   -1    0    0  501    0  0.00000000000E+00 -0.00000000000E+00 -0.26082437865E+03  0.26082824406E+03  0.14200000000E+01 0. -1.
         25    2    1    2    0    0  0.00000000000E+00  0.00000000000E+00 -0.24588503826E+03  0.27583491895E+03  0.12500180189E+03 0.  0.
        -11    1    3    3    0    0 -0.75347395868E+01 -0.61945640525E+02 -0.11519472293E+03  0.13101091127E+03  0.51100000000E-03 0.  1.
         11    1    3    3    0    0  0.75347395868E+01  0.61945640525E+02 -0.13069031533E+03  0.14482400768E+03  0.51100000000E-03 0. -1.
<mgrwt>
<rscale>  0 0.12500180E+03</rscale>
<asrwt>0</asrwt>
<pdfrwt beam="2">  1        4 0.40132301E-01 0.12500180E+03</pdfrwt>
<pdfrwt beam="1">  1       -4 0.23038372E-02 0.12500180E+03</pdfrwt>
<totfact> 0.78730473E+03</totfact>
</mgrwt>
</event>
<event>
 5    1  0.3296574E-054  0.1250110E+03  0.7818608E-02  0.1235052E+00
          4   -1    0    0  501    0  0.00000000000E+00  0.00000000000E+00  0.17093243477E+02  0.17152124433E+02  0.14200000000E+01 0. -1.
         -4   -1    0    0    0  501 -0.00000000000E+00 -0.00000000000E+00 -0.22811221317E+03  0.22811663289E+03  0.14200000000E+01 0.  1.
         25    2    1    2    0    0  0.00000000000E+00  0.00000000000E+00 -0.21101896970E+03  0.24526875732E+03  0.12501103049E+03 0.  0.
        -11    1    3    3    0    0 -0.58509217260E+02 -0.65148324581E+01 -0.14671884229E+03  0.15808918442E+03  0.51100000000E-03 0.  1.
         11    1    3    3    0    0  0.58509217260E+02  0.65148324581E+01 -0.64300127403E+02  0.87179572898E+02  0.51100000000E-03 0. -1.
<mgrwt>
<rscale>  0 0.12501103E+03</rscale>
<asrwt>0</asrwt>
<pdfrwt beam="1">  1        4 0.26345992E-02 0.12501103E+03</pdfrwt>
<pdfrwt beam="2">  1       -4 0.35099054E-01 0.12501103E+03</pdfrwt>
<totfact> 0.82998482E+03</totfact>
</mgrwt>
</event>
<event>
 5    1  0.3296574E-054  0.1249988E+03  0.7818608E-02  0.1235071E+00
          4   -1    0    0  501    0  0.00000000000E+00  0.00000000000E+00  0.47595334609E+03  0.47595546436E+03  0.14200000000E+01 0. -1.
         -4   -1    0    0    0  501 -0.00000000000E+00 -0.00000000000E+00 -0.81434854781E+01  0.82663629083E+01  0.14200000000E+01 0.  1.
         25    2    1    2    0    0  0.00000000000E+00  0.00000000000E+00  0.46780986061E+03  0.48422182726E+03  0.12499884926E+03 0.  0.
        -11    1    3    3    0    0  0.48833749900E+02  0.36874161192E+02  0.18463908101E+03  0.19451485580E+03  0.51100000000E-03 0.  1.
         11    1    3    3    0    0 -0.48833749900E+02 -0.36874161192E+02  0.28317077960E+03  0.28970697146E+03  0.51100000000E-03 0. -1.
<mgrwt>
<rscale>  0 0.12499885E+03</rscale>
<asrwt>0</asrwt>
<pdfrwt beam="1">  1        4 0.73233212E-01 0.12499885E+03</pdfrwt>
<pdfrwt beam="2">  1       -4 0.12624589E-02 0.12499885E+03</pdfrwt>
<totfact> 0.57111124E+03</totfact>
</mgrwt>
</event>
<event>
 5    1  0.3296574E-054  0.1249974E+03  0.7818608E-02  0.1235073E+00
         -4   -1    0    0    0  501 -0.00000000000E+00  0.00000000000E+00  0.32410298686E+03  0.32410609758E+03  0.14200000000E+01 0.  1.
          4   -1    0    0  501    0  0.00000000000E+00 -0.00000000000E+00 -0.12006984687E+02  0.12090660911E+02  0.14200000000E+01 0. -1.
         25    2    1    2    0    0  0.00000000000E+00  0.00000000000E+00  0.31209600217E+03  0.33619675850E+03  0.12499738338E+03 0.  0.
        -11    1    3    3    0    0  0.38363027972E+02 -0.26914034960E+02  0.26726996576E+03  0.27134723472E+03  0.51100000000E-03 0.  1.
         11    1    3    3    0    0 -0.38363027972E+02  0.26914034960E+02  0.44826036409E+02  0.64849523772E+02  0.51100000000E-03 0. -1.
<mgrwt>
<rscale>  0 0.12499738E+03</rscale>
<asrwt>0</asrwt>
<pdfrwt beam="2">  1        4 0.18539043E-02 0.12499738E+03</pdfrwt>
<pdfrwt beam="1">  1       -4 0.49868676E-01 0.12499738E+03</pdfrwt>
<totfact> 0.71274388E+03</totfact>
</mgrwt>
</event>
<event>
 5    1  0.3296574E-054  0.1249987E+03  0.7818608E-02  0.1235071E+00
          4   -1    0    0  501    0  0.00000000000E+00  0.00000000000E+00  0.15745329043E+02  0.15809231059E+02  0.14200000000E+01 0. -1.
         -4   -1    0    0    0  501 -0.00000000000E+00 -0.00000000000E+00 -0.24751610982E+03  0.24752018306E+03  0.14200000000E+01 0.  1.
         25    2    1    2    0    0  0.00000000000E+00  0.00000000000E+00 -0.23177078078E+03  0.26332941412E+03  0.12499874206E+03 0.  0.
        -11    1    3    3    0    0  0.58579876788E+02 -0.20037639438E+02 -0.13389236522E+03  0.14751364148E+03  0.51100000000E-03 0.  1.
         11    1    3    3    0    0 -0.58579876788E+02  0.20037639438E+02 -0.97878415559E+02  0.11581577264E+03  0.51100000000E-03 0. -1.
<mgrwt>
<rscale>  0 0.12499874E+03</rscale>
<asrwt>0</asrwt>
<pdfrwt beam="1">  1        4 0.24275874E-02 0.12499874E+03</pdfrwt>
<pdfrwt beam="2">  1       -4 0.38084628E-01 0.12499874E+03</pdfrwt>
<totfact> 0.80443337E+03</totfact>
</mgrwt>
</event>
<event>
 5    1  0.3296574E-054  0.1249998E+03  0.7818608E-02  0.1235070E+00
          4   -1    0    0  501    0  0.00000000000E+00  0.00000000000E+00  0.24544958556E+02  0.24585999889E+02  0.14200000000E+01 0. -1.
         -4   -1    0    0    0  501 -0.00000000000E+00 -0.00000000000E+00 -0.15896908783E+03  0.15897542981E+03  0.14200000000E+01 0.  1.
         25    2    1    2    0    0  0.00000000000E+00  0.00000000000E+00 -0.13442412927E+03  0.18356142970E+03  0.12499980778E+03 0.  0.
        -11    1    3    3    0    0  0.46830237838E+02 -0.41281152334E+02 -0.71625681463E+02  0.95012856811E+02  0.51100000000E-03 0.  1.
         11    1    3    3    0    0 -0.46830237838E+02  0.41281152334E+02 -0.62798447808E+02  0.88548572893E+02  0.51100000000E-03 0. -1.
<mgrwt>
<rscale>  0 0.12499981E+03</rscale>
<asrwt>0</asrwt>
<pdfrwt beam="1">  1        4 0.37797924E-02 0.12499981E+03</pdfrwt>
<pdfrwt beam="2">  1       -4 0.24460427E-01 0.12499981E+03</pdfrwt>
<totfact> 0.92980235E+03</totfact>
</mgrwt>
</event>
<event>
 5    1  0.3296574E-054  0.1249962E+03  0.7818608E-02  0.1235075E+00
         -4   -1    0    0    0  501 -0.00000000000E+00  0.00000000000E+00  0.42082938301E+03  0.42083177875E+03  0.14200000000E+01 0.  1.
          4   -1    0    0  501    0  0.00000000000E+00 -0.00000000000E+00 -0.92249505327E+01  0.93336012519E+01  0.14200000000E+01 0. -1.
         25    2    1    2    0    0  0.00000000000E+00  0.00000000000E+00  0.41160443247E+03  0.43016538000E+03  0.12499618120E+03 0.  0.
        -11    1    3    3    0    0 -0.61819040317E+02 -0.35347955394E+00  0.23739831958E+03  0.24531547206E+03  0.51100000000E-03 0.  1.
         11    1    3    3    0    0  0.61819040317E+02  0.35347955394E+00  0.17420611290E+03  0.18484990794E+03  0.51100000000E-03 0. -1.
<mgrwt>
<rscale>  0 0.12499618E+03</rscale>
<asrwt>0</asrwt>
<pdfrwt beam="2">  1        4 0.14277649E-02 0.12499618E+03</pdfrwt>
<pdfrwt beam="1">  1       -4 0.64751537E-01 0.12499618E+03</pdfrwt>
<totfact> 0.61726191E+03</totfact>
</mgrwt>
</event>
<event>
 5    1  0.3296574E-054  0.1250042E+03  0.7818608E-02  0.1235063E+00
         -4   -1    0    0    0  501 -0.00000000000E+00  0.00000000000E+00  0.17132023818E+03  0.17132612296E+03  0.14200000000E+01 0.  1.
          4   -1    0    0  501    0  0.00000000000E+00 -0.00000000000E+00 -0.22773997087E+02  0.22818223930E+02  0.14200000000E+01 0. -1.
         25    2    1    2    0    0  0.00000000000E+00  0.00000000000E+00  0.14854624109E+03  0.19414434689E+03  0.12500416668E+03 0.  0.
        -11    1    3    3    0    0 -0.44913041013E+02 -0.26485880989E+02  0.12780061400E+03  0.13802782358E+03  0.51100000000E-03 0.  1.
         11    1    3    3    0    0  0.44913041013E+02  0.26485880989E+02  0.20745627096E+02  0.56116523312E+02  0.51100000000E-03 0. -1.
<mgrwt>
<rscale>  0 0.12500417E+03</rscale>
<asrwt>0</asrwt>
<pdfrwt beam="2">  1        4 0.35075465E-02 0.12500417E+03</pdfrwt>
<pdfrwt beam="1">  1       -4 0.26360815E-01 0.12500417E+03</pdfrwt>
<totfact> 0.91122668E+03</totfact>
</mgrwt>
</event>
<event>
 5    1  0.3296574E-054  0.1250002E+03  0.7818608E-02  0.1235069E+00
         -4   -1    0    0    0  501 -0.00000000000E+00  0.00000000000E+00  0.22276031486E+03  0.22276484076E+03  0.14200000000E+01 0.  1.
          4   -1    0    0  501    0  0.00000000000E+00 -0.00000000000E+00 -0.17502256743E+02  0.17559766260E+02  0.14200000000E+01 0. -1.
         25    2    1    2    0    0  0.00000000000E+00  0.00000000000E+00  0.20525805812E+03  0.24032460702E+03  0.12500018526E+03 0.  0.
        -11    1    3    3    0    0 -0.57042893613E+02 -0.67722468239E+01  0.55280626849E+02  0.79722661420E+02  0.51100000000E-03 0.  1.
         11    1    3    3    0    0  0.57042893613E+02  0.67722468239E+01  0.14997743127E+03  0.16060194560E+03  0.51100000000E-03 0. -1.
<mgrwt>
<rscale>  0 0.12500019E+03</rscale>
<asrwt>0</asrwt>
<pdfrwt beam="2">  1        4 0.26974268E-02 0.12500019E+03</pdfrwt>
<pdfrwt beam="1">  1       -4 0.34275590E-01 0.12500019E+03</pdfrwt>
<totfact> 0.83748699E+03</totfact>
</mgrwt>
</event>
<event>
 5    1  0.3296574E-054  0.1249990E+03  0.7818608E-02  0.1235071E+00
         -4   -1    0    0    0  501 -0.00000000000E+00  0.00000000000E+00  0.34618490983E+03  0.34618782214E+03  0.14200000000E+01 0.  1.
          4   -1    0    0  501    0  0.00000000000E+00 -0.00000000000E+00 -0.11235885975E+02  0.11325260864E+02  0.14200000000E+01 0. -1.
         25    2    1    2    0    0  0.00000000000E+00  0.00000000000E+00  0.33494902386E+03  0.35751308300E+03  0.12499902373E+03 0.  0.
        -11    1    3    3    0    0  0.22042885119E+02 -0.57313328846E+02  0.20076552226E+03  0.20994642501E+03  0.51100000000E-03 0.  1.
         11    1    3    3    0    0 -0.22042885119E+02  0.57313328846E+02  0.13418350160E+03  0.14756665799E+03  0.51100000000E-03 0. -1.
<mgrwt>
<rscale>  0 0.12499902E+03</rscale>
<asrwt>0</asrwt>
<pdfrwt beam="2">  1        4 0.17356969E-02 0.12499902E+03</pdfrwt>
<pdfrwt beam="1">  1       -4 0.53266315E-01 0.12499902E+03</pdfrwt>
<totfact> 0.68907344E+03</totfact>
</mgrwt>
</event>
<event>
 5    1  0.3296574E-054  0.1249958E+03  0.7818608E-02  0.1235076E+00
         -4   -1    0    0    0  501 -0.00000000000E+00  0.00000000000E+00  0.74807177520E+01  0.76142982661E+01  0.14200000000E+01 0.  1.
          4   -1    0    0  501    0  0.00000000000E+00 -0.00000000000E+00 -0.51738576956E+03  0.51738771820E+03  0.14200000000E+01 0. -1.
         25    2    1    2    0    0  0.00000000000E+00  0.00000000000E+00 -0.50990505181E+03  0.52500201647E+03  0.12499582166E+03 0.  0.
        -11    1    3    3    0    0  0.52781391248E+02 -0.30293116630E+02 -0.19519200555E+03  0.20445896217E+03  0.51100000000E-03 0.  1.
         11    1    3    3    0    0 -0.52781391248E+02  0.30293116630E+02 -0.31471304625E+03  0.32054305430E+03  0.51100000000E-03 0. -1.
<mgrwt>
<rscale>  0 0.12499582E+03</rscale>
<asrwt>0</asrwt>
<pdfrwt beam="2">  1        4 0.79608208E-01 0.12499582E+03</pdfrwt>
<pdfrwt beam="1">  1       -4 0.11613054E-02 0.12499582E+03</pdfrwt>
<totfact> 0.53980358E+03</totfact>
</mgrwt>
</event>
<event>
 5    1  0.3296574E-054  0.1249964E+03  0.7818608E-02  0.1235075E+00
          4   -1    0    0  501    0  0.00000000000E+00  0.00000000000E+00  0.39374207442E+02  0.39399804716E+02  0.14200000000E+01 0.  1.
         -4   -1    0    0    0  501 -0.00000000000E+00 -0.00000000000E+00 -0.99139708632E+02  0.99149877597E+02  0.14200000000E+01 0. -1.
         25    2    1    2    0    0  0.00000000000E+00  0.00000000000E+00 -0.59765501189E+02  0.13854968231E+03  0.12499639730E+03 0.  0.
        -11    1    3    3    0    0 -0.55523201015E+02 -0.15990205180E+02 -0.34771721261E+01  0.57884395470E+02  0.51100000000E-03 0. -1.
         11    1    3    3    0    0  0.55523201015E+02  0.15990205180E+02 -0.56288329063E+02  0.80665286844E+02  0.51100000000E-03 0.  1.
<mgrwt>
<rscale>  0 0.12499640E+03</rscale>
<asrwt>0</asrwt>
<pdfrwt beam="1">  1        4 0.60603217E-02 0.12499640E+03</pdfrwt>
<pdfrwt beam="2">  1       -4 0.15255014E-01 0.12499640E+03</pdfrwt>
<totfact> 0.10164558E+04</totfact>
</mgrwt>
</event>
<event>
 5    1  0.3296574E-054  0.1249977E+03  0.7818608E-02  0.1235073E+00
         -4   -1    0    0    0  501 -0.00000000000E+00  0.00000000000E+00  0.37199013583E+02  0.37226106586E+02  0.14200000000E+01 0.  1.
          4   -1    0    0  501    0  0.00000000000E+00 -0.00000000000E+00 -0.10493544392E+03  0.10494505130E+03  0.14200000000E+01 0. -1.
         25    2    1    2    0    0  0.00000000000E+00  0.00000000000E+00 -0.67736430341E+02  0.14217115788E+03  0.12499765653E+03 0.  0.
        -11    1    3    3    0    0 -0.51123635208E+01  0.40860082948E+02  0.19606332322E+02  0.45608013624E+02  0.51100000000E-03 0.  1.
         11    1    3    3    0    0  0.51123635208E+01 -0.40860082948E+02 -0.87342762663E+02  0.96563144259E+02  0.51100000000E-03 0. -1.
<mgrwt>
<rscale>  0 0.12499766E+03</rscale>
<asrwt>0</asrwt>
<pdfrwt beam="2">  1        4 0.16146737E-01 0.12499766E+03</pdfrwt>
<pdfrwt beam="1">  1       -4 0.57257483E-02 0.12499766E+03</pdfrwt>
<totfact> 0.10089317E+04</totfact>
</mgrwt>
</event>
<event>
 5    1  0.3296574E-054  0.1250150E+03  0.7818608E-02  0.1235046E+00
         -4   -1    0    0    0  501 -0.00000000000E+00  0.00000000000E+00  0.91538857345E+01  0.92633700153E+01  0.14200000000E+01 0.  1.
          4   -1    0    0  501    0  0.00000000000E+00 -0.00000000000E+00 -0.42418591055E+03  0.42418828733E+03  0.14200000000E+01 0. -1.
         25    2    1    2    0    0  0.00000000000E+00  0.00000000000E+00 -0.41503202482E+03  0.43345165735E+03  0.12501502963E+03 0.  0.
        -11    1    3    3    0    0 -0.99312605756E+00  0.62269793877E+02 -0.18894922296E+03  0.19894803942E+03  0.51100000000E-03 0.  1.
         11    1    3    3    0    0  0.99312605756E+00 -0.62269793877E+02 -0.22608280185E+03  0.23450361793E+03  0.51100000000E-03 0. -1.
<mgrwt>
<rscale>  0 0.12501503E+03</rscale>
<asrwt>0</asrwt>
<pdfrwt beam="2">  1        4 0.65267960E-01 0.12501503E+03</pdfrwt>
<pdfrwt beam="1">  1       -4 0.14168951E-02 0.12501503E+03</pdfrwt>
<totfact> 0.61404021E+03</totfact>
</mgrwt>
</event>
<event>
 5    1  0.3296574E-054  0.1250018E+03  0.7818608E-02  0.1235066E+00
          4   -1    0    0  501    0  0.00000000000E+00  0.00000000000E+00  0.48256895013E+03  0.48257103937E+03  0.14200000000E+01 0. -1.
         -4   -1    0    0    0  501 -0.00000000000E+00 -0.00000000000E+00 -0.80305400766E+01  0.81551194916E+01  0.14200000000E+01 0.  1.
         25    2    1    2    0    0  0.00000000000E+00  0.00000000000E+00  0.47453841006E+03  0.49072615886E+03  0.12500184145E+03 0.  0.
        -11    1    3    3    0    0  0.52329026839E+02  0.34165639745E+02  0.24066243113E+03  0.24864437204E+03  0.51100000000E-03 0.  1.
         11    1    3    3    0    0 -0.52329026839E+02 -0.34165639745E+02  0.23387597893E+03  0.24208178682E+03  0.51100000000E-03 0. -1.
<mgrwt>
<rscale>  0 0.12500184E+03</rscale>
<asrwt>0</asrwt>
<pdfrwt beam="1">  1        4 0.74251127E-01 0.12500184E+03</pdfrwt>
<pdfrwt beam="2">  1       -4 0.12452113E-02 0.12500184E+03</pdfrwt>
<totfact> 0.56588854E+03</totfact>
</mgrwt>
</event>
<event>
 5    1  0.3296574E-054  0.1250039E+03  0.7818608E-02  0.1235063E+00
         -4   -1    0    0    0  501 -0.00000000000E+00  0.00000000000E+00  0.42543429562E+02  0.42567121102E+02  0.14200000000E+01 0.  1.
          4   -1    0    0  501    0  0.00000000000E+00 -0.00000000000E+00 -0.91768875884E+02  0.91779861522E+02  0.14200000000E+01 0. -1.
         25    2    1    2    0    0  0.00000000000E+00  0.00000000000E+00 -0.49225446321E+02  0.13434698262E+03  0.12500386864E+03 0.  0.
        -11    1    3    3    0    0  0.52512705386E+02 -0.20195425413E+02  0.46442174399E+01  0.56453593247E+02  0.51100000000E-03 0.  1.
         11    1    3    3    0    0 -0.52512705386E+02  0.20195425413E+02 -0.53869663761E+02  0.77893389377E+02  0.51100000000E-03 0. -1.
<mgrwt>
<rscale>  0 0.12500387E+03</rscale>
<asrwt>0</asrwt>
<pdfrwt beam="2">  1        4 0.14120956E-01 0.12500387E+03</pdfrwt>
<pdfrwt beam="1">  1       -4 0.65478105E-02 0.12500387E+03</pdfrwt>
<totfact> 0.10250959E+04</totfact>
</mgrwt>
</event>
<event>
 5    1  0.3296574E-054  0.1249858E+03  0.7818608E-02  0.1235091E+00
          4   -1    0    0  501    0  0.00000000000E+00  0.00000000000E+00  0.45834493329E+03  0.45834713294E+03  0.14200000000E+01 0.  1.
         -4   -1    0    0    0  501 -0.00000000000E+00 -0.00000000000E+00 -0.84591754834E+01  0.85775316880E+01  0.14200000000E+01 0. -1.
         25    2    1    2    0    0  0.00000000000E+00  0.00000000000E+00  0.44988575781E+03  0.46692466463E+03  0.12498578863E+03 0.  0.
        -11    1    3    3    0    0  0.23988832149E+02  0.55914573409E+02  0.17165556422E+03  0.18211956598E+03  0.51100000000E-03 0. -1.
         11    1    3    3    0    0 -0.23988832149E+02 -0.55914573409E+02  0.27823019359E+03  0.28480509864E+03  0.51100000000E-03 0.  1.
<mgrwt>
<rscale>  0 0.12498579E+03</rscale>
<asrwt>0</asrwt>
<pdfrwt beam="1">  1        4 0.70523893E-01 0.12498579E+03</pdfrwt>
<pdfrwt beam="2">  1       -4 0.13106849E-02 0.12498579E+03</pdfrwt>
<totfact> 0.58543451E+03</totfact>
</mgrwt>
</event>
<event>
 5    1  0.3296574E-054  0.1249948E+03  0.7818608E-02  0.1235077E+00
          4   -1    0    0  501    0  0.00000000000E+00  0.00000000000E+00  0.12548585141E+03  0.12549388553E+03  0.14200000000E+01 0.  1.
         -4   -1    0    0    0  501 -0.00000000000E+00 -0.00000000000E+00 -0.31101182339E+02  0.31133582236E+02  0.14200000000E+01 0. -1.
         25    2    1    2    0    0  0.00000000000E+00  0.00000000000E+00  0.94384669076E+02  0.15662746777E+03  0.12499479150E+03 0.  0.
        -11    1    3    3    0    0 -0.42553757431E+02 -0.13653337677E+02 -0.75525503666E+01  0.45324131746E+02  0.51100000000E-03 0. -1.
         11    1    3    3    0    0  0.42553757431E+02  0.13653337677E+02  0.10193721944E+03  0.11130333602E+03  0.51100000000E-03 0.  1.
<mgrwt>
<rscale>  0 0.12499479E+03</rscale>
<asrwt>0</asrwt>
<pdfrwt beam="1">  1        4 0.19308626E-01 0.12499479E+03</pdfrwt>
<pdfrwt beam="2">  1       -4 0.47879075E-02 0.12499479E+03</pdfrwt>
<totfact> 0.98008428E+03</totfact>
</mgrwt>
</event>
<event>
 5    1  0.3296574E-054  0.1249815E+03  0.7818608E-02  0.1235098E+00
          4   -1    0    0  501    0  0.00000000000E+00  0.00000000000E+00  0.13445496405E+02  0.13520272688E+02  0.14200000000E+01 0. -1.
         -4   -1    0    0    0  501 -0.00000000000E+00 -0.00000000000E+00 -0.28955673335E+03  0.28956021521E+03  0.14200000000E+01 0.  1.
         25    2    1    2    0    0  0.00000000000E+00  0.00000000000E+00 -0.27611123695E+03  0.30308048789E+03  0.12498146652E+03 0.  0.
        -11    1    3    3    0    0 -0.26216311693E+02  0.56628339159E+02 -0.14610865597E+03  0.15887669163E+03  0.51100000000E-03 0.  1.
         11    1    3    3    0    0  0.26216311693E+02 -0.56628339159E+02 -0.13000258098E+03  0.14420379626E+03  0.51100000000E-03 0. -1.
<mgrwt>
<rscale>  0 0.12498147E+03</rscale>
<asrwt>0</asrwt>
<pdfrwt beam="1">  1        4 0.20745580E-02 0.12498147E+03</pdfrwt>
<pdfrwt beam="2">  1       -4 0.44553205E-01 0.12498147E+03</pdfrwt>
<totfact> 0.75244995E+03</totfact>
</mgrwt>
</event>
<event>
 5    1  0.3296574E-054  0.1250022E+03  0.7818608E-02  0.1235066E+00
         -4   -1    0    0    0  501 -0.00000000000E+00  0.00000000000E+00  0.40315138525E+02  0.40340138749E+02  0.14200000000E+01 0.  1.
          4   -1    0    0  501    0  0.00000000000E+00 -0.00000000000E+00 -0.96836039415E+02  0.96846450269E+02  0.14200000000E+01 0. -1.
         25    2    1    2    0    0  0.00000000000E+00  0.00000000000E+00 -0.56520900891E+02  0.13718658902E+03  0.12500219186E+03 0.  0.
        -11    1    3    3    0    0 -0.38147199787E+02 -0.40506560199E+02 -0.59502741026E+02  0.81465124198E+02  0.51100000000E-03 0.  1.
         11    1    3    3    0    0  0.38147199787E+02  0.40506560199E+02  0.29818401353E+01  0.55721464819E+02  0.51100000000E-03 0. -1.
<mgrwt>
<rscale>  0 0.12500219E+03</rscale>
<asrwt>0</asrwt>
<pdfrwt beam="2">  1        4 0.14900576E-01 0.12500219E+03</pdfrwt>
<pdfrwt beam="1">  1       -4 0.62050529E-02 0.12500219E+03</pdfrwt>
<totfact> 0.10191682E+04</totfact>
</mgrwt>
</event>
<event>
 5    1  0.3296574E-054  0.1250001E+03  0.7818608E-02  0.1235069E+00
         -4   -1    0    0    0  501 -0.00000000000E+00  0.00000000000E+00  0.13125442093E+02  0.13202031288E+02  0.14200000000E+01 0.  1.
          4   -1    0    0  501    0  0.00000000000E+00 -0.00000000000E+00 -0.29666547031E+03  0.29666886873E+03  0.14200000000E+01 0. -1.
         25    2    1    2    0    0  0.00000000000E+00  0.00000000000E+00 -0.28354002822E+03  0.30987090002E+03  0.12500010831E+03 0.  0.
        -11    1    3    3    0    0 -0.49335456701E+02  0.37760073741E+02 -0.12487548765E+03  0.13947651369E+03  0.51100000000E-03 0.  1.
         11    1    3    3    0    0  0.49335456701E+02 -0.37760073741E+02 -0.15866454057E+03  0.17039438633E+03  0.51100000000E-03 0. -1.
<mgrwt>
<rscale>  0 0.12500011E+03</rscale>
<asrwt>0</asrwt>
<pdfrwt beam="2">  1        4 0.45646990E-01 0.12500011E+03</pdfrwt>
<pdfrwt beam="1">  1       -4 0.20254519E-02 0.12500011E+03</pdfrwt>
<totfact> 0.74376925E+03</totfact>
</mgrwt>
</event>
<event>
 5    1  0.3296574E-054  0.1249999E+03  0.7818608E-02  0.1235069E+00
         -4   -1    0    0    0  501 -0.00000000000E+00  0.00000000000E+00  0.95342615271E+02  0.95353189179E+02  0.14200000000E+01 0.  1.
          4   -1    0    0  501    0  0.00000000000E+00 -0.00000000000E+00 -0.40945461874E+02  0.40970077472E+02  0.14200000000E+01 0. -1.
         25    2    1    2    0    0  0.00000000000E+00  0.00000000000E+00  0.54397153397E+02  0.13632326665E+03  0.12499993093E+03 0.  0.
        -11    1    3    3    0    0 -0.17082781835E+02  0.51289252911E+02  0.61406108490E+02  0.81811484887E+02  0.51100000000E-03 0.  1.
         11    1    3    3    0    0  0.17082781835E+02 -0.51289252911E+02 -0.70089550930E+01  0.54511781764E+02  0.51100000000E-03 0. -1.
<mgrwt>
<rscale>  0 0.12499993E+03</rscale>
<asrwt>0</asrwt>
<pdfrwt beam="2">  1        4 0.63020088E-02 0.12499993E+03</pdfrwt>
<pdfrwt beam="1">  1       -4 0.14670801E-01 0.12499993E+03</pdfrwt>
<totfact> 0.10210270E+04</totfact>
</mgrwt>
</event>
<event>
 5    1  0.3296574E-054  0.1250069E+03  0.7818608E-02  0.1235059E+00
         -4   -1    0    0    0  501 -0.00000000000E+00  0.00000000000E+00  0.40805738248E+02  0.40830438082E+02  0.14200000000E+01 0. -1.
          4   -1    0    0  501    0  0.00000000000E+00 -0.00000000000E+00 -0.95679563456E+02  0.95690100131E+02  0.14200000000E+01 0.  1.
         25    2    1    2    0    0  0.00000000000E+00  0.00000000000E+00 -0.54873825208E+02  0.13652053821E+03  0.12500688245E+03 0.  0.
        -11    1    3    3    0    0 -0.47294124171E+02 -0.38494785962E+02 -0.42414970570E+02  0.74280633115E+02  0.51100000000E-03 0. -1.
         11    1    3    3    0    0  0.47294124171E+02  0.38494785962E+02 -0.12458854638E+02  0.62239905097E+02  0.51100000000E-03 0.  1.
<mgrwt>
<rscale>  0 0.12500688E+03</rscale>
<asrwt>0</asrwt>
<pdfrwt beam="2">  1        4 0.14722643E-01 0.12500688E+03</pdfrwt>
<pdfrwt beam="1">  1       -4 0.62805164E-02 0.12500688E+03</pdfrwt>
<totfact> 0.10204537E+04</totfact>
</mgrwt>
</event>
<event>
 5    1  0.3296574E-054  0.1250015E+03  0.7818608E-02  0.1235067E+00
         -4   -1    0    0    0  501 -0.00000000000E+00  0.00000000000E+00  0.48748591333E+02  0.48769268571E+02  0.14200000000E+01 0.  1.
          4   -1    0    0  501    0  0.00000000000E+00 -0.00000000000E+00 -0.80088474508E+02  0.80101062097E+02  0.14200000000E+01 0. -1.
         25    2    1    2    0    0  0.00000000000E+00  0.00000000000E+00 -0.31339883176E+02  0.12887033067E+03  0.12500149539E+03 0.  0.
        -11    1    3    3    0    0 -0.26879701265E+02  0.21304934976E+02  0.38195854376E+02  0.51335581093E+02  0.51100000000E-03 0.  1.
         11    1    3    3    0    0  0.26879701265E+02 -0.21304934976E+02 -0.69535737552E+02  0.77534749574E+02  0.51100000000E-03 0. -1.
<mgrwt>
<rscale>  0 0.12500150E+03</rscale>
<asrwt>0</asrwt>
<pdfrwt beam="2">  1        4 0.12323863E-01 0.12500150E+03</pdfrwt>
<pdfrwt beam="1">  1       -4 0.75023422E-02 0.12500150E+03</pdfrwt>
<totfact> 0.10368384E+04</totfact>
</mgrwt>
</event>
<event>
 5    1  0.3296574E-054  0.1249992E+03  0.7818608E-02  0.1235071E+00
          4   -1    0    0  501    0  0.00000000000E+00  0.00000000000E+00  0.15375835542E+03  0.15376491233E+03  0.14200000000E+01 0. -1.
         -4   -1    0    0    0  501 -0.00000000000E+00 -0.00000000000E+00 -0.25377834035E+02  0.25417530571E+02  0.14200000000E+01 0.  1.
         25    2    1    2    0    0  0.00000000000E+00  0.00000000000E+00  0.12838052139E+03  0.17918244290E+03  0.12499915828E+03 0.  0.
        -11    1    3    3    0    0 -0.56849999718E+01 -0.58940720163E+02  0.35525547603E+02  0.69053546257E+02  0.51100000000E-03 0.  1.
         11    1    3    3    0    0  0.56849999718E+01  0.58940720163E+02  0.92854973787E+02  0.11012889664E+03  0.51100000000E-03 0. -1.
<mgrwt>
<rscale>  0 0.12499916E+03</rscale>
<asrwt>0</asrwt>
<pdfrwt beam="1">  1        4 0.23658690E-01 0.12499916E+03</pdfrwt>
<pdfrwt beam="2">  1       -4 0.39078401E-02 0.12499916E+03</pdfrwt>
<totfact> 0.93766143E+03</totfact>
</mgrwt>
</event>
<event>
 5    1  0.3296574E-054  0.1250000E+03  0.7818608E-02  0.1235069E+00
          4   -1    0    0  501    0  0.00000000000E+00  0.00000000000E+00  0.50017710083E+02  0.50037862883E+02  0.14200000000E+01 0. -1.
         -4   -1    0    0    0  501 -0.00000000000E+00 -0.00000000000E+00 -0.78054987427E+02  0.78067902894E+02  0.14200000000E+01 0.  1.
         25    2    1    2    0    0  0.00000000000E+00  0.00000000000E+00 -0.28037277344E+02  0.12810576578E+03  0.12499999322E+03 0.  0.
        -11    1    3    3    0    0 -0.12423247083E+02  0.61119276569E+02 -0.18162179296E+02  0.64959739789E+02  0.51100000000E-03 0.  1.
         11    1    3    3    0    0  0.12423247083E+02 -0.61119276569E+02 -0.98750980485E+01  0.63146025989E+02  0.51100000000E-03 0. -1.
<mgrwt>
<rscale>  0 0.12499999E+03</rscale>
<asrwt>0</asrwt>
<pdfrwt beam="1">  1        4 0.76975760E-02 0.12499999E+03</pdfrwt>
<pdfrwt beam="2">  1       -4 0.12011003E-01 0.12499999E+03</pdfrwt>
<totfact> 0.10385206E+04</totfact>
</mgrwt>
</event>
<event>
 5    1  0.3296574E-054  0.1250000E+03  0.7818608E-02  0.1235069E+00
          4   -1    0    0  501    0  0.00000000000E+00  0.00000000000E+00  0.18442726684E+02  0.18497312441E+02  0.14200000000E+01 0. -1.
         -4   -1    0    0    0  501 -0.00000000000E+00 -0.00000000000E+00 -0.21143434070E+03  0.21143910903E+03  0.14200000000E+01 0.  1.
         25    2    1    2    0    0  0.00000000000E+00  0.00000000000E+00 -0.19299161402E+03  0.22993642147E+03  0.12499997935E+03 0.  0.
        -11    1    3    3    0    0 -0.53221340981E+02 -0.28153460701E+02 -0.12733790211E+03  0.14085478266E+03  0.51100000000E-03 0.  1.
         11    1    3    3    0    0  0.53221340981E+02  0.28153460701E+02 -0.65653711906E+02  0.89081638806E+02  0.51100000000E-03 0. -1.
<mgrwt>
<rscale>  0 0.12499998E+03</rscale>
<asrwt>0</asrwt>
<pdfrwt beam="1">  1        4 0.28419084E-02 0.12499998E+03</pdfrwt>
<pdfrwt beam="2">  1       -4 0.32532924E-01 0.12499998E+03</pdfrwt>
<totfact> 0.85319400E+03</totfact>
</mgrwt>
</event>
<event>
 5    1  0.3296574E-054  0.1250012E+03  0.7818608E-02  0.1235067E+00
          4   -1    0    0  501    0  0.00000000000E+00  0.00000000000E+00  0.71015906947E+02  0.71030102347E+02  0.14200000000E+01 0. -1.
         -4   -1    0    0    0  501 -0.00000000000E+00 -0.00000000000E+00 -0.54977467096E+02  0.54995802460E+02  0.14200000000E+01 0.  1.
         25    2    1    2    0    0  0.00000000000E+00  0.00000000000E+00  0.16038439851E+02  0.12602590481E+03  0.12500118851E+03 0.  0.
        -11    1    3    3    0    0 -0.54064131227E+02  0.31348031586E+02  0.71787721465E+01  0.62905994464E+02  0.51100000000E-03 0.  1.
         11    1    3    3    0    0  0.54064131227E+02 -0.31348031586E+02  0.88596677045E+01  0.63119910344E+02  0.51100000000E-03 0. -1.
<mgrwt>
<rscale>  0 0.12500119E+03</rscale>
<asrwt>0</asrwt>
<pdfrwt beam="1">  1        4 0.10928026E-01 0.12500119E+03</pdfrwt>
<pdfrwt beam="2">  1       -4 0.84605743E-02 0.12500119E+03</pdfrwt>
<totfact> 0.10430110E+04</totfact>
</mgrwt>
</event>
<event>
 5    1  0.3296574E-054  0.1250021E+03  0.7818608E-02  0.1235066E+00
          4   -1    0    0  501    0  0.00000000000E+00  0.00000000000E+00  0.93843176956E+02  0.93853919797E+02  0.14200000000E+01 0. -1.
         -4   -1    0    0    0  501 -0.00000000000E+00 -0.00000000000E+00 -0.41601470667E+02  0.41625698333E+02  0.14200000000E+01 0.  1.
         25    2    1    2    0    0  0.00000000000E+00  0.00000000000E+00  0.52241706289E+02  0.13547961813E+03  0.12500212419E+03 0.  0.
        -11    1    3    3    0    0 -0.42756648214E+02 -0.36058475820E+02 -0.41104597326E+01  0.56082443995E+02  0.51100000000E-03 0.  1.
         11    1    3    3    0    0  0.42756648214E+02  0.36058475820E+02  0.56352166022E+02  0.79397174135E+02  0.51100000000E-03 0. -1.
<mgrwt>
<rscale>  0 0.12500212E+03</rscale>
<asrwt>0</asrwt>
<pdfrwt beam="1">  1        4 0.14440102E-01 0.12500212E+03</pdfrwt>
<pdfrwt beam="2">  1       -4 0.64029163E-02 0.12500212E+03</pdfrwt>
<totfact> 0.10227482E+04</totfact>
</mgrwt>
</event>
<event>
 5    1  0.3296574E-054  0.1249975E+03  0.7818608E-02  0.1235073E+00
         -4   -1    0    0    0  501 -0.00000000000E+00  0.00000000000E+00  0.36418505568E+02  0.36446178782E+02  0.14200000000E+01 0.  1.
          4   -1    0    0  501    0  0.00000000000E+00 -0.00000000000E+00 -0.10718265568E+03  0.10719206164E+03  0.14200000000E+01 0. -1.
         25    2    1    2    0    0  0.00000000000E+00  0.00000000000E+00 -0.70764150111E+02  0.14363824042E+03  0.12499751666E+03 0.  0.
        -11    1    3    3    0    0 -0.58922734052E+02  0.18064629162E+02 -0.23446870810E+02  0.65939177777E+02  0.51100000000E-03 0.  1.
         11    1    3    3    0    0  0.58922734052E+02 -0.18064629162E+02 -0.47317279301E+02  0.77699062643E+02  0.51100000000E-03 0. -1.
<mgrwt>
<rscale>  0 0.12499752E+03</rscale>
<asrwt>0</asrwt>
<pdfrwt beam="2">  1        4 0.16492491E-01 0.12499752E+03</pdfrwt>
<pdfrwt beam="1">  1       -4 0.56056993E-02 0.12499752E+03</pdfrwt>
<totfact> 0.10059293E+04</totfact>
</mgrwt>
</event>
<event>
 5    1  0.3296574E-054  0.1249996E+03  0.7818608E-02  0.1235070E+00
          4   -1    0    0  501    0  0.00000000000E+00  0.00000000000E+00  0.10137669844E+02  0.10236637625E+02  0.14200000000E+01 0. -1.
         -4   -1    0    0    0  501 -0.00000000000E+00 -0.00000000000E+00 -0.38334586889E+03  0.38334849888E+03  0.14200000000E+01 0.  1.
         25    2    1    2    0    0  0.00000000000E+00  0.00000000000E+00 -0.37320819904E+03  0.39358513650E+03  0.12499959937E+03 0.  0.
        -11    1    3    3    0    0  0.41649904589E+01 -0.61596490803E+02 -0.21725335921E+03  0.22585503517E+03  0.51100000000E-03 0.  1.
         11    1    3    3    0    0 -0.41649904589E+01  0.61596490803E+02 -0.15595483983E+03  0.16773010133E+03  0.51100000000E-03 0. -1.
<mgrwt>
<rscale>  0 0.12499960E+03</rscale>
<asrwt>0</asrwt>
<pdfrwt beam="1">  1        4 0.15674570E-02 0.12499960E+03</pdfrwt>
<pdfrwt beam="2">  1       -4 0.58984092E-01 0.12499960E+03</pdfrwt>
<totfact> 0.65182091E+03</totfact>
</mgrwt>
</event>
<event>
 5    1  0.3296574E-054  0.1249970E+03  0.7818608E-02  0.1235074E+00
          4   -1    0    0  501    0  0.00000000000E+00  0.00000000000E+00  0.26603919819E+02  0.26641789538E+02  0.14200000000E+01 0. -1.
         -4   -1    0    0    0  501 -0.00000000000E+00 -0.00000000000E+00 -0.14667708758E+03  0.14668396102E+03  0.14200000000E+01 0.  1.
         25    2    1    2    0    0  0.00000000000E+00  0.00000000000E+00 -0.12007316776E+03  0.17332575056E+03  0.12499700073E+03 0.  0.
        -11    1    3    3    0    0 -0.38421443212E+02 -0.22579937089E+02 -0.12079609945E+03  0.12875464458E+03  0.51100000000E-03 0.  1.
         11    1    3    3    0    0  0.38421443212E+02  0.22579937089E+02  0.72293169591E+00  0.44571105976E+02  0.51100000000E-03 0. -1.
<mgrwt>
<rscale>  0 0.12499700E+03</rscale>
<asrwt>0</asrwt>
<pdfrwt beam="1">  1        4 0.40963526E-02 0.12499700E+03</pdfrwt>
<pdfrwt beam="2">  1       -4 0.22569147E-01 0.12499700E+03</pdfrwt>
<totfact> 0.94838755E+03</totfact>
</mgrwt>
</event>
<event>
 5    1  0.3296574E-054  0.1249995E+03  0.7818608E-02  0.1235070E+00
         -4   -1    0    0    0  501 -0.00000000000E+00  0.00000000000E+00  0.41975896336E+02  0.41999908014E+02  0.14200000000E+01 0.  1.
          4   -1    0    0  501    0  0.00000000000E+00 -0.00000000000E+00 -0.93002627809E+02  0.93013467731E+02  0.14200000000E+01 0. -1.
         25    2    1    2    0    0  0.00000000000E+00  0.00000000000E+00 -0.51026731473E+02  0.13501337574E+03  0.12499953722E+03 0.  0.
        -11    1    3    3    0    0  0.60740938229E+02  0.59625259861E+01 -0.10973619914E+02  0.62011560433E+02  0.51100000000E-03 0.  1.
         11    1    3    3    0    0 -0.60740938229E+02 -0.59625259861E+01 -0.40053111559E+02  0.73001815312E+02  0.51100000000E-03 0. -1.
<mgrwt>
<rscale>  0 0.12499954E+03</rscale>
<asrwt>0</asrwt>
<pdfrwt beam="2">  1        4 0.14310777E-01 0.12499954E+03</pdfrwt>
<pdfrwt beam="1">  1       -4 0.64605111E-02 0.12499954E+03</pdfrwt>
<totfact> 0.10237896E+04</totfact>
</mgrwt>
</event>
<event>
 4    1  0.3296574E-054  0.1249419E+03  0.7818608E-02  0.1235160E+00
          4   -1    0    0  501    0  0.00000000000E+00  0.00000000000E+00  0.28582411325E+03  0.28582764057E+03  0.14200000000E+01 0. -1.
         -4   -1    0    0    0  501 -0.00000000000E+00 -0.00000000000E+00 -0.13613373640E+02  0.13687232806E+02  0.14200000000E+01 0.  1.
        -11    1    1    2    0    0 -0.73713437132E+01 -0.57984305872E+02  0.18895889338E+03  0.19779276990E+03  0.51100000000E-03 0.  1.
         11    1    1    2    0    0  0.73713437132E+01  0.57984305872E+02  0.83251846224E+02  0.10172210348E+03  0.51100000000E-03 0. -1.
<mgrwt>
<rscale>  0 0.12494188E+03</rscale>
<asrwt>0</asrwt>
<pdfrwt beam="1">  1        4 0.43978890E-01 0.12494188E+03</pdfrwt>
<pdfrwt beam="2">  1       -4 0.21003182E-02 0.12494188E+03</pdfrwt>
<totfact> 0.75757442E+03</totfact>
</mgrwt>
</event>
<event>
 5    1  0.3296574E-054  0.1249993E+03  0.7818608E-02  0.1235070E+00
         -4   -1    0    0    0  501 -0.00000000000E+00  0.00000000000E+00  0.99339307920E+02  0.99349456456E+02  0.14200000000E+01 0.  1.
          4   -1    0    0  501    0  0.00000000000E+00 -0.00000000000E+00 -0.39296871612E+02  0.39322519229E+02  0.14200000000E+01 0. -1.
         25    2    1    2    0    0  0.00000000000E+00  0.00000000000E+00  0.60042436308E+02  0.13867197568E+03  0.12499929073E+03 0.  0.
        -11    1    3    3    0    0 -0.53893628067E+02 -0.21051331948E+02  0.56239368748E+02  0.80687968870E+02  0.51100000000E-03 0.  1.
         11    1    3    3    0    0  0.53893628067E+02  0.21051331948E+02  0.38030675605E+01  0.57984006814E+02  0.51100000000E-03 0. -1.
<mgrwt>
<rscale>  0 0.12499929E+03</rscale>
<asrwt>0</asrwt>
<pdfrwt beam="2">  1        4 0.60484262E-02 0.12499929E+03</pdfrwt>
<pdfrwt beam="1">  1       -4 0.15285724E-01 0.12499929E+03</pdfrwt>
<totfact> 0.10161347E+04</totfact>
</mgrwt>
</event>
<event>
 5    1  0.3296574E-054  0.1249982E+03  0.7818608E-02  0.1235072E+00
          4   -1    0    0  501    0  0.00000000000E+00  0.00000000000E+00  0.51656259612E+02  0.51675773406E+02  0.14200000000E+01 0.  1.
         -4   -1    0    0    0  501 -0.00000000000E+00 -0.00000000000E+00 -0.75577437335E+02  0.75590776118E+02  0.14200000000E+01 0. -1.
         25    2    1    2    0    0  0.00000000000E+00  0.00000000000E+00 -0.23921177723E+02  0.12726654952E+03  0.12499820752E+03 0.  0.
        -11    1    3    3    0    0 -0.48212544407E+02  0.38806064497E+02 -0.20823609102E+02  0.65299178985E+02  0.51100000000E-03 0. -1.
         11    1    3    3    0    0  0.48212544407E+02 -0.38806064497E+02 -0.30975686213E+01  0.61967370539E+02  0.51100000000E-03 0.  1.
<mgrwt>
<rscale>  0 0.12499821E+03</rscale>
<asrwt>0</asrwt>
<pdfrwt beam="1">  1        4 0.79496440E-02 0.12499821E+03</pdfrwt>
<pdfrwt beam="2">  1       -4 0.11629825E-01 0.12499821E+03</pdfrwt>
<totfact> 0.10403781E+04</totfact>
</mgrwt>
</event>
<event>
 5    1  0.3296574E-054  0.1250026E+03  0.7818608E-02  0.1235065E+00
          4   -1    0    0  501    0  0.00000000000E+00  0.00000000000E+00  0.44924717412E+02  0.44947153798E+02  0.14200000000E+01 0.  1.
         -4   -1    0    0    0  501 -0.00000000000E+00 -0.00000000000E+00 -0.86904636127E+02  0.86916236575E+02  0.14200000000E+01 0. -1.
         25    2    1    2    0    0  0.00000000000E+00  0.00000000000E+00 -0.41979918716E+02  0.13186339037E+03  0.12500256056E+03 0.  0.
        -11    1    3    3    0    0 -0.37783317040E+02  0.19417262079E+02 -0.69351610263E+02  0.81328069936E+02  0.51100000000E-03 0. -1.
         11    1    3    3    0    0  0.37783317040E+02 -0.19417262079E+02  0.27371691547E+02  0.50535320437E+02  0.51100000000E-03 0.  1.
<mgrwt>
<rscale>  0 0.12500256E+03</rscale>
<asrwt>0</asrwt>
<pdfrwt beam="1">  1        4 0.69141132E-02 0.12500256E+03</pdfrwt>
<pdfrwt beam="2">  1       -4 0.13372562E-01 0.12500256E+03</pdfrwt>
<totfact> 0.10304020E+04</totfact>
</mgrwt>
</event>
<event>
 5    1  0.3296574E-054  0.1250087E+03  0.7818608E-02  0.1235056E+00
          4   -1    0    0  501    0  0.00000000000E+00  0.00000000000E+00  0.32112980126E+03  0.32113294079E+03  0.14200000000E+01 0. -1.
         -4   -1    0    0    0  501 -0.00000000000E+00 -0.00000000000E+00 -0.12121131126E+02  0.12204024737E+02  0.14200000000E+01 0.  1.
         25    2    1    2    0    0  0.00000000000E+00  0.00000000000E+00  0.30900867014E+03  0.33333696553E+03  0.12500869716E+03 0.  0.
        -11    1    3    3    0    0  0.18393532548E+01  0.61269110806E+02  0.18710850792E+03  0.19689306970E+03  0.51100000000E-03 0. -1.
         11    1    3    3    0    0 -0.18393532548E+01 -0.61269110806E+02  0.12190016222E+03  0.13644389583E+03  0.51100000000E-03 0.  1.
<mgrwt>
<rscale>  0 0.12500870E+03</rscale>
<asrwt>0</asrwt>
<pdfrwt beam="1">  1        4 0.49411200E-01 0.12500870E+03</pdfrwt>
<pdfrwt beam="2">  1       -4 0.18714075E-02 0.12500870E+03</pdfrwt>
<totfact> 0.71583662E+03</totfact>
</mgrwt>
</event>
<event>
 5    1  0.3296574E-054  0.1250003E+03  0.7818608E-02  0.1235069E+00
          4   -1    0    0  501    0  0.00000000000E+00  0.00000000000E+00  0.31146056407E+02  0.31178409673E+02  0.14200000000E+01 0.  1.
         -4   -1    0    0    0  501 -0.00000000000E+00 -0.00000000000E+00 -0.12531633955E+03  0.12532438453E+03  0.14200000000E+01 0. -1.
         25    2    1    2    0    0  0.00000000000E+00  0.00000000000E+00 -0.94170283141E+02  0.15650279420E+03  0.12500032947E+03 0.  0.
        -11    1    3    3    0    0  0.26658473292E+02 -0.55805008594E+02 -0.35789361491E+02  0.71454542043E+02  0.51100000000E-03 0. -1.
         11    1    3    3    0    0 -0.26658473292E+02  0.55805008594E+02 -0.58380921650E+02  0.85048252159E+02  0.51100000000E-03 0.  1.
<mgrwt>
<rscale>  0 0.12500033E+03</rscale>
<asrwt>0</asrwt>
<pdfrwt beam="1">  1        4 0.47948086E-02 0.12500033E+03</pdfrwt>
<pdfrwt beam="2">  1       -4 0.19282544E-01 0.12500033E+03</pdfrwt>
<totfact> 0.98020561E+03</totfact>
</mgrwt>
</event>
<event>
 5    1  0.3296574E-054  0.1249969E+03  0.7818608E-02  0.1235074E+00
          4   -1    0    0  501    0  0.00000000000E+00  0.00000000000E+00  0.10287766450E+02  0.10385303969E+02  0.14200000000E+01 0. -1.
         -4   -1    0    0    0  501 -0.00000000000E+00 -0.00000000000E+00 -0.37778977141E+03  0.37779244008E+03  0.14200000000E+01 0.  1.
         25    2    1    2    0    0  0.00000000000E+00  0.00000000000E+00 -0.36750200496E+03  0.38817774405E+03  0.12499694926E+03 0.  0.
        -11    1    3    3    0    0 -0.49592234202E+02 -0.20874381420E+02 -0.85011320113E+02  0.10060841933E+03  0.51100000000E-03 0.  1.
         11    1    3    3    0    0  0.49592234202E+02  0.20874381420E+02 -0.28249068485E+03  0.28756932472E+03  0.51100000000E-03 0. -1.
<mgrwt>
<rscale>  0 0.12499695E+03</rscale>
<asrwt>0</asrwt>
<pdfrwt beam="1">  1        4 0.15904418E-02 0.12499695E+03</pdfrwt>
<pdfrwt beam="2">  1       -4 0.58129201E-01 0.12499695E+03</pdfrwt>
<totfact> 0.65723514E+03</totfact>
</mgrwt>
</event>
<event>
 5    1  0.3296574E-054  0.1249988E+03  0.7818608E-02  0.1235071E+00
          4   -1    0    0  501    0  0.00000000000E+00  0.00000000000E+00  0.16760237037E+03  0.16760838569E+03  0.14200000000E+01 0. -1.
         -4   -1    0    0    0  501 -0.00000000000E+00 -0.00000000000E+00 -0.23278140884E+02  0.23321411685E+02  0.14200000000E+01 0.  1.
         25    2    1    2    0    0  0.00000000000E+00  0.00000000000E+00  0.14432422948E+03  0.19092979737E+03  0.12499881723E+03 0.  0.
        -11    1    3    3    0    0 -0.51324466025E+02 -0.35616274902E+02  0.75001791395E+02  0.97611416153E+02  0.51100000000E-03 0.  1.
         11    1    3    3    0    0  0.51324466025E+02  0.35616274902E+02  0.69322438088E+02  0.93318381219E+02  0.51100000000E-03 0. -1.
<mgrwt>
<rscale>  0 0.12499882E+03</rscale>
<asrwt>0</asrwt>
<pdfrwt beam="1">  1        4 0.25788771E-01 0.12499882E+03</pdfrwt>
<pdfrwt beam="2">  1       -4 0.35850437E-02 0.12499882E+03</pdfrwt>
<totfact> 0.91688213E+03</totfact>
</mgrwt>
</event>
<event>
 5    1  0.3296574E-054  0.1249983E+03  0.7818608E-02  0.1235072E+00
          4   -1    0    0  501    0  0.00000000000E+00  0.00000000000E+00  0.41807776168E+03  0.41808017319E+03  0.14200000000E+01 0. -1.
         -4   -1    0    0    0  501 -0.00000000000E+00 -0.00000000000E+00 -0.92866961188E+01  0.93946327658E+01  0.14200000000E+01 0.  1.
         25    2    1    2    0    0  0.00000000000E+00  0.00000000000E+00  0.40879106557E+03  0.42747480596E+03  0.12499829775E+03 0.  0.
        -11    1    3    3    0    0 -0.88512920604E+01 -0.53321435115E+02  0.97085242838E+02  0.11111734874E+03  0.51100000000E-03 0.  1.
         11    1    3    3    0    0  0.88512920604E+01  0.53321435115E+02  0.31170582273E+03  0.31635745722E+03  0.51100000000E-03 0. -1.
<mgrwt>
<rscale>  0 0.12499830E+03</rscale>
<asrwt>0</asrwt>
<pdfrwt beam="1">  1        4 0.64328134E-01 0.12499830E+03</pdfrwt>
<pdfrwt beam="2">  1       -4 0.14372110E-02 0.12499830E+03</pdfrwt>
<totfact> 0.61967883E+03</totfact>
</mgrwt>
</event>
<event>
 5    1  0.3296574E-054  0.1250006E+03  0.7818608E-02  0.1235068E+00
          4   -1    0    0  501    0  0.00000000000E+00  0.00000000000E+00  0.30675295599E+03  0.30675624266E+03  0.14200000000E+01 0. -1.
         -4   -1    0    0    0  501 -0.00000000000E+00 -0.00000000000E+00 -0.12691362589E+02  0.12770555367E+02  0.14200000000E+01 0.  1.
         25    2    1    2    0    0  0.00000000000E+00  0.00000000000E+00  0.29406159340E+03  0.31952679802E+03  0.12500061576E+03 0.  0.
        -11    1    3    3    0    0 -0.34726176112E+02 -0.51570840691E+02  0.16336441972E+03  0.17479528755E+03  0.51100000000E-03 0.  1.
         11    1    3    3    0    0  0.34726176112E+02  0.51570840691E+02  0.13069717368E+03  0.14473151047E+03  0.51100000000E-03 0. -1.
<mgrwt>
<rscale>  0 0.12500062E+03</rscale>
<asrwt>0</asrwt>
<pdfrwt beam="1">  1        4 0.47199105E-01 0.12500062E+03</pdfrwt>
<pdfrwt beam="2">  1       -4 0.19588620E-02 0.12500062E+03</pdfrwt>
<totfact> 0.73211442E+03</totfact>
</mgrwt>
</event>
<event>
 5    1  0.3296574E-054  0.1250005E+03  0.7818608E-02  0.1235068E+00
         -4   -1    0    0    0  501 -0.00000000000E+00  0.00000000000E+00  0.25219211426E+02  0.25259157249E+02  0.14200000000E+01 0.  1.
          4   -1    0    0  501    0  0.00000000000E+00 -0.00000000000E+00 -0.15472741186E+03  0.15473392770E+03  0.14200000000E+01 0. -1.
         25    2    1    2    0    0  0.00000000000E+00  0.00000000000E+00 -0.12950820043E+03  0.17999308495E+03  0.12500054660E+03 0.  0.
        -11    1    3    3    0    0 -0.39067448703E+01  0.61576640795E+02 -0.50402398617E+02  0.79670239950E+02  0.51100000000E-03 0.  1.
         11    1    3    3    0    0  0.39067448703E+01 -0.61576640795E+02 -0.79105801818E+02  0.10032284500E+03  0.51100000000E-03 0. -1.
<mgrwt>
<rscale>  0 0.12500055E+03</rscale>
<asrwt>0</asrwt>
<pdfrwt beam="2">  1        4 0.23807791E-01 0.12500055E+03</pdfrwt>
<pdfrwt beam="1">  1       -4 0.38834527E-02 0.12500055E+03</pdfrwt>
<totfact> 0.93617101E+03</totfact>
</mgrwt>
</event>
<event>
 5    1  0.3296574E-054  0.1249987E+03  0.7818608E-02  0.1235071E+00
         -4   -1    0    0    0  501 -0.00000000000E+00  0.00000000000E+00  0.42230051483E+02  0.42253918732E+02  0.14200000000E+01 0.  1.
          4   -1    0    0  501    0  0.00000000000E+00 -0.00000000000E+00 -0.92441897296E+02  0.92452802962E+02  0.14200000000E+01 0. -1.
         25    2    1    2    0    0  0.00000000000E+00  0.00000000000E+00 -0.50211845813E+02  0.13470672169E+03  0.12499868563E+03 0.  0.
        -11    1    3    3    0    0 -0.18744402022E+02 -0.55541181765E+02 -0.17428897225E+01  0.58644804918E+02  0.51100000000E-03 0.  1.
         11    1    3    3    0    0  0.18744402022E+02  0.55541181765E+02 -0.48468956090E+02  0.76061916777E+02  0.51100000000E-03 0. -1.
<mgrwt>
<rscale>  0 0.12499869E+03</rscale>
<asrwt>0</asrwt>
<pdfrwt beam="2">  1        4 0.14224505E-01 0.12499869E+03</pdfrwt>
<pdfrwt beam="1">  1       -4 0.64996059E-02 0.12499869E+03</pdfrwt>
<totfact> 0.10244560E+04</totfact>
</mgrwt>
</event>
<event>
 5    1  0.3296574E-054  0.1250055E+03  0.7818608E-02  0.1235061E+00
         -4   -1    0    0    0  501 -0.00000000000E+00  0.00000000000E+00  0.24228464182E+02  0.24270040721E+02  0.14200000000E+01 0.  1.
          4   -1    0    0  501    0  0.00000000000E+00 -0.00000000000E+00 -0.16105698597E+03  0.16106324574E+03  0.14200000000E+01 0. -1.
         25    2    1    2    0    0  0.00000000000E+00  0.00000000000E+00 -0.13682852179E+03  0.18533328646E+03  0.12500553067E+03 0.  0.
        -11    1    3    3    0    0  0.45271174031E+02  0.11114916810E+02 -0.66843671815E+01  0.47092476455E+02  0.51100000000E-03 0.  1.
         11    1    3    3    0    0 -0.45271174031E+02 -0.11114916810E+02 -0.13014415461E+03  0.13824081001E+03  0.51100000000E-03 0. -1.
<mgrwt>
<rscale>  0 0.12500553E+03</rscale>
<asrwt>0</asrwt>
<pdfrwt beam="2">  1        4 0.24781677E-01 0.12500553E+03</pdfrwt>
<pdfrwt beam="1">  1       -4 0.37311358E-02 0.12500553E+03</pdfrwt>
<totfact> 0.92654224E+03</totfact>
</mgrwt>
</event>
<event>
 5    1  0.3296574E-054  0.1250017E+03  0.7818608E-02  0.1235067E+00
          4   -1    0    0  501    0  0.00000000000E+00  0.00000000000E+00  0.39305234855E+03  0.39305491359E+03  0.14200000000E+01 0. -1.
         -4   -1    0    0    0  501 -0.00000000000E+00 -0.00000000000E+00 -0.98851836131E+01  0.99866538473E+01  0.14200000000E+01 0.  1.
         25    2    1    2    0    0  0.00000000000E+00  0.00000000000E+00  0.38316716493E+03  0.40304156744E+03  0.12500171519E+03 0.  0.
        -11    1    3    3    0    0  0.45428375810E+00  0.62472700796E+02  0.19745185915E+03  0.20709968953E+03  0.51100000000E-03 0.  1.
         11    1    3    3    0    0 -0.45428375810E+00 -0.62472700796E+02  0.18571530578E+03  0.19594187791E+03  0.51100000000E-03 0. -1.
<mgrwt>
<rscale>  0 0.12500172E+03</rscale>
<asrwt>0</asrwt>
<pdfrwt beam="1">  1        4 0.60477591E-01 0.12500172E+03</pdfrwt>
<pdfrwt beam="2">  1       -4 0.15288003E-02 0.12500172E+03</pdfrwt>
<totfact> 0.64255609E+03</totfact>
</mgrwt>
</event>
<event>
 5    1  0.3296574E-054  0.1249941E+03  0.7818608E-02  0.1235078E+00
          4   -1    0    0  501    0  0.00000000000E+00  0.00000000000E+00  0.11895109319E+02  0.11979567008E+02  0.14200000000E+01 0.  1.
         -4   -1    0    0    0  501 -0.00000000000E+00 -0.00000000000E+00 -0.32711270518E+03  0.32711578728E+03  0.14200000000E+01 0. -1.
         25    2    1    2    0    0  0.00000000000E+00  0.00000000000E+00 -0.31521759586E+03  0.33909535429E+03  0.12499410611E+03 0.  0.
        -11    1    3    3    0    0  0.11339981258E+02 -0.61450237780E+02 -0.15469355478E+03  0.16683771392E+03  0.51100000000E-03 0. -1.
         11    1    3    3    0    0 -0.11339981258E+02  0.61450237780E+02 -0.16052404108E+03  0.17225764037E+03  0.51100000000E-03 0.  1.
<mgrwt>
<rscale>  0 0.12499411E+03</rscale>
<asrwt>0</asrwt>
<pdfrwt beam="1">  1        4 0.18367509E-02 0.12499411E+03</pdfrwt>
<pdfrwt beam="2">  1       -4 0.50331759E-01 0.12499411E+03</pdfrwt>
<totfact> 0.70950361E+03</totfact>
</mgrwt>
</event>
<event>
 5    1  0.3296574E-054  0.1250061E+03  0.7818608E-02  0.1235060E+00
          4   -1    0    0  501    0  0.00000000000E+00  0.00000000000E+00  0.19139312809E+03  0.19139839571E+03  0.14200000000E+01 0. -1.
         -4   -1    0    0    0  501 -0.00000000000E+00 -0.00000000000E+00 -0.20381310857E+02  0.20430717860E+02  0.14200000000E+01 0.  1.
         25    2    1    2    0    0  0.00000000000E+00  0.00000000000E+00  0.17101181723E+03  0.21182911357E+03  0.12500612674E+03 0.  0.
        -11    1    3    3    0    0 -0.15384835515E+01  0.37693516676E+02  0.10590780853E+01  0.37739763880E+02  0.51100000000E-03 0.  1.
         11    1    3    3    0    0  0.15384835515E+01 -0.37693516676E+02  0.16995273915E+03  0.17408934969E+03  0.51100000000E-03 0. -1.
<mgrwt>
<rscale>  0 0.12500613E+03</rscale>
<asrwt>0</asrwt>
<pdfrwt beam="1">  1        4 0.29449303E-01 0.12500613E+03</pdfrwt>
<pdfrwt beam="2">  1       -4 0.31397920E-02 0.12500613E+03</pdfrwt>
<totfact> 0.88165955E+03</totfact>
</mgrwt>
</event>
<event>
 5    1  0.3296574E-054  0.1250009E+03  0.7818608E-02  0.1235068E+00
          4   -1    0    0  501    0  0.00000000000E+00  0.00000000000E+00  0.47237226144E+02  0.47258564660E+02  0.14200000000E+01 0.  1.
         -4   -1    0    0    0  501 -0.00000000000E+00 -0.00000000000E+00 -0.82649331083E+02  0.82661528708E+02  0.14200000000E+01 0. -1.
         25    2    1    2    0    0  0.00000000000E+00  0.00000000000E+00 -0.35412104939E+02  0.12992009337E+03  0.12500085394E+03 0.  0.
        -11    1    3    3    0    0  0.47627727360E+02  0.18493796736E+02 -0.55121086672E+02  0.75158200666E+02  0.51100000000E-03 0. -1.
         11    1    3    3    0    0 -0.47627727360E+02 -0.18493796736E+02  0.19708981733E+02  0.54761892703E+02  0.51100000000E-03 0.  1.
<mgrwt>
<rscale>  0 0.12500085E+03</rscale>
<asrwt>0</asrwt>
<pdfrwt beam="1">  1        4 0.72698453E-02 0.12500085E+03</pdfrwt>
<pdfrwt beam="2">  1       -4 0.12717861E-01 0.12500085E+03</pdfrwt>
<totfact> 0.10346018E+04</totfact>
</mgrwt>
</event>
<event>
 5    1  0.3296574E-054  0.1250002E+03  0.7818608E-02  0.1235069E+00
         -4   -1    0    0    0  501 -0.00000000000E+00  0.00000000000E+00  0.24020717496E+02  0.24062652993E+02  0.14200000000E+01 0.  1.
          4   -1    0    0  501    0  0.00000000000E+00 -0.00000000000E+00 -0.16243373517E+03  0.16243994189E+03  0.14200000000E+01 0. -1.
         25    2    1    2    0    0  0.00000000000E+00  0.00000000000E+00 -0.13841301767E+03  0.18650259488E+03  0.12500021775E+03 0.  0.
        -11    1    3    3    0    0 -0.61635777062E+02 -0.98457976593E+01 -0.64405347565E+02  0.89688112595E+02  0.51100000000E-03 0.  1.
         11    1    3    3    0    0  0.61635777062E+02  0.98457976593E+01 -0.74007670110E+02  0.96814482289E+02  0.51100000000E-03 0. -1.
<mgrwt>
<rscale>  0 0.12500022E+03</rscale>
<asrwt>0</asrwt>
<pdfrwt beam="2">  1        4 0.24993508E-01 0.12500022E+03</pdfrwt>
<pdfrwt beam="1">  1       -4 0.36991983E-02 0.12500022E+03</pdfrwt>
<totfact> 0.92458987E+03</totfact>
</mgrwt>
</event>
<event>
 5    1  0.3296574E-054  0.1250007E+03  0.7818608E-02  0.1235068E+00
         -4   -1    0    0    0  501 -0.00000000000E+00  0.00000000000E+00  0.80299069588E+02  0.80311624169E+02  0.14200000000E+01 0. -1.
          4   -1    0    0  501    0  0.00000000000E+00 -0.00000000000E+00 -0.48620085446E+02  0.48640817312E+02  0.14200000000E+01 0.  1.
         25    2    1    2    0    0  0.00000000000E+00  0.00000000000E+00  0.31678984142E+02  0.12895244148E+03  0.12500069651E+03 0.  0.
        -11    1    3    3    0    0  0.18114726845E+02  0.94423532409E+01  0.76774536694E+02  0.79445773004E+02  0.51100000000E-03 0. -1.
         11    1    3    3    0    0 -0.18114726845E+02 -0.94423532409E+01 -0.45095552552E+02  0.49506668477E+02  0.51100000000E-03 0.  1.
<mgrwt>
<rscale>  0 0.12500070E+03</rscale>
<asrwt>0</asrwt>
<pdfrwt beam="2">  1        4 0.74825737E-02 0.12500070E+03</pdfrwt>
<pdfrwt beam="1">  1       -4 0.12356263E-01 0.12500070E+03</pdfrwt>
<totfact> 0.10366806E+04</totfact>
</mgrwt>
</event>
<event>
 5    1  0.3296574E-054  0.1250021E+03  0.7818608E-02  0.1235066E+00
          4   -1    0    0  501    0  0.00000000000E+00  0.00000000000E+00  0.58456152688E+03  0.58456325159E+03  0.14200000000E+01 0.  1.
         -4   -1    0    0    0  501 -0.00000000000E+00 -0.00000000000E+00 -0.66053924648E+01  0.67563014745E+01  0.14200000000E+01 0. -1.
         25    2    1    2    0    0  0.00000000000E+00  0.00000000000E+00  0.57795613442E+03  0.59131955307E+03  0.12500208209E+03 0.  0.
        -11    1    3    3    0    0  0.25268148852E+02 -0.56538858766E+02  0.24904593299E+03  0.25663008131E+03  0.51100000000E-03 0. -1.
         11    1    3    3    0    0 -0.25268148852E+02  0.56538858766E+02  0.32891020143E+03  0.33468947176E+03  0.51100000000E-03 0.  1.
<mgrwt>
<rscale>  0 0.12500208E+03</rscale>
<asrwt>0</asrwt>
<pdfrwt beam="1">  1        4 0.89944301E-01 0.12500208E+03</pdfrwt>
<pdfrwt beam="2">  1       -4 0.10279551E-02 0.12500208E+03</pdfrwt>
<totfact> 0.49417906E+03</totfact>
</mgrwt>
</event>
<event>
 5    1  0.3296574E-054  0.1249972E+03  0.7818608E-02  0.1235074E+00
         -4   -1    0    0    0  501 -0.00000000000E+00  0.00000000000E+00  0.81519185270E+02  0.81531551973E+02  0.14200000000E+01 0.  1.
          4   -1    0    0  501    0  0.00000000000E+00 -0.00000000000E+00 -0.47889513093E+02  0.47910561094E+02  0.14200000000E+01 0. -1.
         25    2    1    2    0    0  0.00000000000E+00  0.00000000000E+00  0.33629672177E+02  0.12944211307E+03  0.12499722311E+03 0.  0.
        -11    1    3    3    0    0  0.60768397579E+02  0.12253292915E+02  0.85865247809E+01  0.62583302403E+02  0.51100000000E-03 0.  1.
         11    1    3    3    0    0 -0.60768397579E+02 -0.12253292915E+02  0.25043147396E+02  0.66858810664E+02  0.51100000000E-03 0. -1.
<mgrwt>
<rscale>  0 0.12499722E+03</rscale>
<asrwt>0</asrwt>
<pdfrwt beam="2">  1        4 0.73701878E-02 0.12499722E+03</pdfrwt>
<pdfrwt beam="1">  1       -4 0.12543983E-01 0.12499722E+03</pdfrwt>
<totfact> 0.10357106E+04</totfact>
</mgrwt>
</event>
<event>
 5    1  0.3296574E-054  0.1250009E+03  0.7818608E-02  0.1235068E+00
          4   -1    0    0  501    0  0.00000000000E+00  0.00000000000E+00  0.15239413518E+03  0.15240075078E+03  0.14200000000E+01 0. -1.
         -4   -1    0    0    0  501 -0.00000000000E+00 -0.00000000000E+00 -0.25606067341E+02  0.25645410597E+02  0.14200000000E+01 0.  1.
         25    2    1    2    0    0  0.00000000000E+00  0.00000000000E+00  0.12678806784E+03  0.17804616138E+03  0.12500088573E+03 0.  0.
        -11    1    3    3    0    0 -0.39600190179E+02 -0.10058500453E+02 -0.39731400635E+01  0.41050387767E+02  0.51100000000E-03 0.  1.
         11    1    3    3    0    0  0.39600190179E+02  0.10058500453E+02  0.13076120791E+03  0.13699577361E+03  0.51100000000E-03 0. -1.
<mgrwt>
<rscale>  0 0.12500089E+03</rscale>
<asrwt>0</asrwt>
<pdfrwt beam="1">  1        4 0.23448787E-01 0.12500089E+03</pdfrwt>
<pdfrwt beam="2">  1       -4 0.39429302E-02 0.12500089E+03</pdfrwt>
<totfact> 0.93968020E+03</totfact>
</mgrwt>
</event>
<event>
 5    1  0.3296574E-054  0.1250151E+03  0.7818608E-02  0.1235046E+00
         -4   -1    0    0    0  501 -0.00000000000E+00  0.00000000000E+00  0.49867813207E+02  0.49888026560E+02  0.14200000000E+01 0.  1.
          4   -1    0    0  501    0  0.00000000000E+00 -0.00000000000E+00 -0.78308530873E+02  0.78321404529E+02  0.14200000000E+01 0. -1.
         25    2    1    2    0    0  0.00000000000E+00  0.00000000000E+00 -0.28440717666E+02  0.12820943109E+03  0.12501513428E+03 0.  0.
        -11    1    3    3    0    0 -0.25695979845E+00  0.53759472601E+02  0.18485708435E+02  0.56849523651E+02  0.51100000000E-03 0.  1.
         11    1    3    3    0    0  0.25695979845E+00 -0.53759472601E+02 -0.46926426101E+02  0.71359907438E+02  0.51100000000E-03 0. -1.
<mgrwt>
<rscale>  0 0.12501513E+03</rscale>
<asrwt>0</asrwt>
<pdfrwt beam="2">  1        4 0.12050011E-01 0.12501513E+03</pdfrwt>
<pdfrwt beam="1">  1       -4 0.76745164E-02 0.12501513E+03</pdfrwt>
<totfact> 0.10379421E+04</totfact>
</mgrwt>
</event>
<event>
 5    1  0.3296574E-054  0.1249966E+03  0.7818608E-02  0.1235075E+00
          4   -1    0    0  501    0  0.00000000000E+00  0.00000000000E+00  0.23214518894E+02  0.23257908063E+02  0.14200000000E+01 0.  1.
         -4   -1    0    0    0  501 -0.00000000000E+00 -0.00000000000E+00 -0.16805485366E+03  0.16806085278E+03  0.14200000000E+01 0. -1.
         25    2    1    2    0    0  0.00000000000E+00  0.00000000000E+00 -0.14484033477E+03  0.19131876085E+03  0.12499658266E+03 0.  0.
        -11    1    3    3    0    0 -0.16782699015E+02  0.58681482048E+02 -0.93004272943E+02  0.11124284295E+03  0.51100000000E-03 0. -1.
         11    1    3    3    0    0  0.16782699015E+02 -0.58681482048E+02 -0.51836061823E+02  0.80075917898E+02  0.51100000000E-03 0.  1.
<mgrwt>
<rscale>  0 0.12499658E+03</rscale>
<asrwt>0</asrwt>
<pdfrwt beam="1">  1        4 0.35752637E-02 0.12499658E+03</pdfrwt>
<pdfrwt beam="2">  1       -4 0.25858391E-01 0.12499658E+03</pdfrwt>
<totfact> 0.91625373E+03</totfact>
</mgrwt>
</event>
<event>
 5    1  0.3296574E-054  0.1250002E+03  0.7818608E-02  0.1235069E+00
          4   -1    0    0  501    0  0.00000000000E+00  0.00000000000E+00  0.47645078785E+02  0.47666234720E+02  0.14200000000E+01 0. -1.
         -4   -1    0    0    0  501 -0.00000000000E+00 -0.00000000000E+00 -0.81941196595E+02  0.81953499617E+02  0.14200000000E+01 0.  1.
         25    2    1    2    0    0  0.00000000000E+00  0.00000000000E+00 -0.34296117810E+02  0.12961973434E+03  0.12500020733E+03 0.  0.
        -11    1    3    3    0    0 -0.60353730343E+02 -0.16175572274E+02 -0.15666607002E+02  0.64417889440E+02  0.51100000000E-03 0.  1.
         11    1    3    3    0    0  0.60353730343E+02  0.16175572274E+02 -0.18629510808E+02  0.65201844897E+02  0.51100000000E-03 0. -1.
<mgrwt>
<rscale>  0 0.12500021E+03</rscale>
<asrwt>0</asrwt>
<pdfrwt beam="1">  1        4 0.73325859E-02 0.12500021E+03</pdfrwt>
<pdfrwt beam="2">  1       -4 0.12608912E-01 0.12500021E+03</pdfrwt>
<totfact> 0.10352600E+04</totfact>
</mgrwt>
</event>
<event>
 5    1  0.3296574E-054  0.1250025E+03  0.7818608E-02  0.1235065E+00
         -4   -1    0    0    0  501 -0.00000000000E+00  0.00000000000E+00  0.23963319256E+02  0.24005355022E+02  0.14200000000E+01 0.  1.
          4   -1    0    0  501    0  0.00000000000E+00 -0.00000000000E+00 -0.16282819719E+03  0.16283438887E+03  0.14200000000E+01 0. -1.
         25    2    1    2    0    0  0.00000000000E+00  0.00000000000E+00 -0.13886487793E+03  0.18683974390E+03  0.12500254228E+03 0.  0.
        -11    1    3    3    0    0  0.38460783848E+02  0.48884276357E+02 -0.60278832241E+02  0.86616638043E+02  0.51100000000E-03 0.  1.
         11    1    3    3    0    0 -0.38460783848E+02 -0.48884276357E+02 -0.78586045693E+02  0.10022310585E+03  0.51100000000E-03 0. -1.
<mgrwt>
<rscale>  0 0.12500254E+03</rscale>
<asrwt>0</asrwt>
<pdfrwt beam="2">  1        4 0.25054201E-01 0.12500254E+03</pdfrwt>
<pdfrwt beam="1">  1       -4 0.36903744E-02 0.12500254E+03</pdfrwt>
<totfact> 0.92394852E+03</totfact>
</mgrwt>
</event>
<event>
 5    1  0.3296574E-054  0.1249997E+03  0.7818608E-02  0.1235070E+00
         -4   -1    0    0    0  501 -0.00000000000E+00  0.00000000000E+00  0.10614351192E+03  0.10615300995E+03  0.14200000000E+01 0.  1.
          4   -1    0    0  501    0  0.00000000000E+00 -0.00000000000E+00 -0.36776555981E+02  0.36803959974E+02  0.14200000000E+01 0. -1.
         25    2    1    2    0    0  0.00000000000E+00  0.00000000000E+00  0.69366955936E+02  0.14295696993E+03  0.12499968270E+03 0.  0.
        -11    1    3    3    0    0 -0.21604718005E+02  0.39117672141E+02  0.84655918436E+02  0.95726593172E+02  0.51100000000E-03 0.  1.
         11    1    3    3    0    0  0.21604718005E+02 -0.39117672141E+02 -0.15288962500E+02  0.47230376755E+02  0.51100000000E-03 0. -1.
<mgrwt>
<rscale>  0 0.12499968E+03</rscale>
<asrwt>0</asrwt>
<pdfrwt beam="2">  1        4 0.56607702E-02 0.12499968E+03</pdfrwt>
<pdfrwt beam="1">  1       -4 0.16332610E-01 0.12499968E+03</pdfrwt>
<totfact> 0.10072736E+04</totfact>
</mgrwt>
</event>
<event>
 5    1  0.3296574E-054  0.1250000E+03  0.7818608E-02  0.1235069E+00
          4   -1    0    0  501    0  0.00000000000E+00  0.00000000000E+00  0.48999107188E+02  0.49019678755E+02  0.14200000000E+01 0. -1.
         -4   -1    0    0    0  501 -0.00000000000E+00 -0.00000000000E+00 -0.79677147805E+02  0.79689800366E+02  0.14200000000E+01 0.  1.
         25    2    1    2    0    0  0.00000000000E+00  0.00000000000E+00 -0.30678040616E+02  0.12870947912E+03  0.12499995136E+03 0.  0.
        -11    1    3    3    0    0 -0.50476562874E+02  0.71082609558E+01 -0.52576249990E+02  0.73230272679E+02  0.51100000000E-03 0.  1.
         11    1    3    3    0    0  0.50476562874E+02 -0.71082609558E+01  0.21898209373E+02  0.55479206442E+02  0.51100000000E-03 0. -1.
<mgrwt>
<rscale>  0 0.12499995E+03</rscale>
<asrwt>0</asrwt>
<pdfrwt beam="1">  1        4 0.75408799E-02 0.12499995E+03</pdfrwt>
<pdfrwt beam="2">  1       -4 0.12260578E-01 0.12499995E+03</pdfrwt>
<totfact> 0.10372205E+04</totfact>
</mgrwt>
</event>
<event>
 5    1  0.3296574E-054  0.1249661E+03  0.7818608E-02  0.1235122E+00
          4   -1    0    0  501    0  0.00000000000E+00  0.00000000000E+00  0.16470416516E+03  0.16471028632E+03  0.14200000000E+01 0. -1.
         -4   -1    0    0    0  501 -0.00000000000E+00 -0.00000000000E+00 -0.23676053087E+02  0.23718597972E+02  0.14200000000E+01 0.  1.
         25    2    1    2    0    0  0.00000000000E+00  0.00000000000E+00  0.14102811207E+03  0.18842888429E+03  0.12496605956E+03 0.  0.
        -11    1    3    3    0    0  0.12957038466E+02  0.48834633015E+02  0.15083272333E+02  0.52727709338E+02  0.51100000000E-03 0.  1.
         11    1    3    3    0    0 -0.12957038466E+02 -0.48834633015E+02  0.12594483974E+03  0.13570117496E+03  0.51100000000E-03 0. -1.
<mgrwt>
<rscale>  0 0.12496606E+03</rscale>
<asrwt>0</asrwt>
<pdfrwt beam="1">  1        4 0.25342844E-01 0.12496606E+03</pdfrwt>
<pdfrwt beam="2">  1       -4 0.36462135E-02 0.12496606E+03</pdfrwt>
<totfact> 0.92191487E+03</totfact>
</mgrwt>
</event>
<event>
 5    1  0.3296574E-054  0.1250004E+03  0.7818608E-02  0.1235069E+00
         -4   -1    0    0    0  501 -0.00000000000E+00  0.00000000000E+00  0.21602658887E+02  0.21649278764E+02  0.14200000000E+01 0.  1.
          4   -1    0    0  501    0  0.00000000000E+00 -0.00000000000E+00 -0.18057955864E+03  0.18058514169E+03  0.14200000000E+01 0. -1.
         25    2    1    2    0    0  0.00000000000E+00  0.00000000000E+00 -0.15897689975E+03  0.20223442045E+03  0.12500042464E+03 0.  0.
        -11    1    3    3    0    0 -0.67393700725E+01 -0.61726169126E+02 -0.67964323412E+02  0.92058070374E+02  0.51100000000E-03 0.  1.
         11    1    3    3    0    0  0.67393700725E+01  0.61726169126E+02 -0.91012576341E+02  0.11017635008E+03  0.51100000000E-03 0. -1.
<mgrwt>
<rscale>  0 0.12500042E+03</rscale>
<asrwt>0</asrwt>
<pdfrwt beam="2">  1        4 0.27785485E-01 0.12500042E+03</pdfrwt>
<pdfrwt beam="1">  1       -4 0.33275017E-02 0.12500042E+03</pdfrwt>
<totfact> 0.89759165E+03</totfact>
</mgrwt>
</event>
<event>
 5    1  0.3296574E-054  0.1250017E+03  0.7818608E-02  0.1235067E+00
         -4   -1    0    0    0  501 -0.00000000000E+00  0.00000000000E+00  0.32743567739E+02  0.32774344056E+02  0.14200000000E+01 0.  1.
          4   -1    0    0  501    0  0.00000000000E+00 -0.00000000000E+00 -0.11921035334E+03  0.11921881036E+03  0.14200000000E+01 0. -1.
         25    2    1    2    0    0  0.00000000000E+00  0.00000000000E+00 -0.86466785598E+02  0.15199315441E+03  0.12500165589E+03 0.  0.
        -11    1    3    3    0    0 -0.27923771364E+02 -0.46369746163E+02 -0.52375408887E+01  0.54381267007E+02  0.51100000000E-03 0.  1.
         11    1    3    3    0    0  0.27923771364E+02  0.46369746163E+02 -0.81229244709E+02  0.97611887405E+02  0.51100000000E-03 0. -1.
<mgrwt>
<rscale>  0 0.12500166E+03</rscale>
<asrwt>0</asrwt>
<pdfrwt beam="2">  1        4 0.18343072E-01 0.12500166E+03</pdfrwt>
<pdfrwt beam="1">  1       -4 0.50404900E-02 0.12500166E+03</pdfrwt>
<totfact> 0.98904182E+03</totfact>
</mgrwt>
</event>
<event>
 5    1  0.3296574E-054  0.1249981E+03  0.7818608E-02  0.1235072E+00
          4   -1    0    0  501    0  0.00000000000E+00  0.00000000000E+00  0.14482207870E+03  0.14482904018E+03  0.14200000000E+01 0. -1.
         -4   -1    0    0    0  501 -0.00000000000E+00 -0.00000000000E+00 -0.26945629737E+02  0.26983019881E+02  0.14200000000E+01 0.  1.
         25    2    1    2    0    0  0.00000000000E+00  0.00000000000E+00  0.11787644896E+03  0.17181206006E+03  0.12499810703E+03 0.  0.
        -11    1    3    3    0    0 -0.57725753820E+02 -0.13857362207E+02  0.32079068017E+02  0.67478557680E+02  0.51100000000E-03 0.  1.
         11    1    3    3    0    0  0.57725753820E+02  0.13857362207E+02  0.85797380946E+02  0.10433350238E+03  0.51100000000E-03 0. -1.
<mgrwt>
<rscale>  0 0.12499811E+03</rscale>
<asrwt>0</asrwt>
<pdfrwt beam="1">  1        4 0.22283731E-01 0.12499811E+03</pdfrwt>
<pdfrwt beam="2">  1       -4 0.41488932E-02 0.12499811E+03</pdfrwt>
<totfact> 0.95116009E+03</totfact>
</mgrwt>
</event>
<event>
 5    1  0.3296574E-054  0.1250013E+03  0.7818608E-02  0.1235067E+00
         -4   -1    0    0    0  501 -0.00000000000E+00  0.00000000000E+00  0.18014180104E+02  0.18070060454E+02  0.14200000000E+01 0.  1.
          4   -1    0    0  501    0  0.00000000000E+00 -0.00000000000E+00 -0.21645360132E+03  0.21645825908E+03  0.14200000000E+01 0. -1.
         25    2    1    2    0    0  0.00000000000E+00  0.00000000000E+00 -0.19843942121E+03  0.23452831953E+03  0.12500131508E+03 0.  0.
        -11    1    3    3    0    0  0.20801557549E+02  0.58934687773E+02 -0.10029746559E+03  0.11817607128E+03  0.51100000000E-03 0.  1.
         11    1    3    3    0    0 -0.20801557549E+02 -0.58934687773E+02 -0.98141955626E+02  0.11635224825E+03  0.51100000000E-03 0. -1.
<mgrwt>
<rscale>  0 0.12500132E+03</rscale>
<asrwt>0</asrwt>
<pdfrwt beam="2">  1        4 0.33305209E-01 0.12500132E+03</pdfrwt>
<pdfrwt beam="1">  1       -4 0.27760693E-02 0.12500132E+03</pdfrwt>
<totfact> 0.84616604E+03</totfact>
</mgrwt>
</event>
<event>
 5    1  0.3296574E-054  0.1249975E+03  0.7818608E-02  0.1235073E+00
          4   -1    0    0  501    0  0.00000000000E+00  0.00000000000E+00  0.96668268938E+02  0.96678697858E+02  0.14200000000E+01 0. -1.
         -4   -1    0    0    0  501 -0.00000000000E+00 -0.00000000000E+00 -0.40382119535E+02  0.40407078317E+02  0.14200000000E+01 0.  1.
         25    2    1    2    0    0  0.00000000000E+00  0.00000000000E+00  0.56286149403E+02  0.13708577618E+03  0.12499751764E+03 0.  0.
        -11    1    3    3    0    0  0.10699154947E+02 -0.57313012653E+02  0.34527331165E+01  0.58405262624E+02  0.51100000000E-03 0.  1.
         11    1    3    3    0    0 -0.10699154947E+02  0.57313012653E+02  0.52833416286E+02  0.78680513551E+02  0.51100000000E-03 0. -1.
<mgrwt>
<rscale>  0 0.12499752E+03</rscale>
<asrwt>0</asrwt>
<pdfrwt beam="1">  1        4 0.14874763E-01 0.12499752E+03</pdfrwt>
<pdfrwt beam="2">  1       -4 0.62153560E-02 0.12499752E+03</pdfrwt>
<totfact> 0.10194863E+04</totfact>
</mgrwt>
</event>
<event>
 5    1  0.3296574E-054  0.1249964E+03  0.7818608E-02  0.1235075E+00
          4   -1    0    0  501    0  0.00000000000E+00  0.00000000000E+00  0.10973450778E+03  0.10974369503E+03  0.14200000000E+01 0. -1.
         -4   -1    0    0    0  501 -0.00000000000E+00 -0.00000000000E+00 -0.35570394468E+02  0.35598726980E+02  0.14200000000E+01 0.  1.
         25    2    1    2    0    0  0.00000000000E+00  0.00000000000E+00  0.74164113315E+02  0.14534242201E+03  0.12499641567E+03 0.  0.
        -11    1    3    3    0    0 -0.28997183011E+02 -0.47524643366E+02  0.40585410740E+01  0.55820248168E+02  0.51100000000E-03 0.  1.
         11    1    3    3    0    0  0.28997183011E+02  0.47524643366E+02  0.70105572241E+02  0.89522173841E+02  0.51100000000E-03 0. -1.
<mgrwt>
<rscale>  0 0.12499642E+03</rscale>
<asrwt>0</asrwt>
<pdfrwt beam="1">  1        4 0.16885118E-01 0.12499642E+03</pdfrwt>
<pdfrwt beam="2">  1       -4 0.54752546E-02 0.12499642E+03</pdfrwt>
<totfact> 0.10024845E+04</totfact>
</mgrwt>
</event>
<event>
 5    1  0.3296574E-054  0.1249910E+03  0.7818608E-02  0.1235083E+00
         -4   -1    0    0    0  501 -0.00000000000E+00  0.00000000000E+00  0.70963225079E+02  0.70977431016E+02  0.14200000000E+01 0.  1.
          4   -1    0    0  501    0  0.00000000000E+00 -0.00000000000E+00 -0.55009286024E+02  0.55027610786E+02  0.14200000000E+01 0. -1.
         25    2    1    2    0    0  0.00000000000E+00  0.00000000000E+00  0.15953939055E+02  0.12600504180E+03  0.12499096923E+03 0.  0.
        -11    1    3    3    0    0 -0.35015407778E+02  0.35654830993E+02 -0.29855354423E+02  0.58212438044E+02  0.51100000000E-03 0. -1.
         11    1    3    3    0    0  0.35015407778E+02 -0.35654830993E+02  0.45809293479E+02  0.67792603758E+02  0.51100000000E-03 0.  1.
<mgrwt>
<rscale>  0 0.12499097E+03</rscale>
<asrwt>0</asrwt>
<pdfrwt beam="2">  1        4 0.84654694E-02 0.12499097E+03</pdfrwt>
<pdfrwt beam="1">  1       -4 0.10919922E-01 0.12499097E+03</pdfrwt>
<totfact> 0.10432972E+04</totfact>
</mgrwt>
</event>
<event>
 5    1  0.3296574E-054  0.1250002E+03  0.7818608E-02  0.1235069E+00
         -4   -1    0    0    0  501 -0.00000000000E+00  0.00000000000E+00  0.94711869856E+02  0.94722514175E+02  0.14200000000E+01 0.  1.
          4   -1    0    0  501    0  0.00000000000E+00 -0.00000000000E+00 -0.41218420697E+02  0.41242873381E+02  0.14200000000E+01 0. -1.
         25    2    1    2    0    0  0.00000000000E+00  0.00000000000E+00  0.53493449159E+02  0.13596538756E+03  0.12500015004E+03 0.  0.
        -11    1    3    3    0    0  0.45764653733E+02  0.36455650614E+02  0.28455043343E+01  0.58579133556E+02  0.51100000000E-03 0. -1.
         11    1    3    3    0    0 -0.45764653733E+02 -0.36455650614E+02  0.50647944825E+02  0.77386254000E+02  0.51100000000E-03 0.  1.
<mgrwt>
<rscale>  0 0.12500015E+03</rscale>
<asrwt>0</asrwt>
<pdfrwt beam="2">  1        4 0.63439953E-02 0.12500015E+03</pdfrwt>
<pdfrwt beam="1">  1       -4 0.14573757E-01 0.12500015E+03</pdfrwt>
<totfact> 0.10217728E+04</totfact>
</mgrwt>
</event>
<event>
 5    1  0.3296574E-054  0.1249988E+03  0.7818608E-02  0.1235071E+00
          4   -1    0    0  501    0  0.00000000000E+00  0.00000000000E+00  0.21011274338E+03  0.21011754170E+03  0.14200000000E+01 0. -1.
         -4   -1    0    0    0  501 -0.00000000000E+00 -0.00000000000E+00 -0.18558706585E+02  0.18612952213E+02  0.14200000000E+01 0.  1.
         25    2    1    2    0    0  0.00000000000E+00  0.00000000000E+00  0.19155403679E+03  0.22873049391E+03  0.12499875933E+03 0.  0.
        -11    1    3    3    0    0 -0.58004677240E+02  0.13176306361E+01  0.53259049919E+02  0.78757889324E+02  0.51100000000E-03 0.  1.
         11    1    3    3    0    0  0.58004677240E+02 -0.13176306361E+01  0.13829498687E+03  0.14997260459E+03  0.51100000000E-03 0. -1.
<mgrwt>
<rscale>  0 0.12499876E+03</rscale>
<asrwt>0</asrwt>
<pdfrwt beam="1">  1        4 0.32329579E-01 0.12499876E+03</pdfrwt>
<pdfrwt beam="2">  1       -4 0.28597275E-02 0.12499876E+03</pdfrwt>
<totfact> 0.85507279E+03</totfact>
</mgrwt>
</event>
<event>
 5    1  0.3296574E-054  0.1250002E+03  0.7818608E-02  0.1235069E+00
          4   -1    0    0  501    0  0.00000000000E+00  0.00000000000E+00  0.10005320439E+03  0.10006328052E+03  0.14200000000E+01 0. -1.
         -4   -1    0    0    0  501 -0.00000000000E+00 -0.00000000000E+00 -0.39016915917E+02  0.39042747440E+02  0.14200000000E+01 0.  1.
         25    2    1    2    0    0  0.00000000000E+00  0.00000000000E+00  0.61036288471E+02  0.13910602796E+03  0.12500023402E+03 0.  0.
        -11    1    3    3    0    0 -0.50272421770E+02  0.37126458322E+02  0.29674780368E+02  0.69182966750E+02  0.51100000000E-03 0.  1.
         11    1    3    3    0    0  0.50272421770E+02 -0.37126458322E+02  0.31361508102E+02  0.69923061209E+02  0.51100000000E-03 0. -1.
<mgrwt>
<rscale>  0 0.12500023E+03</rscale>
<asrwt>0</asrwt>
<pdfrwt beam="1">  1        4 0.15395563E-01 0.12500023E+03</pdfrwt>
<pdfrwt beam="2">  1       -4 0.60053647E-02 0.12500023E+03</pdfrwt>
<totfact> 0.10152094E+04</totfact>
</mgrwt>
</event>
<event>
 5    1  0.3296574E-054  0.1250094E+03  0.7818608E-02  0.1235055E+00
         -4   -1    0    0    0  501 -0.00000000000E+00  0.00000000000E+00  0.82583249246E+01  0.83795185161E+01  0.14200000000E+01 0.  1.
          4   -1    0    0  501    0  0.00000000000E+00 -0.00000000000E+00 -0.46951009045E+03  0.46951223779E+03  0.14200000000E+01 0. -1.
         25    2    1    2    0    0  0.00000000000E+00  0.00000000000E+00 -0.46125176553E+03  0.47789175631E+03  0.12500935783E+03 0.  0.
        -11    1    3    3    0    0 -0.18444729341E+02  0.56192158252E+02 -0.15330712413E+03  0.16431932631E+03  0.51100000000E-03 0.  1.
         11    1    3    3    0    0  0.18444729341E+02 -0.56192158252E+02 -0.30794464140E+03  0.31357243000E+03  0.51100000000E-03 0. -1.
<mgrwt>
<rscale>  0 0.12500936E+03</rscale>
<asrwt>0</asrwt>
<pdfrwt beam="2">  1        4 0.72241789E-01 0.12500936E+03</pdfrwt>
<pdfrwt beam="1">  1       -4 0.12799997E-02 0.12500936E+03</pdfrwt>
<totfact> 0.57609590E+03</totfact>
</mgrwt>
</event>
<event>
 5    1  0.3296574E-054  0.1249885E+03  0.7818608E-02  0.1235087E+00
         -4   -1    0    0    0  501 -0.00000000000E+00  0.00000000000E+00  0.17836572473E+02  0.17893007505E+02  0.14200000000E+01 0. -1.
          4   -1    0    0  501    0  0.00000000000E+00 -0.00000000000E+00 -0.21855741672E+03  0.21856202964E+03  0.14200000000E+01 0.  1.
         25    2    1    2    0    0  0.00000000000E+00  0.00000000000E+00 -0.20072084425E+03  0.23645503715E+03  0.12498850859E+03 0.  0.
        -11    1    3    3    0    0 -0.21322894407E+02 -0.55629586465E+02 -0.64654960780E+02  0.87918033815E+02  0.51100000000E-03 0. -1.
         11    1    3    3    0    0  0.21322894407E+02  0.55629586465E+02 -0.13606588347E+03  0.14853700333E+03  0.51100000000E-03 0.  1.
<mgrwt>
<rscale>  0 0.12498851E+03</rscale>
<asrwt>0</asrwt>
<pdfrwt beam="2">  1        4 0.33628912E-01 0.12498851E+03</pdfrwt>
<pdfrwt beam="1">  1       -4 0.27487842E-02 0.12498851E+03</pdfrwt>
<totfact> 0.84349790E+03</totfact>
</mgrwt>
</event>
<event>
 5    1  0.3296574E-054  0.1250013E+03  0.7818608E-02  0.1235067E+00
          4   -1    0    0  501    0  0.00000000000E+00  0.00000000000E+00  0.28698437008E+02  0.28733546365E+02  0.14200000000E+01 0. -1.
         -4   -1    0    0    0  501 -0.00000000000E+00 -0.00000000000E+00 -0.13599459262E+03  0.13600200594E+03  0.14200000000E+01 0.  1.
         25    2    1    2    0    0  0.00000000000E+00  0.00000000000E+00 -0.10729615561E+03  0.16473555231E+03  0.12500134874E+03 0.  0.
        -11    1    3    3    0    0 -0.35226099372E+02  0.96686093238E+01 -0.12048338404E+03  0.12589918949E+03  0.51100000000E-03 0.  1.
         11    1    3    3    0    0  0.35226099372E+02 -0.96686093238E+01  0.13187228433E+02  0.38836362822E+02  0.51100000000E-03 0. -1.
<mgrwt>
<rscale>  0 0.12500135E+03</rscale>
<asrwt>0</asrwt>
<pdfrwt beam="1">  1        4 0.44184152E-02 0.12500135E+03</pdfrwt>
<pdfrwt beam="2">  1       -4 0.20925516E-01 0.12500135E+03</pdfrwt>
<totfact> 0.96434576E+03</totfact>
</mgrwt>
</event>
<event>
 5    1  0.3296574E-054  0.1249990E+03  0.7818608E-02  0.1235071E+00
         -4   -1    0    0    0  501 -0.00000000000E+00  0.00000000000E+00  0.71243466858E+02  0.71257616926E+02  0.14200000000E+01 0.  1.
          4   -1    0    0  501    0  0.00000000000E+00 -0.00000000000E+00 -0.54799955773E+02  0.54818350511E+02  0.14200000000E+01 0. -1.
         25    2    1    2    0    0  0.00000000000E+00  0.00000000000E+00  0.16443511085E+02  0.12607596744E+03  0.12499904203E+03 0.  0.
        -11    1    3    3    0    0  0.48350688064E+02  0.39304254626E+02  0.33243422586E+01  0.62399236531E+02  0.51100000000E-03 0.  1.
         11    1    3    3    0    0 -0.48350688064E+02 -0.39304254626E+02  0.13119168826E+02  0.63676730906E+02  0.51100000000E-03 0. -1.
<mgrwt>
<rscale>  0 0.12499904E+03</rscale>
<asrwt>0</asrwt>
<pdfrwt beam="2">  1        4 0.84332659E-02 0.12499904E+03</pdfrwt>
<pdfrwt beam="1">  1       -4 0.10963037E-01 0.12499904E+03</pdfrwt>
<totfact> 0.10429518E+04</totfact>
</mgrwt>
</event>
<event>
 5    1  0.3296574E-054  0.1250014E+03  0.7818608E-02  0.1235067E+00
          4   -1    0    0  501    0  0.00000000000E+00  0.00000000000E+00  0.14736232584E+02  0.14804490899E+02  0.14200000000E+01 0.  1.
         -4   -1    0    0    0  501 -0.00000000000E+00 -0.00000000000E+00 -0.26440126670E+03  0.26440507982E+03  0.14200000000E+01 0. -1.
         25    2    1    2    0    0  0.00000000000E+00  0.00000000000E+00 -0.24966503412E+03  0.27920957071E+03  0.12500142047E+03 0.  0.
        -11    1    3    3    0    0  0.13767120895E+02 -0.60183599920E+02 -0.10309145225E+03  0.12016424945E+03  0.51100000000E-03 0. -1.
         11    1    3    3    0    0 -0.13767120895E+02  0.60183599920E+02 -0.14657358186E+03  0.15904532127E+03  0.51100000000E-03 0.  1.
<mgrwt>
<rscale>  0 0.12500142E+03</rscale>
<asrwt>0</asrwt>
<pdfrwt beam="1">  1        4 0.22726569E-02 0.12500142E+03</pdfrwt>
<pdfrwt beam="2">  1       -4 0.40682658E-01 0.12500142E+03</pdfrwt>
<totfact> 0.78280557E+03</totfact>
</mgrwt>
</event>
<event>
 5    1  0.3296574E-054  0.1250003E+03  0.7818608E-02  0.1235069E+00
         -4   -1    0    0    0  501 -0.00000000000E+00  0.00000000000E+00  0.10942447754E+03  0.10943369081E+03  0.14200000000E+01 0.  1.
          4   -1    0    0  501    0  0.00000000000E+00 -0.00000000000E+00 -0.35673470276E+02  0.35701720988E+02  0.14200000000E+01 0. -1.
         25    2    1    2    0    0  0.00000000000E+00  0.00000000000E+00  0.73751007262E+02  0.14513541180E+03  0.12500030674E+03 0.  0.
        -11    1    3    3    0    0 -0.37071987991E+02  0.48494654793E+02  0.52461914907E+02  0.80487988875E+02  0.51100000000E-03 0. -1.
         11    1    3    3    0    0  0.37071987991E+02 -0.48494654793E+02  0.21289092355E+02  0.64647422924E+02  0.51100000000E-03 0.  1.
<mgrwt>
<rscale>  0 0.12500031E+03</rscale>
<asrwt>0</asrwt>
<pdfrwt beam="2">  1        4 0.54911081E-02 0.12500031E+03</pdfrwt>
<pdfrwt beam="1">  1       -4 0.16837417E-01 0.12500031E+03</pdfrwt>
<totfact> 0.10028169E+04</totfact>
</mgrwt>
</event>
<event>
 5    1  0.3296574E-054  0.1250005E+03  0.7818608E-02  0.1235068E+00
         -4   -1    0    0    0  501 -0.00000000000E+00  0.00000000000E+00  0.51499185410E+02  0.51518758699E+02  0.14200000000E+01 0.  1.
          4   -1    0    0  501    0  0.00000000000E+00 -0.00000000000E+00 -0.75810732482E+02  0.75824030224E+02  0.14200000000E+01 0. -1.
         25    2    1    2    0    0  0.00000000000E+00  0.00000000000E+00 -0.24311547072E+02  0.12734278892E+03  0.12500053828E+03 0.  0.
        -11    1    3    3    0    0 -0.34256655289E+02  0.52253180231E+02 -0.13724221841E+02  0.63970833520E+02  0.51100000000E-03 0.  1.
         11    1    3    3    0    0  0.34256655289E+02 -0.52253180231E+02 -0.10587325231E+02  0.63371955403E+02  0.51100000000E-03 0. -1.
<mgrwt>
<rscale>  0 0.12500054E+03</rscale>
<asrwt>0</asrwt>
<pdfrwt beam="2">  1        4 0.11665718E-01 0.12500054E+03</pdfrwt>
<pdfrwt beam="1">  1       -4 0.79254801E-02 0.12500054E+03</pdfrwt>
<totfact> 0.10401580E+04</totfact>
</mgrwt>
</event>
<event>
 5    1  0.3296574E-054  0.1249869E+03  0.7818608E-02  0.1235090E+00
          4   -1    0    0  501    0  0.00000000000E+00  0.00000000000E+00  0.11549720744E+02  0.11636685494E+02  0.14200000000E+01 0. -1.
         -4   -1    0    0    0  501 -0.00000000000E+00 -0.00000000000E+00 -0.33678413201E+03  0.33678712561E+03  0.14200000000E+01 0.  1.
         25    2    1    2    0    0  0.00000000000E+00  0.00000000000E+00 -0.32523441127E+03  0.34842381110E+03  0.12498691879E+03 0.  0.
        -11    1    3    3    0    0 -0.60438940260E+02  0.13722157176E+02 -0.14026886482E+03  0.15335096196E+03  0.51100000000E-03 0.  1.
         11    1    3    3    0    0  0.60438940260E+02 -0.13722157176E+02 -0.18496554644E+03  0.19507284913E+03  0.51100000000E-03 0. -1.
<mgrwt>
<rscale>  0 0.12498692E+03</rscale>
<asrwt>0</asrwt>
<pdfrwt beam="1">  1        4 0.17838002E-02 0.12498692E+03</pdfrwt>
<pdfrwt beam="2">  1       -4 0.51819856E-01 0.12498692E+03</pdfrwt>
<totfact> 0.69918548E+03</totfact>
</mgrwt>
</event>
<event>
 5    1  0.3296574E-054  0.1249993E+03  0.7818608E-02  0.1235070E+00
         -4   -1    0    0    0  501 -0.00000000000E+00  0.00000000000E+00  0.11992452399E+03  0.11993293065E+03  0.14200000000E+01 0.  1.
          4   -1    0    0  501    0  0.00000000000E+00 -0.00000000000E+00 -0.32547165027E+02  0.32578126884E+02  0.14200000000E+01 0. -1.
         25    2    1    2    0    0  0.00000000000E+00  0.00000000000E+00  0.87377358963E+02  0.15251105753E+03  0.12499927924E+03 0.  0.
        -11    1    3    3    0    0 -0.50128618855E+02  0.34559388797E+02  0.60899170698E+02  0.86115845082E+02  0.51100000000E-03 0.  1.
         11    1    3    3    0    0  0.50128618855E+02 -0.34559388797E+02  0.26478188266E+02  0.66395212451E+02  0.51100000000E-03 0. -1.
<mgrwt>
<rscale>  0 0.12499928E+03</rscale>
<asrwt>0</asrwt>
<pdfrwt beam="2">  1        4 0.50102845E-02 0.12499928E+03</pdfrwt>
<pdfrwt beam="1">  1       -4 0.18452955E-01 0.12499928E+03</pdfrwt>
<totfact> 0.98807094E+03</totfact>
</mgrwt>
</event>
<event>
 5    1  0.3296574E-054  0.1249990E+03  0.7818608E-02  0.1235071E+00
          4   -1    0    0  501    0  0.00000000000E+00  0.00000000000E+00  0.46498219160E+03  0.46498435985E+03  0.14200000000E+01 0.  1.
         -4   -1    0    0    0  501 -0.00000000000E+00 -0.00000000000E+00 -0.83385209625E+01  0.84585655901E+01  0.14200000000E+01 0. -1.
         25    2    1    2    0    0  0.00000000000E+00  0.00000000000E+00  0.45664367064E+03  0.47344292544E+03  0.12499904686E+03 0.  0.
        -11    1    3    3    0    0 -0.59296765406E+02  0.13871121923E+02  0.17506959029E+03  0.18535877604E+03  0.51100000000E-03 0. -1.
         11    1    3    3    0    0  0.59296765406E+02 -0.13871121923E+02  0.28157408035E+03  0.28808414940E+03  0.51100000000E-03 0.  1.
<mgrwt>
<rscale>  0 0.12499905E+03</rscale>
<asrwt>0</asrwt>
<pdfrwt beam="1">  1        4 0.71545149E-01 0.12499905E+03</pdfrwt>
<pdfrwt beam="2">  1       -4 0.12922499E-02 0.12499905E+03</pdfrwt>
<totfact> 0.57986598E+03</totfact>
</mgrwt>
</event>
<event>
 5    1  0.3296574E-054  0.1249956E+03  0.7818608E-02  0.1235076E+00
          4   -1    0    0  501    0  0.00000000000E+00  0.00000000000E+00  0.30469946242E+03  0.30470277124E+03  0.14200000000E+01 0. -1.
         -4   -1    0    0    0  501 -0.00000000000E+00 -0.00000000000E+00 -0.12776392626E+02  0.12855061592E+02  0.14200000000E+01 0.  1.
         25    2    1    2    0    0  0.00000000000E+00  0.00000000000E+00  0.29192306980E+03  0.31755783283E+03  0.12499559397E+03 0.  0.
        -11    1    3    3    0    0  0.40725289222E+02 -0.24642640317E+02  0.43071813633E+02  0.64194937760E+02  0.51100000000E-03 0.  1.
         11    1    3    3    0    0 -0.40725289222E+02  0.24642640317E+02  0.24885125617E+03  0.25336289507E+03  0.51100000000E-03 0. -1.
<mgrwt>
<rscale>  0 0.12499559E+03</rscale>
<asrwt>0</asrwt>
<pdfrwt beam="1">  1        4 0.46883148E-01 0.12499559E+03</pdfrwt>
<pdfrwt beam="2">  1       -4 0.19719048E-02 0.12499559E+03</pdfrwt>
<totfact> 0.73454705E+03</totfact>
</mgrwt>
</event>
<event>
 5    1  0.3296574E-054  0.1249994E+03  0.7818608E-02  0.1235070E+00
          4   -1    0    0  501    0  0.00000000000E+00  0.00000000000E+00  0.12550728000E+02  0.12630802560E+02  0.14200000000E+01 0. -1.
         -4   -1    0    0    0  501 -0.00000000000E+00 -0.00000000000E+00 -0.31016269295E+03  0.31016594348E+03  0.14200000000E+01 0.  1.
         25    2    1    2    0    0  0.00000000000E+00  0.00000000000E+00 -0.29761196495E+03  0.32279674604E+03  0.12499943030E+03 0.  0.
        -11    1    3    3    0    0 -0.65399909205E+01  0.47699017040E+02 -0.25172131779E+03  0.25628419681E+03  0.51100000000E-03 0.  1.
         11    1    3    3    0    0  0.65399909205E+01 -0.47699017040E+02 -0.45890647161E+02  0.66512549229E+02  0.51100000000E-03 0. -1.
<mgrwt>
<rscale>  0 0.12499943E+03</rscale>
<asrwt>0</asrwt>
<pdfrwt beam="1">  1        4 0.19372911E-02 0.12499943E+03</pdfrwt>
<pdfrwt beam="2">  1       -4 0.47723741E-01 0.12499943E+03</pdfrwt>
<totfact> 0.72825641E+03</totfact>
</mgrwt>
</event>
<event>
 5    1  0.3296574E-054  0.1249992E+03  0.7818608E-02  0.1235071E+00
         -4   -1    0    0    0  501 -0.00000000000E+00  0.00000000000E+00  0.17757339303E+02  0.17814025348E+02  0.14200000000E+01 0. -1.
          4   -1    0    0  501    0  0.00000000000E+00 -0.00000000000E+00 -0.21956710991E+03  0.21957170162E+03  0.14200000000E+01 0.  1.
         25    2    1    2    0    0  0.00000000000E+00  0.00000000000E+00 -0.20180977061E+03  0.23738572697E+03  0.12499919943E+03 0.  0.
        -11    1    3    3    0    0  0.21720310775E+02 -0.55618118350E+02 -0.13597670444E+03  0.14850862311E+03  0.51100000000E-03 0. -1.
         11    1    3    3    0    0 -0.21720310775E+02  0.55618118350E+02 -0.65833066168E+02  0.88877103858E+02  0.51100000000E-03 0.  1.
<mgrwt>
<rscale>  0 0.12499920E+03</rscale>
<asrwt>0</asrwt>
<pdfrwt beam="2">  1        4 0.33784267E-01 0.12499920E+03</pdfrwt>
<pdfrwt beam="1">  1       -4 0.27366122E-02 0.12499920E+03</pdfrwt>
<totfact> 0.84189768E+03</totfact>
</mgrwt>
</event>
<event>
 5    1  0.3296574E-054  0.1250031E+03  0.7818608E-02  0.1235064E+00
         -4   -1    0    0    0  501 -0.00000000000E+00  0.00000000000E+00  0.12592051347E+03  0.12592851985E+03  0.14200000000E+01 0.  1.
          4   -1    0    0  501    0  0.00000000000E+00 -0.00000000000E+00 -0.30997848750E+02  0.31030356542E+02  0.14200000000E+01 0. -1.
         25    2    1    2    0    0  0.00000000000E+00  0.00000000000E+00  0.94922664716E+02  0.15695887639E+03  0.12500310637E+03 0.  0.
        -11    1    3    3    0    0 -0.32489792463E+02 -0.50275002161E+02  0.70037781263E+02  0.92132802307E+02  0.51100000000E-03 0.  1.
         11    1    3    3    0    0  0.32489792463E+02  0.50275002161E+02  0.24884883454E+02  0.64826074085E+02  0.51100000000E-03 0. -1.
<mgrwt>
<rscale>  0 0.12500311E+03</rscale>
<asrwt>0</asrwt>
<pdfrwt beam="2">  1        4 0.47720164E-02 0.12500311E+03</pdfrwt>
<pdfrwt beam="1">  1       -4 0.19375503E-01 0.12500311E+03</pdfrwt>
<totfact> 0.97925474E+03</totfact>
</mgrwt>
</event>
<event>
 5    1  0.3296574E-054  0.1250061E+03  0.7818608E-02  0.1235060E+00
          4   -1    0    0  501    0  0.00000000000E+00  0.00000000000E+00  0.24226587599E+02  0.24268167353E+02  0.14200000000E+01 0. -1.
         -4   -1    0    0    0  501 -0.00000000000E+00 -0.00000000000E+00 -0.16107091831E+03  0.16107717754E+03  0.14200000000E+01 0.  1.
         25    2    1    2    0    0  0.00000000000E+00  0.00000000000E+00 -0.13684433071E+03  0.18534534489E+03  0.12500610396E+03 0.  0.
        -11    1    3    3    0    0  0.22274603261E+02  0.30970112504E+02 -0.14183144647E+03  0.14687227454E+03  0.51100000000E-03 0.  1.
         11    1    3    3    0    0 -0.22274603261E+02 -0.30970112504E+02  0.49871157611E+01  0.38473070359E+02  0.51100000000E-03 0. -1.
<mgrwt>
<rscale>  0 0.12500610E+03</rscale>
<asrwt>0</asrwt>
<pdfrwt beam="1">  1        4 0.37308473E-02 0.12500610E+03</pdfrwt>
<pdfrwt beam="2">  1       -4 0.24783821E-01 0.12500610E+03</pdfrwt>
<totfact> 0.92650903E+03</totfact>
</mgrwt>
</event>
<event>
 5    1  0.3296574E-054  0.1250002E+03  0.7818608E-02  0.1235069E+00
         -4   -1    0    0    0  501 -0.00000000000E+00  0.00000000000E+00  0.29254743063E+02  0.29289185576E+02  0.14200000000E+01 0.  1.
          4   -1    0    0  501    0  0.00000000000E+00 -0.00000000000E+00 -0.13340900023E+03  0.13341655723E+03  0.14200000000E+01 0. -1.
         25    2    1    2    0    0  0.00000000000E+00  0.00000000000E+00 -0.10415425717E+03  0.16270574281E+03  0.12500019782E+03 0.  0.
        -11    1    3    3    0    0 -0.37794996858E+02  0.49770329280E+02 -0.53177690990E+02  0.82057384088E+02  0.51100000000E-03 0.  1.
         11    1    3    3    0    0  0.37794996858E+02 -0.49770329280E+02 -0.50976566181E+02  0.80648358718E+02  0.51100000000E-03 0. -1.
<mgrwt>
<rscale>  0 0.12500020E+03</rscale>
<asrwt>0</asrwt>
<pdfrwt beam="2">  1        4 0.20527692E-01 0.12500020E+03</pdfrwt>
<pdfrwt beam="1">  1       -4 0.45039605E-02 0.12500020E+03</pdfrwt>
<totfact> 0.96823231E+03</totfact>
</mgrwt>
</event>
<event>
 5    1  0.3296574E-054  0.1250006E+03  0.7818608E-02  0.1235068E+00
         -4   -1    0    0    0  501 -0.00000000000E+00  0.00000000000E+00  0.42659515955E+02  0.42683143061E+02  0.14200000000E+01 0.  1.
          4   -1    0    0  501    0  0.00000000000E+00 -0.00000000000E+00 -0.91514493275E+02  0.91525509446E+02  0.14200000000E+01 0. -1.
         25    2    1    2    0    0  0.00000000000E+00  0.00000000000E+00 -0.48854977320E+02  0.13420865251E+03  0.12500061439E+03 0.  0.
        -11    1    3    3    0    0  0.12560594106E+02 -0.61214821457E+02 -0.25635305277E+02  0.67543998751E+02  0.51100000000E-03 0.  1.
         11    1    3    3    0    0 -0.12560594106E+02  0.61214821457E+02 -0.23219672043E+02  0.66664653756E+02  0.51100000000E-03 0. -1.
<mgrwt>
<rscale>  0 0.12500061E+03</rscale>
<asrwt>0</asrwt>
<pdfrwt beam="2">  1        4 0.14081818E-01 0.12500061E+03</pdfrwt>
<pdfrwt beam="1">  1       -4 0.65656674E-02 0.12500061E+03</pdfrwt>
<totfact> 0.10254635E+04</totfact>
</mgrwt>
</event>
<event>
 5    1  0.3296574E-054  0.1250166E+03  0.7818608E-02  0.1235043E+00
          4   -1    0    0  501    0  0.00000000000E+00  0.00000000000E+00  0.80607477109E+02  0.80619983663E+02  0.14200000000E+01 0. -1.
         -4   -1    0    0    0  501 -0.00000000000E+00 -0.00000000000E+00 -0.48446333988E+02  0.48467140176E+02  0.14200000000E+01 0.  1.
         25    2    1    2    0    0  0.00000000000E+00  0.00000000000E+00  0.32161143121E+02  0.12908712384E+03  0.12501658456E+03 0.  0.
        -11    1    3    3    0    0 -0.46925343453E+02  0.15301937317E+02 -0.23523851670E+02  0.54676400224E+02  0.51100000000E-03 0.  1.
         11    1    3    3    0    0  0.46925343453E+02 -0.15301937317E+02  0.55684994791E+02  0.74410723615E+02  0.51100000000E-03 0. -1.
<mgrwt>
<rscale>  0 0.12501658E+03</rscale>
<asrwt>0</asrwt>
<pdfrwt beam="1">  1        4 0.12403713E-01 0.12501658E+03</pdfrwt>
<pdfrwt beam="2">  1       -4 0.74558448E-02 0.12501658E+03</pdfrwt>
<totfact> 0.10360196E+04</totfact>
</mgrwt>
</event>
<event>
 5    1  0.3296574E-054  0.1249998E+03  0.7818608E-02  0.1235070E+00
         -4   -1    0    0    0  501 -0.00000000000E+00  0.00000000000E+00  0.41788269197E+02  0.41812388625E+02  0.14200000000E+01 0.  1.
          4   -1    0    0  501    0  0.00000000000E+00 -0.00000000000E+00 -0.93420375225E+02  0.93431166680E+02  0.14200000000E+01 0. -1.
         25    2    1    2    0    0  0.00000000000E+00  0.00000000000E+00 -0.51632106028E+02  0.13524355531E+03  0.12499977951E+03 0.  0.
        -11    1    3    3    0    0  0.37368443293E+02  0.50031223428E+02 -0.23012914567E+02  0.66551619883E+02  0.51100000000E-03 0.  1.
         11    1    3    3    0    0 -0.37368443293E+02 -0.50031223428E+02 -0.28619191460E+02  0.68691935422E+02  0.51100000000E-03 0. -1.
<mgrwt>
<rscale>  0 0.12499978E+03</rscale>
<asrwt>0</asrwt>
<pdfrwt beam="2">  1        4 0.14375051E-01 0.12499978E+03</pdfrwt>
<pdfrwt beam="1">  1       -4 0.64316500E-02 0.12499978E+03</pdfrwt>
<totfact> 0.10232991E+04</totfact>
</mgrwt>
</event>
<event>
 5    1  0.3296574E-054  0.1250012E+03  0.7818608E-02  0.1235067E+00
          4   -1    0    0  501    0  0.00000000000E+00  0.00000000000E+00  0.13017585827E+02  0.13094805870E+02  0.14200000000E+01 0. -1.
         -4   -1    0    0    0  501 -0.00000000000E+00 -0.00000000000E+00 -0.29911407449E+03  0.29911744509E+03  0.14200000000E+01 0.  1.
         25    2    1    2    0    0  0.00000000000E+00  0.00000000000E+00 -0.28609648866E+03  0.31221225096E+03  0.12500115530E+03 0.  0.
        -11    1    3    3    0    0  0.31060996157E+02 -0.33635658606E+02 -0.24931482290E+03  0.25348377449E+03  0.51100000000E-03 0.  1.
         11    1    3    3    0    0 -0.31060996157E+02  0.33635658606E+02 -0.36781665764E+02  0.58728476473E+02  0.51100000000E-03 0. -1.
<mgrwt>
<rscale>  0 0.12500116E+03</rscale>
<asrwt>0</asrwt>
<pdfrwt beam="1">  1        4 0.20089050E-02 0.12500116E+03</pdfrwt>
<pdfrwt beam="2">  1       -4 0.46023744E-01 0.12500116E+03</pdfrwt>
<totfact> 0.74090154E+03</totfact>
</mgrwt>
</event>
<event>
 5    1  0.3296574E-054  0.1249610E+03  0.7818608E-02  0.1235130E+00
          4   -1    0    0  501    0  0.00000000000E+00  0.00000000000E+00  0.24649687581E+02  0.24690554830E+02  0.14200000000E+01 0. -1.
         -4   -1    0    0    0  501 -0.00000000000E+00 -0.00000000000E+00 -0.15819645665E+03  0.15820282961E+03  0.14200000000E+01 0.  1.
         25    2    1    2    0    0  0.00000000000E+00  0.00000000000E+00 -0.13354676907E+03  0.18289338444E+03  0.12496099609E+03 0.  0.
        -11    1    3    3    0    0  0.11339768013E+02 -0.61410835147E+02 -0.69675465176E+02  0.93565760083E+02  0.51100000000E-03 0.  1.
         11    1    3    3    0    0 -0.11339768013E+02  0.61410835147E+02 -0.63871303893E+02  0.89327624358E+02  0.51100000000E-03 0. -1.
<mgrwt>
<rscale>  0 0.12496100E+03</rscale>
<asrwt>0</asrwt>
<pdfrwt beam="1">  1        4 0.37958936E-02 0.12496100E+03</pdfrwt>
<pdfrwt beam="2">  1       -4 0.24341550E-01 0.12496100E+03</pdfrwt>
<totfact> 0.93180205E+03</totfact>
</mgrwt>
</event>
<event>
 5    1  0.3296574E-054  0.1249778E+03  0.7818608E-02  0.1235104E+00
         -4   -1    0    0    0  501 -0.00000000000E+00  0.00000000000E+00  0.32205327002E+02  0.32236617181E+02  0.14200000000E+01 0.  1.
          4   -1    0    0  501    0  0.00000000000E+00 -0.00000000000E+00 -0.12115464415E+03  0.12116296546E+03  0.14200000000E+01 0. -1.
         25    2    1    2    0    0  0.00000000000E+00  0.00000000000E+00 -0.88949317153E+02  0.15339958265E+03  0.12497780177E+03 0.  0.
        -11    1    3    3    0    0  0.34347195807E+02 -0.49197903243E+02 -0.23049356873E+02  0.64276250636E+02  0.51100000000E-03 0.  1.
         11    1    3    3    0    0 -0.34347195807E+02  0.49197903243E+02 -0.65899960280E+02  0.89123332010E+02  0.51100000000E-03 0. -1.
<mgrwt>
<rscale>  0 0.12497780E+03</rscale>
<asrwt>0</asrwt>
<pdfrwt beam="2">  1        4 0.18642223E-01 0.12497780E+03</pdfrwt>
<pdfrwt beam="1">  1       -4 0.49577128E-02 0.12497780E+03</pdfrwt>
<totfact> 0.98679579E+03</totfact>
</mgrwt>
</event>
<event>
 5    1  0.3296574E-054  0.1250027E+03  0.7818608E-02  0.1235065E+00
          4   -1    0    0  501    0  0.00000000000E+00  0.00000000000E+00  0.30907773155E+03  0.30908099350E+03  0.14200000000E+01 0. -1.
         -4   -1    0    0    0  501 -0.00000000000E+00 -0.00000000000E+00 -0.12595732175E+02  0.12675522436E+02  0.14200000000E+01 0.  1.
         25    2    1    2    0    0  0.00000000000E+00  0.00000000000E+00  0.29648199938E+03  0.32175651593E+03  0.12500271833E+03 0.  0.
        -11    1    3    3    0    0 -0.54318504426E+02  0.11585864378E+02  0.74457153244E+02  0.92890257003E+02  0.51100000000E-03 0.  1.
         11    1    3    3    0    0  0.54318504426E+02 -0.11585864378E+02  0.22202484613E+03  0.22886625893E+03  0.51100000000E-03 0. -1.
<mgrwt>
<rscale>  0 0.12500272E+03</rscale>
<asrwt>0</asrwt>
<pdfrwt beam="1">  1        4 0.47556800E-01 0.12500272E+03</pdfrwt>
<pdfrwt beam="2">  1       -4 0.19441939E-02 0.12500272E+03</pdfrwt>
<totfact> 0.72943306E+03</totfact>
</mgrwt>
</event>
<event>
 5    1  0.3296574E-054  0.1249683E+03  0.7818608E-02  0.1235119E+00
         -4   -1    0    0    0  501 -0.00000000000E+00  0.00000000000E+00  0.11933807353E+03  0.11934652150E+03  0.14200000000E+01 0.  1.
          4   -1    0    0  501    0  0.00000000000E+00 -0.00000000000E+00 -0.32691020007E+02  0.32721845748E+02  0.14200000000E+01 0. -1.
         25    2    1    2    0    0  0.00000000000E+00  0.00000000000E+00  0.86647053521E+02  0.15206836724E+03  0.12496830171E+03 0.  0.
        -11    1    3    3    0    0 -0.17228460960E+02  0.59420633733E+02  0.53976228260E+02  0.82103987709E+02  0.51100000000E-03 0.  1.
         11    1    3    3    0    0  0.17228460960E+02 -0.59420633733E+02  0.32670825262E+02  0.69964379536E+02  0.51100000000E-03 0. -1.
<mgrwt>
<rscale>  0 0.12496830E+03</rscale>
<asrwt>0</asrwt>
<pdfrwt beam="2">  1        4 0.50324087E-02 0.12496830E+03</pdfrwt>
<pdfrwt beam="1">  1       -4 0.18362725E-01 0.12496830E+03</pdfrwt>
<totfact> 0.98963553E+03</totfact>
</mgrwt>
</event>
<event>
 5    1  0.3296574E-054  0.1249998E+03  0.7818608E-02  0.1235070E+00
         -4   -1    0    0    0  501 -0.00000000000E+00  0.00000000000E+00  0.48970625361E+03  0.48970831239E+03  0.14200000000E+01 0.  1.
          4   -1    0    0  501    0  0.00000000000E+00 -0.00000000000E+00 -0.79114022217E+01  0.80378283830E+01  0.14200000000E+01 0. -1.
         25    2    1    2    0    0  0.00000000000E+00  0.00000000000E+00  0.48179485139E+03  0.49774614077E+03  0.12499976732E+03 0.  0.
        -11    1    3    3    0    0  0.58739105784E+01  0.62099443315E+02  0.22527519641E+03  0.23375148728E+03  0.51100000000E-03 0.  1.
         11    1    3    3    0    0 -0.58739105784E+01 -0.62099443315E+02  0.25651965498E+03  0.26399465350E+03  0.51100000000E-03 0. -1.
<mgrwt>
<rscale>  0 0.12499977E+03</rscale>
<asrwt>0</asrwt>
<pdfrwt beam="2">  1        4 0.12270222E-02 0.12499977E+03</pdfrwt>
<pdfrwt beam="1">  1       -4 0.75349313E-01 0.12499977E+03</pdfrwt>
<totfact> 0.56039945E+03</totfact>
</mgrwt>
</event>
<event>
 5    1  0.3296574E-054  0.1249987E+03  0.7818608E-02  0.1235071E+00
          4   -1    0    0  501    0  0.00000000000E+00  0.00000000000E+00  0.12263108333E+02  0.12345048643E+02  0.14200000000E+01 0. -1.
         -4   -1    0    0    0  501 -0.00000000000E+00 -0.00000000000E+00 -0.31738598881E+03  0.31738916536E+03  0.14200000000E+01 0.  1.
         25    2    1    2    0    0  0.00000000000E+00  0.00000000000E+00 -0.30512288047E+03  0.32973421401E+03  0.12499871879E+03 0.  0.
        -11    1    3    3    0    0  0.55778523798E+02 -0.20864188604E+02 -0.20258509785E+03  0.21115700309E+03  0.51100000000E-03 0.  1.
         11    1    3    3    0    0 -0.55778523798E+02  0.20864188604E+02 -0.10253778263E+03  0.11857721092E+03  0.51100000000E-03 0. -1.
<mgrwt>
<rscale>  0 0.12499872E+03</rscale>
<asrwt>0</asrwt>
<pdfrwt beam="1">  1        4 0.18931797E-02 0.12499872E+03</pdfrwt>
<pdfrwt beam="2">  1       -4 0.48835155E-01 0.12499872E+03</pdfrwt>
<totfact> 0.72015180E+03</totfact>
</mgrwt>
</event>
<event>
 5    1  0.3296574E-054  0.1249995E+03  0.7818608E-02  0.1235070E+00
          4   -1    0    0  501    0  0.00000000000E+00  0.00000000000E+00  0.45768579698E+02  0.45790602612E+02  0.14200000000E+01 0. -1.
         -4   -1    0    0    0  501 -0.00000000000E+00 -0.00000000000E+00 -0.85298751205E+02  0.85310570020E+02  0.14200000000E+01 0.  1.
         25    2    1    2    0    0  0.00000000000E+00  0.00000000000E+00 -0.39530171508E+02  0.13110117263E+03  0.12499953202E+03 0.  0.
        -11    1    3    3    0    0  0.32179180907E+01 -0.45343525323E+02 -0.64752091905E+02  0.79115255747E+02  0.51100000000E-03 0.  1.
         11    1    3    3    0    0 -0.32179180907E+01  0.45343525323E+02  0.25221920397E+02  0.51985916885E+02  0.51100000000E-03 0. -1.
<mgrwt>
<rscale>  0 0.12499953E+03</rscale>
<asrwt>0</asrwt>
<pdfrwt beam="1">  1        4 0.70439232E-02 0.12499953E+03</pdfrwt>
<pdfrwt beam="2">  1       -4 0.13125488E-01 0.12499953E+03</pdfrwt>
<totfact> 0.10321030E+04</totfact>
</mgrwt>
</event>
<event>
 5    1  0.3296574E-054  0.1250077E+03  0.7818608E-02  0.1235057E+00
         -4   -1    0    0    0  501 -0.00000000000E+00  0.00000000000E+00  0.30945832189E+02  0.30978394566E+02  0.14200000000E+01 0.  1.
          4   -1    0    0  501    0  0.00000000000E+00 -0.00000000000E+00 -0.12614132860E+03  0.12614932097E+03  0.14200000000E+01 0. -1.
         25    2    1    2    0    0  0.00000000000E+00  0.00000000000E+00 -0.95195496411E+02  0.15712771554E+03  0.12500774557E+03 0.  0.
        -11    1    3    3    0    0  0.48290467633E+01  0.61960375457E+02 -0.55966228191E+02  0.83633883789E+02  0.51100000000E-03 0.  1.
         11    1    3    3    0    0 -0.48290467633E+01 -0.61960375457E+02 -0.39229268220E+02  0.73493831746E+02  0.51100000000E-03 0. -1.
<mgrwt>
<rscale>  0 0.12500775E+03</rscale>
<asrwt>0</asrwt>
<pdfrwt beam="2">  1        4 0.19409478E-01 0.12500775E+03</pdfrwt>
<pdfrwt beam="1">  1       -4 0.47640169E-02 0.12500775E+03</pdfrwt>
<totfact> 0.97882366E+03</totfact>
</mgrwt>
</event>
<event>
 5    1  0.3296574E-054  0.1249972E+03  0.7818608E-02  0.1235074E+00
         -4   -1    0    0    0  501 -0.00000000000E+00  0.00000000000E+00  0.14395938371E+03  0.14396638690E+03  0.14200000000E+01 0.  1.
          4   -1    0    0  501    0  0.00000000000E+00 -0.00000000000E+00 -0.27106942706E+02  0.27144110648E+02  0.14200000000E+01 0. -1.
         25    2    1    2    0    0  0.00000000000E+00  0.00000000000E+00  0.11685244100E+03  0.17111049755E+03  0.12499723759E+03 0.  0.
        -11    1    3    3    0    0 -0.21127927214E+02  0.58591084838E+02  0.51343121753E+02  0.80718155842E+02  0.51100000000E-03 0.  1.
         11    1    3    3    0    0  0.21127927214E+02 -0.58591084838E+02  0.65509319252E+02  0.90392341711E+02  0.51100000000E-03 0. -1.
<mgrwt>
<rscale>  0 0.12499724E+03</rscale>
<asrwt>0</asrwt>
<pdfrwt beam="2">  1        4 0.41736967E-02 0.12499724E+03</pdfrwt>
<pdfrwt beam="1">  1       -4 0.22150995E-01 0.12499724E+03</pdfrwt>
<totfact> 0.95247964E+03</totfact>
</mgrwt>
</event>
<event>
 5    1  0.3296574E-054  0.1249926E+03  0.7818608E-02  0.1235081E+00
         -4   -1    0    0    0  501 -0.00000000000E+00  0.00000000000E+00  0.17669937865E+02  0.17726903400E+02  0.14200000000E+01 0.  1.
          4   -1    0    0  501    0  0.00000000000E+00 -0.00000000000E+00 -0.22062650100E+03  0.22063107067E+03  0.14200000000E+01 0. -1.
         25    2    1    2    0    0  0.00000000000E+00  0.00000000000E+00 -0.20295656314E+03  0.23835797407E+03  0.12499262891E+03 0.  0.
        -11    1    3    3    0    0 -0.47565442661E+02 -0.23780033374E+02 -0.16408486632E+03  0.17248711453E+03  0.51100000000E-03 0.  1.
         11    1    3    3    0    0  0.47565442661E+02  0.23780033374E+02 -0.38871696816E+02  0.65870859539E+02  0.51100000000E-03 0. -1.
<mgrwt>
<rscale>  0 0.12499263E+03</rscale>
<asrwt>0</asrwt>
<pdfrwt beam="2">  1        4 0.33947270E-01 0.12499263E+03</pdfrwt>
<pdfrwt beam="1">  1       -4 0.27231856E-02 0.12499263E+03</pdfrwt>
<totfact> 0.84056342E+03</totfact>
</mgrwt>
</event>
<event>
 5    1  0.3296574E-054  0.1249995E+03  0.7818608E-02  0.1235070E+00
          4   -1    0    0  501    0  0.00000000000E+00  0.00000000000E+00  0.90028513995E+02  0.90039711973E+02  0.14200000000E+01 0. -1.
         -4   -1    0    0    0  501 -0.00000000000E+00 -0.00000000000E+00 -0.43363169213E+02  0.43386413129E+02  0.14200000000E+01 0.  1.
         25    2    1    2    0    0  0.00000000000E+00  0.00000000000E+00  0.46665344782E+02  0.13342612510E+03  0.12499950582E+03 0.  0.
        -11    1    3    3    0    0  0.40421383159E+02 -0.47622825174E+02  0.25571040644E+02  0.67495924425E+02  0.51100000000E-03 0.  1.
         11    1    3    3    0    0 -0.40421383159E+02  0.47622825174E+02  0.21094304138E+02  0.65930200677E+02  0.51100000000E-03 0. -1.
<mgrwt>
<rscale>  0 0.12499951E+03</rscale>
<asrwt>0</asrwt>
<pdfrwt beam="1">  1        4 0.13853190E-01 0.12499951E+03</pdfrwt>
<pdfrwt beam="2">  1       -4 0.66739063E-02 0.12499951E+03</pdfrwt>
<totfact> 0.10271466E+04</totfact>
</mgrwt>
</event>
<event>
 5    1  0.3296574E-054  0.1249939E+03  0.7818608E-02  0.1235079E+00
          4   -1    0    0  501    0  0.00000000000E+00  0.00000000000E+00  0.29265265044E+03  0.29265609546E+03  0.14200000000E+01 0. -1.
         -4   -1    0    0    0  501 -0.00000000000E+00 -0.00000000000E+00 -0.13305135066E+02  0.13380695763E+02  0.14200000000E+01 0.  1.
         25    2    1    2    0    0  0.00000000000E+00  0.00000000000E+00  0.27934751537E+03  0.30603679122E+03  0.12499393280E+03 0.  0.
        -11    1    3    3    0    0  0.52169842592E+02 -0.72436580721E+01  0.57307022502E+02  0.77834811535E+02  0.51100000000E-03 0.  1.
         11    1    3    3    0    0 -0.52169842592E+02  0.72436580721E+01  0.22204049287E+03  0.22820197969E+03  0.51100000000E-03 0. -1.
<mgrwt>
<rscale>  0 0.12499393E+03</rscale>
<asrwt>0</asrwt>
<pdfrwt beam="1">  1        4 0.45029565E-01 0.12499393E+03</pdfrwt>
<pdfrwt beam="2">  1       -4 0.20530211E-02 0.12499393E+03</pdfrwt>
<totfact> 0.74857855E+03</totfact>
</mgrwt>
</event>
<event>
 5    1  0.3296574E-054  0.1250003E+03  0.7818608E-02  0.1235069E+00
          4   -1    0    0  501    0  0.00000000000E+00  0.00000000000E+00  0.66479576077E+01  0.67979217672E+01  0.14200000000E+01 0. -1.
         -4   -1    0    0    0  501 -0.00000000000E+00 -0.00000000000E+00 -0.58088521583E+03  0.58088695145E+03  0.14200000000E+01 0.  1.
         25    2    1    2    0    0  0.00000000000E+00  0.00000000000E+00 -0.57423725822E+03  0.58768487322E+03  0.12500032593E+03 0.  0.
        -11    1    3    3    0    0  0.62220048272E+02  0.47996780965E+01 -0.30333634084E+03  0.30968904887E+03  0.51100000000E-03 0.  1.
         11    1    3    3    0    0 -0.62220048272E+02 -0.47996780965E+01 -0.27090091738E+03  0.27799582435E+03  0.51100000000E-03 0. -1.
<mgrwt>
<rscale>  0 0.12500033E+03</rscale>
<asrwt>0</asrwt>
<pdfrwt beam="1">  1        4 0.10344324E-02 0.12500033E+03</pdfrwt>
<pdfrwt beam="2">  1       -4 0.89378586E-01 0.12500033E+03</pdfrwt>
<totfact> 0.49653981E+03</totfact>
</mgrwt>
</event>
<event>
 5    1  0.3296574E-054  0.1249992E+03  0.7818608E-02  0.1235071E+00
         -4   -1    0    0    0  501 -0.00000000000E+00  0.00000000000E+00  0.10142064636E+02  0.10240989946E+02  0.14200000000E+01 0.  1.
          4   -1    0    0  501    0  0.00000000000E+00 -0.00000000000E+00 -0.38317870049E+03  0.38318133163E+03  0.14200000000E+01 0. -1.
         25    2    1    2    0    0  0.00000000000E+00  0.00000000000E+00 -0.37303663585E+03  0.39342232158E+03  0.12499916570E+03 0.  0.
        -11    1    3    3    0    0 -0.56748653852E+01  0.61219737859E+02 -0.22186705606E+03  0.23022825840E+03  0.51100000000E-03 0.  1.
         11    1    3    3    0    0  0.56748653852E+01 -0.61219737859E+02 -0.15116957980E+03  0.16319406318E+03  0.51100000000E-03 0. -1.
<mgrwt>
<rscale>  0 0.12499917E+03</rscale>
<asrwt>0</asrwt>
<pdfrwt beam="2">  1        4 0.58958370E-01 0.12499917E+03</pdfrwt>
<pdfrwt beam="1">  1       -4 0.15681300E-02 0.12499917E+03</pdfrwt>
<totfact> 0.65198799E+03</totfact>
</mgrwt>
</event>
<event>
 5    1  0.3296574E-054  0.1250010E+03  0.7818608E-02  0.1235068E+00
          4   -1    0    0  501    0  0.00000000000E+00  0.00000000000E+00  0.36708585243E+02  0.36736039941E+02  0.14200000000E+01 0. -1.
         -4   -1    0    0    0  501 -0.00000000000E+00 -0.00000000000E+00 -0.10634219091E+03  0.10635167120E+03  0.14200000000E+01 0.  1.
         25    2    1    2    0    0  0.00000000000E+00  0.00000000000E+00 -0.69633605669E+02  0.14308771115E+03  0.12500101616E+03 0.  0.
        -11    1    3    3    0    0 -0.60933656865E+02 -0.11127915404E+02 -0.44364694985E+02  0.76190335355E+02  0.51100000000E-03 0.  1.
         11    1    3    3    0    0  0.60933656865E+02  0.11127915404E+02 -0.25268910684E+02  0.66897375790E+02  0.51100000000E-03 0. -1.
<mgrwt>
<rscale>  0 0.12500102E+03</rscale>
<asrwt>0</asrwt>
<pdfrwt beam="1">  1        4 0.56503159E-02 0.12500102E+03</pdfrwt>
<pdfrwt beam="2">  1       -4 0.16363178E-01 0.12500102E+03</pdfrwt>
<totfact> 0.10069757E+04</totfact>
</mgrwt>
</event>
<event>
 5    1  0.3296574E-054  0.1250024E+03  0.7818608E-02  0.1235066E+00
          4   -1    0    0  501    0  0.00000000000E+00  0.00000000000E+00  0.33662265074E+03  0.33662564577E+03  0.14200000000E+01 0.  1.
         -4   -1    0    0    0  501 -0.00000000000E+00 -0.00000000000E+00 -0.11558182864E+02  0.11645084418E+02  0.14200000000E+01 0. -1.
         25    2    1    2    0    0  0.00000000000E+00  0.00000000000E+00  0.32506446788E+03  0.34827073019E+03  0.12500237290E+03 0.  0.
        -11    1    3    3    0    0 -0.22061919596E+02 -0.55529861863E+02  0.11145400241E+03  0.12646062039E+03  0.51100000000E-03 0. -1.
         11    1    3    3    0    0  0.22061919596E+02  0.55529861863E+02  0.21361046546E+03  0.22181010980E+03  0.51100000000E-03 0.  1.
<mgrwt>
<rscale>  0 0.12500237E+03</rscale>
<asrwt>0</asrwt>
<pdfrwt beam="1">  1        4 0.51795017E-01 0.12500237E+03</pdfrwt>
<pdfrwt beam="2">  1       -4 0.17850970E-02 0.12500237E+03</pdfrwt>
<totfact> 0.69911542E+03</totfact>
</mgrwt>
</event>
<event>
 5    1  0.3296574E-054  0.1250037E+03  0.7818608E-02  0.1235063E+00
         -4   -1    0    0    0  501 -0.00000000000E+00  0.00000000000E+00  0.50083581580E+02  0.50103707886E+02  0.14200000000E+01 0. -1.
          4   -1    0    0  501    0  0.00000000000E+00 -0.00000000000E+00 -0.77957035576E+02  0.77969967268E+02  0.14200000000E+01 0.  1.
         25    2    1    2    0    0  0.00000000000E+00  0.00000000000E+00 -0.27873453996E+02  0.12807367515E+03  0.12500374726E+03 0.  0.
        -11    1    3    3    0    0 -0.61516956909E+02  0.57232443927E+01 -0.42497593003E+01  0.61928603795E+02  0.51100000000E-03 0. -1.
         11    1    3    3    0    0  0.61516956909E+02 -0.57232443927E+01 -0.23623694695E+02  0.66145071358E+02  0.51100000000E-03 0.  1.
<mgrwt>
<rscale>  0 0.12500375E+03</rscale>
<asrwt>0</asrwt>
<pdfrwt beam="2">  1        4 0.11995933E-01 0.12500375E+03</pdfrwt>
<pdfrwt beam="1">  1       -4 0.77077093E-02 0.12500375E+03</pdfrwt>
<totfact> 0.10385018E+04</totfact>
</mgrwt>
</event>
<event>
 5    1  0.3296574E-054  0.1250011E+03  0.7818608E-02  0.1235068E+00
          4   -1    0    0  501    0  0.00000000000E+00  0.00000000000E+00  0.26273882739E+03  0.26274266463E+03  0.14200000000E+01 0. -1.
         -4   -1    0    0    0  501 -0.00000000000E+00 -0.00000000000E+00 -0.14829830325E+02  0.14897659799E+02  0.14200000000E+01 0.  1.
         25    2    1    2    0    0  0.00000000000E+00  0.00000000000E+00  0.24790899706E+03  0.27764032443E+03  0.12500111569E+03 0.  0.
        -11    1    3    3    0    0  0.37724184777E+02 -0.28977697407E+02  0.33910798614E+02  0.58418861056E+02  0.51100000000E-03 0.  1.
         11    1    3    3    0    0 -0.37724184777E+02  0.28977697407E+02  0.21399819845E+03  0.21922146337E+03  0.51100000000E-03 0. -1.
<mgrwt>
<rscale>  0 0.12500112E+03</rscale>
<asrwt>0</asrwt>
<pdfrwt beam="1">  1        4 0.40426873E-01 0.12500112E+03</pdfrwt>
<pdfrwt beam="2">  1       -4 0.22870251E-02 0.12500112E+03</pdfrwt>
<totfact> 0.78490075E+03</totfact>
</mgrwt>
</event>
<event>
 5    1  0.3296574E-054  0.1250008E+03  0.7818608E-02  0.1235068E+00
         -4   -1    0    0    0  501 -0.00000000000E+00  0.00000000000E+00  0.28536023134E+03  0.28536376439E+03  0.14200000000E+01 0.  1.
          4   -1    0    0  501    0  0.00000000000E+00 -0.00000000000E+00 -0.13648566338E+02  0.13722236081E+02  0.14200000000E+01 0. -1.
         25    2    1    2    0    0  0.00000000000E+00  0.00000000000E+00  0.27171166500E+03  0.29908600047E+03  0.12500082713E+03 0.  0.
        -11    1    3    3    0    0  0.26394311181E+02  0.34047358025E+02  0.27511910132E+02  0.51115432606E+02  0.51100000000E-03 0. -1.
         11    1    3    3    0    0 -0.26394311181E+02 -0.34047358025E+02  0.24419975487E+03  0.24797056787E+03  0.51100000000E-03 0.  1.
<mgrwt>
<rscale>  0 0.12500083E+03</rscale>
<asrwt>0</asrwt>
<pdfrwt beam="2">  1        4 0.21057181E-02 0.12500083E+03</pdfrwt>
<pdfrwt beam="1">  1       -4 0.43907512E-01 0.12500083E+03</pdfrwt>
<totfact> 0.75712241E+03</totfact>
</mgrwt>
</event>
<event>
 5    1  0.3296574E-054  0.1249865E+03  0.7818608E-02  0.1235090E+00
          4   -1    0    0  501    0  0.00000000000E+00  0.00000000000E+00  0.85257025999E+02  0.85268850597E+02  0.14200000000E+01 0. -1.
         -4   -1    0    0    0  501 -0.00000000000E+00 -0.00000000000E+00 -0.45781449399E+02  0.45803466125E+02  0.14200000000E+01 0.  1.
         25    2    1    2    0    0  0.00000000000E+00  0.00000000000E+00  0.39475576600E+02  0.13107231672E+03  0.12498652353E+03 0.  0.
        -11    1    3    3    0    0 -0.45195273724E+02  0.40151925550E+02  0.31360406849E+01  0.60536143285E+02  0.51100000000E-03 0.  1.
         11    1    3    3    0    0  0.45195273724E+02 -0.40151925550E+02  0.36339535915E+02  0.70536173437E+02  0.51100000000E-03 0. -1.
<mgrwt>
<rscale>  0 0.12498652E+03</rscale>
<asrwt>0</asrwt>
<pdfrwt beam="1">  1        4 0.13119069E-01 0.12498652E+03</pdfrwt>
<pdfrwt beam="2">  1       -4 0.70459031E-02 0.12498652E+03</pdfrwt>
<totfact> 0.10324678E+04</totfact>
</mgrwt>
</event>
<event>
 5    1  0.3296574E-054  0.1249991E+03  0.7818608E-02  0.1235071E+00
          4   -1    0    0  501    0  0.00000000000E+00  0.00000000000E+00  0.48337113622E+02  0.48357966803E+02  0.14200000000E+01 0. -1.
         -4   -1    0    0    0  501 -0.00000000000E+00 -0.00000000000E+00 -0.80766914006E+02  0.80779395876E+02  0.14200000000E+01 0.  1.
         25    2    1    2    0    0  0.00000000000E+00  0.00000000000E+00 -0.32429800384E+02  0.12913736268E+03  0.12499906594E+03 0.  0.
        -11    1    3    3    0    0 -0.23991974000E+02 -0.57588506722E+02 -0.20099806735E+02  0.65544283915E+02  0.51100000000E-03 0.  1.
         11    1    3    3    0    0  0.23991974000E+02  0.57588506722E+02 -0.12329993649E+02  0.63593078763E+02  0.51100000000E-03 0. -1.
<mgrwt>
<rscale>  0 0.12499907E+03</rscale>
<asrwt>0</asrwt>
<pdfrwt beam="1">  1        4 0.74390432E-02 0.12499907E+03</pdfrwt>
<pdfrwt beam="2">  1       -4 0.12428243E-01 0.12499907E+03</pdfrwt>
<totfact> 0.10363215E+04</totfact>
</mgrwt>
</event>
<event>
 5    1  0.3296574E-054  0.1249998E+03  0.7818608E-02  0.1235070E+00
         -4   -1    0    0    0  501 -0.00000000000E+00  0.00000000000E+00  0.91122346097E+02  0.91133409671E+02  0.14200000000E+01 0.  1.
          4   -1    0    0  501    0  0.00000000000E+00 -0.00000000000E+00 -0.42842602916E+02  0.42866129107E+02  0.14200000000E+01 0. -1.
         25    2    1    2    0    0  0.00000000000E+00  0.00000000000E+00  0.48279743181E+02  0.13399953878E+03  0.12499977116E+03 0.  0.
        -11    1    3    3    0    0 -0.30333597205E+02 -0.26964968843E+02  0.75090800723E+02  0.85357278645E+02  0.51100000000E-03 0.  1.
         11    1    3    3    0    0  0.30333597205E+02  0.26964968843E+02 -0.26811057543E+02  0.48642260134E+02  0.51100000000E-03 0. -1.
<mgrwt>
<rscale>  0 0.12499977E+03</rscale>
<asrwt>0</asrwt>
<pdfrwt beam="2">  1        4 0.65938304E-02 0.12499977E+03</pdfrwt>
<pdfrwt beam="1">  1       -4 0.14021483E-01 0.12499977E+03</pdfrwt>
<totfact> 0.10259254E+04</totfact>
</mgrwt>
</event>
<event>
 5    1  0.3296574E-054  0.1249964E+03  0.7818608E-02  0.1235075E+00
         -4   -1    0    0    0  501 -0.00000000000E+00  0.00000000000E+00  0.34695894327E+02  0.34724940362E+02  0.14200000000E+01 0.  1.
          4   -1    0    0  501    0  0.00000000000E+00 -0.00000000000E+00 -0.11249822305E+03  0.11250718461E+03  0.14200000000E+01 0. -1.
         25    2    1    2    0    0  0.00000000000E+00  0.00000000000E+00 -0.77802328725E+02  0.14723212498E+03  0.12499638503E+03 0.  0.
        -11    1    3    3    0    0 -0.33796478244E+01 -0.56182631047E+02 -0.68999209406E+01  0.56705546114E+02  0.51100000000E-03 0.  1.
         11    1    3    3    0    0  0.33796478244E+01  0.56182631047E+02 -0.70902407785E+02  0.90526578864E+02  0.51100000000E-03 0. -1.
<mgrwt>
<rscale>  0 0.12499639E+03</rscale>
<asrwt>0</asrwt>
<pdfrwt beam="2">  1        4 0.17310342E-01 0.12499639E+03</pdfrwt>
<pdfrwt beam="1">  1       -4 0.53407536E-02 0.12499639E+03</pdfrwt>
<totfact> 0.99866449E+03</totfact>
</mgrwt>
</event>
<event>
 5    1  0.3296574E-054  0.1249996E+03  0.7818608E-02  0.1235070E+00
         -4   -1    0    0    0  501 -0.00000000000E+00  0.00000000000E+00  0.39767068477E+02  0.39792413036E+02  0.14200000000E+01 0.  1.
          4   -1    0    0  501    0  0.00000000000E+00 -0.00000000000E+00 -0.98165912515E+02  0.98176182345E+02  0.14200000000E+01 0. -1.
         25    2    1    2    0    0  0.00000000000E+00  0.00000000000E+00 -0.58398844038E+02  0.13796859538E+03  0.12499963331E+03 0.  0.
        -11    1    3    3    0    0 -0.60458768153E+02  0.15419564469E+02 -0.33209774910E+02  0.70681785241E+02  0.51100000000E-03 0.  1.
         11    1    3    3    0    0  0.60458768153E+02 -0.15419564469E+02 -0.25189069129E+02  0.67286810140E+02  0.51100000000E-03 0. -1.
<mgrwt>
<rscale>  0 0.12499963E+03</rscale>
<asrwt>0</asrwt>
<pdfrwt beam="2">  1        4 0.15105188E-01 0.12499963E+03</pdfrwt>
<pdfrwt beam="1">  1       -4 0.61207501E-02 0.12499963E+03</pdfrwt>
<totfact> 0.10175946E+04</totfact>
</mgrwt>
</event>
<event>
 5    1  0.3296574E-054  0.1250031E+03  0.7818608E-02  0.1235065E+00
         -4   -1    0    0    0  501 -0.00000000000E+00  0.00000000000E+00  0.19787167705E+03  0.19787677221E+03  0.14200000000E+01 0.  1.
          4   -1    0    0  501    0  0.00000000000E+00 -0.00000000000E+00 -0.19711402931E+02  0.19762484801E+02  0.14200000000E+01 0. -1.
         25    2    1    2    0    0  0.00000000000E+00  0.00000000000E+00  0.17816027412E+03  0.21763925701E+03  0.12500305163E+03 0.  0.
        -11    1    3    3    0    0  0.17983737379E+02  0.55945209555E+02  0.12614327092E+03  0.13915964243E+03  0.51100000000E-03 0.  1.
         11    1    3    3    0    0 -0.17983737379E+02 -0.55945209555E+02  0.52017003200E+02  0.78479614579E+02  0.51100000000E-03 0. -1.
<mgrwt>
<rscale>  0 0.12500305E+03</rscale>
<asrwt>0</asrwt>
<pdfrwt beam="2">  1        4 0.30368448E-02 0.12500305E+03</pdfrwt>
<pdfrwt beam="1">  1       -4 0.30446118E-01 0.12500305E+03</pdfrwt>
<totfact> 0.87237342E+03</totfact>
</mgrwt>
</event>
<event>
 5    1  0.3296574E-054  0.1250052E+03  0.7818608E-02  0.1235061E+00
         -4   -1    0    0    0  501 -0.00000000000E+00  0.00000000000E+00  0.10803072768E+03  0.10804005980E+03  0.14200000000E+01 0. -1.
          4   -1    0    0  501    0  0.00000000000E+00 -0.00000000000E+00 -0.36136838354E+02  0.36164727100E+02  0.14200000000E+01 0.  1.
         25    2    1    2    0    0  0.00000000000E+00  0.00000000000E+00  0.71893889322E+02  0.14420478690E+03  0.12500515687E+03 0.  0.
        -11    1    3    3    0    0 -0.58058416558E+02  0.23319400458E+01  0.93804086232E+01  0.58857537698E+02  0.51100000000E-03 0. -1.
         11    1    3    3    0    0  0.58058416558E+02 -0.23319400458E+01  0.62513480698E+02  0.85347249205E+02  0.51100000000E-03 0.  1.
<mgrwt>
<rscale>  0 0.12500516E+03</rscale>
<asrwt>0</asrwt>
<pdfrwt beam="2">  1        4 0.55623768E-02 0.12500516E+03</pdfrwt>
<pdfrwt beam="1">  1       -4 0.16622975E-01 0.12500516E+03</pdfrwt>
<totfact> 0.10046004E+04</totfact>
</mgrwt>
</event>
<event>
 5    1  0.3296574E-054  0.1249983E+03  0.7818608E-02  0.1235072E+00
         -4   -1    0    0    0  501 -0.00000000000E+00  0.00000000000E+00  0.24349514130E+02  0.24390884329E+02  0.14200000000E+01 0.  1.
          4   -1    0    0  501    0  0.00000000000E+00 -0.00000000000E+00 -0.16023903754E+03  0.16024532926E+03  0.14200000000E+01 0. -1.
         25    2    1    2    0    0  0.00000000000E+00  0.00000000000E+00 -0.13588952341E+03  0.18463621359E+03  0.12499827518E+03 0.  0.
        -11    1    3    3    0    0  0.26425830096E+02  0.53498311874E+02 -0.40478920158E+02  0.72103653494E+02  0.51100000000E-03 0.  1.
         11    1    3    3    0    0 -0.26425830096E+02 -0.53498311874E+02 -0.95410603247E+02  0.11253256010E+03  0.51100000000E-03 0. -1.
<mgrwt>
<rscale>  0 0.12499828E+03</rscale>
<asrwt>0</asrwt>
<pdfrwt beam="2">  1        4 0.24655825E-01 0.12499828E+03</pdfrwt>
<pdfrwt beam="1">  1       -4 0.37497455E-02 0.12499828E+03</pdfrwt>
<totfact> 0.92792651E+03</totfact>
</mgrwt>
</event>
<event>
 5    1  0.3296574E-054  0.1250129E+03  0.7818608E-02  0.1235049E+00
          4   -1    0    0  501    0  0.00000000000E+00  0.00000000000E+00  0.13315976464E+02  0.13391475990E+02  0.14200000000E+01 0.  1.
         -4   -1    0    0    0  501 -0.00000000000E+00 -0.00000000000E+00 -0.29250445011E+03  0.29250789687E+03  0.14200000000E+01 0. -1.
         25    2    1    2    0    0  0.00000000000E+00  0.00000000000E+00 -0.27918847364E+03  0.30589937286E+03  0.12501288934E+03 0.  0.
        -11    1    3    3    0    0 -0.11794395648E+02 -0.53808070281E+02 -0.21187807581E+03  0.21892175590E+03  0.51100000000E-03 0. -1.
         11    1    3    3    0    0  0.11794395648E+02  0.53808070281E+02 -0.67310397832E+02  0.86977616964E+02  0.51100000000E-03 0.  1.
<mgrwt>
<rscale>  0 0.12501289E+03</rscale>
<asrwt>0</asrwt>
<pdfrwt beam="1">  1        4 0.20546848E-02 0.12501289E+03</pdfrwt>
<pdfrwt beam="2">  1       -4 0.45006753E-01 0.12501289E+03</pdfrwt>
<totfact> 0.74843334E+03</totfact>
</mgrwt>
</event>
<event>
 5    1  0.3296574E-054  0.1249995E+03  0.7818608E-02  0.1235070E+00
          4   -1    0    0  501    0  0.00000000000E+00  0.00000000000E+00  0.35816155731E+03  0.35816437223E+03  0.14200000000E+01 0.  1.
         -4   -1    0    0    0  501 -0.00000000000E+00 -0.00000000000E+00 -0.10857209161E+02  0.10949675373E+02  0.14200000000E+01 0. -1.
         25    2    1    2    0    0  0.00000000000E+00  0.00000000000E+00  0.34730434815E+03  0.36911404760E+03  0.12499947958E+03 0.  0.
        -11    1    3    3    0    0 -0.28730471797E+02  0.41755617060E+02  0.65668522967E+02  0.82953761064E+02  0.51100000000E-03 0. -1.
         11    1    3    3    0    0  0.28730471797E+02 -0.41755617060E+02  0.28163582518E+03  0.28616028654E+03  0.51100000000E-03 0.  1.
<mgrwt>
<rscale>  0 0.12499948E+03</rscale>
<asrwt>0</asrwt>
<pdfrwt beam="1">  1        4 0.55109116E-01 0.12499948E+03</pdfrwt>
<pdfrwt beam="2">  1       -4 0.16776689E-02 0.12499948E+03</pdfrwt>
<totfact> 0.67672497E+03</totfact>
</mgrwt>
</event>
<event>
 5    1  0.5995733E-054  0.1250029E+03  0.7818608E-02  0.1235065E+00
         -4   -1    0    0    0  501 -0.00000000000E+00  0.00000000000E+00  0.14527196674E+03  0.14527890666E+03  0.14200000000E+01 0. -1.
          4   -1    0    0  501    0  0.00000000000E+00 -0.00000000000E+00 -0.26864146132E+02  0.26901649529E+02  0.14200000000E+01 0.  1.
         25    2    1    2    0    0  0.00000000000E+00  0.00000000000E+00  0.11840782061E+03  0.17218055619E+03  0.12500292776E+03 0.  0.
        -11    1    3    3    0    0 -0.34928769742E+02 -0.51597491392E+02  0.65967679242E+02  0.90741692614E+02  0.51100000000E-03 0. -1.
         11    1    3    3    0    0  0.34928769742E+02  0.51597491392E+02  0.52440141365E+02  0.81438863574E+02  0.51100000000E-03 0.  1.
<mgrwt>
<rscale>  0 0.12500293E+03</rscale>
<asrwt>0</asrwt>
<pdfrwt beam="2">  1        4 0.41363643E-02 0.12500293E+03</pdfrwt>
<pdfrwt beam="1">  1       -4 0.22352952E-01 0.12500293E+03</pdfrwt>
<totfact> 0.95037522E+03</totfact>
</mgrwt>
</event>
<event>
 5    1  0.3296574E-054  0.1250007E+03  0.7818608E-02  0.1235068E+00
         -4   -1    0    0    0  501 -0.00000000000E+00  0.00000000000E+00  0.19135363024E+03  0.19135889895E+03  0.14200000000E+01 0. -1.
          4   -1    0    0  501    0  0.00000000000E+00 -0.00000000000E+00 -0.20383754934E+02  0.20433156027E+02  0.14200000000E+01 0.  1.
         25    2    1    2    0    0  0.00000000000E+00  0.00000000000E+00  0.17096987531E+03  0.21179205497E+03  0.12500070515E+03 0.  0.
        -11    1    3    3    0    0 -0.28521499002E+02 -0.55146261570E+02  0.97668550110E+02  0.11573129115E+03  0.51100000000E-03 0. -1.
         11    1    3    3    0    0  0.28521499002E+02  0.55146261570E+02  0.73301325195E+02  0.96060763822E+02  0.51100000000E-03 0.  1.
<mgrwt>
<rscale>  0 0.12500071E+03</rscale>
<asrwt>0</asrwt>
<pdfrwt beam="2">  1        4 0.31401678E-02 0.12500071E+03</pdfrwt>
<pdfrwt beam="1">  1       -4 0.29443225E-01 0.12500071E+03</pdfrwt>
<totfact> 0.88182659E+03</totfact>
</mgrwt>
</event>
<event>
 5    1  0.3296574E-054  0.1249946E+03  0.7818608E-02  0.1235078E+00
          4   -1    0    0  501    0  0.00000000000E+00  0.00000000000E+00  0.12261266427E+02  0.12343218964E+02  0.14200000000E+01 0.  1.
         -4   -1    0    0    0  501 -0.00000000000E+00 -0.00000000000E+00 -0.31741232733E+03  0.31741550363E+03  0.14200000000E+01 0. -1.
         25    2    1    2    0    0  0.00000000000E+00  0.00000000000E+00 -0.30515106091E+03  0.32975872259E+03  0.12499458049E+03 0.  0.
        -11    1    3    3    0    0 -0.50283361036E+02 -0.77970920229E+01 -0.24830564251E+03  0.25346578298E+03  0.51100000000E-03 0. -1.
         11    1    3    3    0    0  0.50283361036E+02  0.77970920229E+01 -0.56845418398E+02  0.76292939609E+02  0.51100000000E-03 0.  1.
<mgrwt>
<rscale>  0 0.12499458E+03</rscale>
<asrwt>0</asrwt>
<pdfrwt beam="1">  1        4 0.18928973E-02 0.12499458E+03</pdfrwt>
<pdfrwt beam="2">  1       -4 0.48839208E-01 0.12499458E+03</pdfrwt>
<totfact> 0.72018942E+03</totfact>
</mgrwt>
</event>
<event>
 5    1  0.3296574E-054  0.1249991E+03  0.7818608E-02  0.1235071E+00
         -4   -1    0    0    0  501 -0.00000000000E+00  0.00000000000E+00  0.50845900576E+02  0.50865725252E+02  0.14200000000E+01 0.  1.
          4   -1    0    0  501    0  0.00000000000E+00 -0.00000000000E+00 -0.76782768888E+02  0.76795898316E+02  0.14200000000E+01 0. -1.
         25    2    1    2    0    0  0.00000000000E+00  0.00000000000E+00 -0.25936868312E+02  0.12766162357E+03  0.12499907597E+03 0.  0.
        -11    1    3    3    0    0 -0.62440648028E+02 -0.16011266116E+01 -0.15204619588E+02  0.64285135060E+02  0.51100000000E-03 0.  1.
         11    1    3    3    0    0  0.62440648028E+02  0.16011266116E+01 -0.10732248724E+02  0.63376488508E+02  0.51100000000E-03 0. -1.
<mgrwt>
<rscale>  0 0.12499908E+03</rscale>
<asrwt>0</asrwt>
<pdfrwt beam="2">  1        4 0.11815269E-01 0.12499908E+03</pdfrwt>
<pdfrwt beam="1">  1       -4 0.78249812E-02 0.12499908E+03</pdfrwt>
<totfact> 0.10395019E+04</totfact>
</mgrwt>
</event>
<event>
 5    1  0.3296574E-054  0.1250033E+03  0.7818608E-02  0.1235064E+00
          4   -1    0    0  501    0  0.00000000000E+00  0.00000000000E+00  0.14335415334E+02  0.14405572977E+02  0.14200000000E+01 0.  1.
         -4   -1    0    0    0  501 -0.00000000000E+00 -0.00000000000E+00 -0.27176660925E+03  0.27177031902E+03  0.14200000000E+01 0. -1.
         25    2    1    2    0    0  0.00000000000E+00  0.00000000000E+00 -0.25743119391E+03  0.28617589200E+03  0.12500328621E+03 0.  0.
        -11    1    3    3    0    0  0.33600138968E+02 -0.28377971780E+02 -0.23038365643E+03  0.23454404228E+03  0.51100000000E-03 0. -1.
         11    1    3    3    0    0 -0.33600138968E+02  0.28377971780E+02 -0.27047537486E+02  0.51631849718E+02  0.51100000000E-03 0.  1.
<mgrwt>
<rscale>  0 0.12500329E+03</rscale>
<asrwt>0</asrwt>
<pdfrwt beam="1">  1        4 0.22111308E-02 0.12500329E+03</pdfrwt>
<pdfrwt beam="2">  1       -4 0.41815926E-01 0.12500329E+03</pdfrwt>
<totfact> 0.77360642E+03</totfact>
</mgrwt>
</event>
<event>
 5    1  0.3314916E-054  0.1250004E+03  0.7818608E-02  0.1235069E+00
          4   -1    0    0  501    0  0.00000000000E+00  0.00000000000E+00  0.14767208967E+02  0.14835324758E+02  0.14200000000E+01 0.  1.
         -4   -1    0    0    0  501 -0.00000000000E+00 -0.00000000000E+00 -0.26384506611E+03  0.26384888726E+03  0.14200000000E+01 0. -1.
         25    2    1    2    0    0  0.00000000000E+00  0.00000000000E+00 -0.24907785714E+03  0.27868421202E+03  0.12500044445E+03 0.  0.
        -11    1    3    3    0    0  0.54295819920E+02 -0.29049971852E+02 -0.14837866893E+03  0.16064920268E+03  0.51100000000E-03 0. -1.
         11    1    3    3    0    0 -0.54295819920E+02  0.29049971852E+02 -0.10069918821E+03  0.11803500934E+03  0.51100000000E-03 0.  1.
<mgrwt>
<rscale>  0 0.12500044E+03</rscale>
<asrwt>0</asrwt>
<pdfrwt beam="1">  1        4 0.22774121E-02 0.12500044E+03</pdfrwt>
<pdfrwt beam="2">  1       -4 0.40597079E-01 0.12500044E+03</pdfrwt>
<totfact> 0.78352121E+03</totfact>
</mgrwt>
</event>
<event>
 5    1  0.3296574E-054  0.1249986E+03  0.7818608E-02  0.1235071E+00
         -4   -1    0    0    0  501 -0.00000000000E+00  0.00000000000E+00  0.54506441009E+02  0.54524934768E+02  0.14200000000E+01 0. -1.
          4   -1    0    0  501    0  0.00000000000E+00 -0.00000000000E+00 -0.71626534221E+02  0.71640608627E+02  0.14200000000E+01 0.  1.
         25    2    1    2    0    0  0.00000000000E+00  0.00000000000E+00 -0.17120093212E+02  0.12616554339E+03  0.12499858699E+03 0.  0.
        -11    1    3    3    0    0  0.35323400813E+02  0.30132854997E+02  0.33668685698E+02  0.57352523852E+02  0.51100000000E-03 0. -1.
         11    1    3    3    0    0 -0.35323400813E+02 -0.30132854997E+02 -0.50788778910E+02  0.68813019543E+02  0.51100000000E-03 0.  1.
<mgrwt>
<rscale>  0 0.12499859E+03</rscale>
<asrwt>0</asrwt>
<pdfrwt beam="2">  1        4 0.11021972E-01 0.12499859E+03</pdfrwt>
<pdfrwt beam="1">  1       -4 0.83881115E-02 0.12499859E+03</pdfrwt>
<totfact> 0.10427665E+04</totfact>
</mgrwt>
</event>
<event>
 5    1  0.3296574E-054  0.1250005E+03  0.7818608E-02  0.1235068E+00
          4   -1    0    0  501    0  0.00000000000E+00  0.00000000000E+00  0.90684937215E+02  0.90696054146E+02  0.14200000000E+01 0. -1.
         -4   -1    0    0    0  501 -0.00000000000E+00 -0.00000000000E+00 -0.43049861164E+02  0.43073274153E+02  0.14200000000E+01 0.  1.
         25    2    1    2    0    0  0.00000000000E+00  0.00000000000E+00  0.47635076051E+02  0.13376932830E+03  0.12500053089E+03 0.  0.
        -11    1    3    3    0    0  0.55779136272E+02  0.22544357361E+02  0.41938281898E+02  0.73337436421E+02  0.51100000000E-03 0.  1.
         11    1    3    3    0    0 -0.55779136272E+02 -0.22544357361E+02  0.56967941527E+01  0.60431891878E+02  0.51100000000E-03 0. -1.
<mgrwt>
<rscale>  0 0.12500053E+03</rscale>
<asrwt>0</asrwt>
<pdfrwt beam="1">  1        4 0.13954185E-01 0.12500053E+03</pdfrwt>
<pdfrwt beam="2">  1       -4 0.66257118E-02 0.12500053E+03</pdfrwt>
<totfact> 0.10263953E+04</totfact>
</mgrwt>
</event>
<event>
 5    1  0.3296574E-054  0.1249971E+03  0.7818608E-02  0.1235074E+00
          4   -1    0    0  501    0  0.00000000000E+00  0.00000000000E+00  0.26437458493E+03  0.26437839843E+03  0.14200000000E+01 0. -1.
         -4   -1    0    0    0  501 -0.00000000000E+00 -0.00000000000E+00 -0.14736697573E+02  0.14804953744E+02  0.14200000000E+01 0.  1.
         25    2    1    2    0    0  0.00000000000E+00  0.00000000000E+00  0.24963788736E+03  0.27918335218E+03  0.12499707728E+03 0.  0.
        -11    1    3    3    0    0  0.16006611301E+02 -0.60197929129E+02  0.11341594746E+03  0.12939543815E+03  0.51100000000E-03 0.  1.
         11    1    3    3    0    0 -0.16006611301E+02  0.60197929129E+02  0.13622193990E+03  0.14978791402E+03  0.51100000000E-03 0. -1.
<mgrwt>
<rscale>  0 0.12499708E+03</rscale>
<asrwt>0</asrwt>
<pdfrwt beam="1">  1        4 0.40678555E-01 0.12499708E+03</pdfrwt>
<pdfrwt beam="2">  1       -4 0.22727282E-02 0.12499708E+03</pdfrwt>
<totfact> 0.78291598E+03</totfact>
</mgrwt>
</event>
<event>
 5    1  0.3296574E-054  0.1249991E+03  0.7818608E-02  0.1235071E+00
          4   -1    0    0  501    0  0.00000000000E+00  0.00000000000E+00  0.12900809586E+03  0.12901591064E+03  0.14200000000E+01 0. -1.
         -4   -1    0    0    0  501 -0.00000000000E+00 -0.00000000000E+00 -0.30253289888E+02  0.30286596855E+02  0.14200000000E+01 0.  1.
         25    2    1    2    0    0  0.00000000000E+00  0.00000000000E+00  0.98754805973E+02  0.15930250749E+03  0.12499910876E+03 0.  0.
        -11    1    3    3    0    0 -0.44980607327E+01  0.62241574492E+02  0.44972198614E+02  0.76920379576E+02  0.51100000000E-03 0.  1.
         11    1    3    3    0    0  0.44980607327E+01 -0.62241574492E+02  0.53782607359E+02  0.82382127917E+02  0.51100000000E-03 0. -1.
<mgrwt>
<rscale>  0 0.12499911E+03</rscale>
<asrwt>0</asrwt>
<pdfrwt beam="1">  1        4 0.19850563E-01 0.12499911E+03</pdfrwt>
<pdfrwt beam="2">  1       -4 0.46575155E-02 0.12499911E+03</pdfrwt>
<totfact> 0.97479377E+03</totfact>
</mgrwt>
</event>
<event>
 5    1  0.3296574E-054  0.1250033E+03  0.7818608E-02  0.1235064E+00
          4   -1    0    0  501    0  0.00000000000E+00  0.00000000000E+00  0.67164537101E+02  0.67179546322E+02  0.14200000000E+01 0.  1.
         -4   -1    0    0    0  501 -0.00000000000E+00 -0.00000000000E+00 -0.58132288152E+02  0.58149628767E+02  0.14200000000E+01 0. -1.
         25    2    1    2    0    0  0.00000000000E+00  0.00000000000E+00  0.90322489496E+01  0.12532917509E+03  0.12500328239E+03 0.  0.
        -11    1    3    3    0    0 -0.91820637789E+01 -0.61751286799E+02  0.15211246706E+01  0.62448743278E+02  0.51100000000E-03 0. -1.
         11    1    3    3    0    0  0.91820637789E+01  0.61751286799E+02  0.75111242790E+01  0.62880431811E+02  0.51100000000E-03 0.  1.
<mgrwt>
<rscale>  0 0.12500328E+03</rscale>
<asrwt>0</asrwt>
<pdfrwt beam="1">  1        4 0.10335494E-01 0.12500328E+03</pdfrwt>
<pdfrwt beam="2">  1       -4 0.89459175E-02 0.12500328E+03</pdfrwt>
<totfact> 0.10444942E+04</totfact>
</mgrwt>
</event>
<event>
 5    1  0.3296574E-054  0.1250001E+03  0.7818608E-02  0.1235069E+00
         -4   -1    0    0    0  501 -0.00000000000E+00  0.00000000000E+00  0.14320686802E+03  0.14321390802E+03  0.14200000000E+01 0.  1.
          4   -1    0    0  501    0  0.00000000000E+00 -0.00000000000E+00 -0.27250800226E+02  0.27287772224E+02  0.14200000000E+01 0. -1.
         25    2    1    2    0    0  0.00000000000E+00  0.00000000000E+00  0.11595606780E+03  0.17050168024E+03  0.12500005322E+03 0.  0.
        -11    1    3    3    0    0  0.11662315170E+02 -0.26602709794E+02  0.13346280095E+03  0.13658708944E+03  0.51100000000E-03 0.  1.
         11    1    3    3    0    0 -0.11662315170E+02  0.26602709794E+02 -0.17506733151E+02  0.33914590804E+02  0.51100000000E-03 0. -1.
<mgrwt>
<rscale>  0 0.12500005E+03</rscale>
<asrwt>0</asrwt>
<pdfrwt beam="2">  1        4 0.41958164E-02 0.12500005E+03</pdfrwt>
<pdfrwt beam="1">  1       -4 0.22035211E-01 0.12500005E+03</pdfrwt>
<totfact> 0.95355099E+03</totfact>
</mgrwt>
</event>
<event>
 5    1  0.3296574E-054  0.1250067E+03  0.7818608E-02  0.1235059E+00
         -4   -1    0    0    0  501 -0.00000000000E+00  0.00000000000E+00  0.12614474338E+03  0.12615273554E+03  0.14200000000E+01 0.  1.
          4   -1    0    0  501    0  0.00000000000E+00 -0.00000000000E+00 -0.30944485943E+02  0.30977049734E+02  0.14200000000E+01 0. -1.
         25    2    1    2    0    0  0.00000000000E+00  0.00000000000E+00  0.95200257440E+02  0.15712978527E+03  0.12500672143E+03 0.  0.
        -11    1    3    3    0    0 -0.38147266141E+02  0.48951619877E+02  0.56938591775E+02  0.84222789293E+02  0.51100000000E-03 0.  1.
         11    1    3    3    0    0  0.38147266141E+02 -0.48951619877E+02  0.38261665665E+02  0.72906995977E+02  0.51100000000E-03 0. -1.
<mgrwt>
<rscale>  0 0.12500672E+03</rscale>
<asrwt>0</asrwt>
<pdfrwt beam="2">  1        4 0.47638099E-02 0.12500672E+03</pdfrwt>
<pdfrwt beam="1">  1       -4 0.19410003E-01 0.12500672E+03</pdfrwt>
<totfact> 0.97884217E+03</totfact>
</mgrwt>
</event>
<event>
 5    1  0.3296574E-054  0.1249995E+03  0.7818608E-02  0.1235070E+00
         -4   -1    0    0    0  501 -0.00000000000E+00  0.00000000000E+00  0.69489636972E+02  0.69504144095E+02  0.14200000000E+01 0. -1.
          4   -1    0    0  501    0  0.00000000000E+00 -0.00000000000E+00 -0.56183640373E+02  0.56201582234E+02  0.14200000000E+01 0.  1.
         25    2    1    2    0    0  0.00000000000E+00  0.00000000000E+00  0.13305996598E+02  0.12570572633E+03  0.12499952034E+03 0.  0.
        -11    1    3    3    0    0 -0.19712318641E+02  0.59309689707E+02  0.65803265626E+01  0.62845170835E+02  0.51100000000E-03 0. -1.
         11    1    3    3    0    0  0.19712318641E+02 -0.59309689707E+02  0.67256700359E+01  0.62860555494E+02  0.51100000000E-03 0.  1.
<mgrwt>
<rscale>  0 0.12499952E+03</rscale>
<asrwt>0</asrwt>
<pdfrwt beam="2">  1        4 0.86461330E-02 0.12499952E+03</pdfrwt>
<pdfrwt beam="1">  1       -4 0.10693210E-01 0.12499952E+03</pdfrwt>
<totfact> 0.10437531E+04</totfact>
</mgrwt>
</event>
<event>
 5    1  0.3296574E-054  0.1249990E+03  0.7818608E-02  0.1235071E+00
          4   -1    0    0  501    0  0.00000000000E+00  0.00000000000E+00  0.15937120252E+03  0.15937752850E+03  0.14200000000E+01 0. -1.
         -4   -1    0    0    0  501 -0.00000000000E+00 -0.00000000000E+00 -0.24482613466E+02  0.24523759136E+02  0.14200000000E+01 0.  1.
         25    2    1    2    0    0  0.00000000000E+00  0.00000000000E+00  0.13488858905E+03  0.18390128764E+03  0.12499900855E+03 0.  0.
        -11    1    3    3    0    0 -0.41696440114E+02  0.26262826705E+02  0.10886211638E+02  0.50466214330E+02  0.51100000000E-03 0.  1.
         11    1    3    3    0    0  0.41696440114E+02 -0.26262826705E+02  0.12400237741E+03  0.13343507331E+03  0.51100000000E-03 0. -1.
<mgrwt>
<rscale>  0 0.12499901E+03</rscale>
<asrwt>0</asrwt>
<pdfrwt beam="1">  1        4 0.24522299E-01 0.12499901E+03</pdfrwt>
<pdfrwt beam="2">  1       -4 0.37702074E-02 0.12499901E+03</pdfrwt>
<totfact> 0.92921499E+03</totfact>
</mgrwt>
</event>
<event>
 5    1  0.3296574E-054  0.1250005E+03  0.7818608E-02  0.1235069E+00
          4   -1    0    0  501    0  0.00000000000E+00  0.00000000000E+00  0.40722491214E+02  0.40747241510E+02  0.14200000000E+01 0. -1.
         -4   -1    0    0    0  501 -0.00000000000E+00 -0.00000000000E+00 -0.95865234574E+02  0.95875750844E+02  0.14200000000E+01 0.  1.
         25    2    1    2    0    0  0.00000000000E+00  0.00000000000E+00 -0.55142743360E+02  0.13662299235E+03  0.12500047958E+03 0.  0.
        -11    1    3    3    0    0 -0.70861448028E+01 -0.60207133653E+02 -0.44189250189E+02  0.75018679163E+02  0.51100000000E-03 0.  1.
         11    1    3    3    0    0  0.70861448028E+01  0.60207133653E+02 -0.10953493170E+02  0.61604313191E+02  0.51100000000E-03 0. -1.
<mgrwt>
<rscale>  0 0.12500048E+03</rscale>
<asrwt>0</asrwt>
<pdfrwt beam="1">  1        4 0.62677115E-02 0.12500048E+03</pdfrwt>
<pdfrwt beam="2">  1       -4 0.14751210E-01 0.12500048E+03</pdfrwt>
<totfact> 0.10203864E+04</totfact>
</mgrwt>
</event>
<event>
 5    1  0.3296574E-054  0.1249988E+03  0.7818608E-02  0.1235071E+00
          4   -1    0    0  501    0  0.00000000000E+00  0.00000000000E+00  0.13360472877E+03  0.13361227469E+03  0.14200000000E+01 0. -1.
         -4   -1    0    0    0  501 -0.00000000000E+00 -0.00000000000E+00 -0.29211165619E+02  0.29245659452E+02  0.14200000000E+01 0.  1.
         25    2    1    2    0    0  0.00000000000E+00  0.00000000000E+00  0.10439356315E+03  0.16285793415E+03  0.12499876274E+03 0.  0.
        -11    1    3    3    0    0 -0.43997373638E+02  0.90268349737E+00 -0.56249384312E+01  0.44364666765E+02  0.51100000000E-03 0.  1.
         11    1    3    3    0    0  0.43997373638E+02 -0.90268349737E+00  0.11001850158E+03  0.11849326738E+03  0.51100000000E-03 0. -1.
<mgrwt>
<rscale>  0 0.12499876E+03</rscale>
<asrwt>0</asrwt>
<pdfrwt beam="1">  1        4 0.20557808E-01 0.12499876E+03</pdfrwt>
<pdfrwt beam="2">  1       -4 0.44972593E-02 0.12499876E+03</pdfrwt>
<totfact> 0.96797301E+03</totfact>
</mgrwt>
</event>
<event>
 5    1  0.3296574E-054  0.1249947E+03  0.7818608E-02  0.1235078E+00
          4   -1    0    0  501    0  0.00000000000E+00  0.00000000000E+00  0.21198199163E+02  0.21245706572E+02  0.14200000000E+01 0.  1.
         -4   -1    0    0    0  501 -0.00000000000E+00 -0.00000000000E+00 -0.18400065150E+03  0.18400613075E+03  0.14200000000E+01 0. -1.
         25    2    1    2    0    0  0.00000000000E+00  0.00000000000E+00 -0.16280245234E+03  0.20525183732E+03  0.12499471283E+03 0.  0.
        -11    1    3    3    0    0 -0.19350367111E+02  0.24495771677E+02 -0.17030821811E+03  0.17314551306E+03  0.51100000000E-03 0. -1.
         11    1    3    3    0    0  0.19350367111E+02 -0.24495771677E+02  0.75057657713E+01  0.32106324259E+02  0.51100000000E-03 0.  1.
<mgrwt>
<rscale>  0 0.12499471E+03</rscale>
<asrwt>0</asrwt>
<pdfrwt beam="1">  1        4 0.32653374E-02 0.12499471E+03</pdfrwt>
<pdfrwt beam="2">  1       -4 0.28311867E-01 0.12499471E+03</pdfrwt>
<totfact> 0.89267793E+03</totfact>
</mgrwt>
</event>
<event>
 5    1  0.3296574E-054  0.1249999E+03  0.7818608E-02  0.1235069E+00
          4   -1    0    0  501    0  0.00000000000E+00  0.00000000000E+00  0.11817537422E+03  0.11818390530E+03  0.14200000000E+01 0. -1.
         -4   -1    0    0    0  501 -0.00000000000E+00 -0.00000000000E+00 -0.33029635356E+02  0.33060145368E+02  0.14200000000E+01 0.  1.
         25    2    1    2    0    0  0.00000000000E+00  0.00000000000E+00  0.85145738867E+02  0.15124405067E+03  0.12499986406E+03 0.  0.
        -11    1    3    3    0    0  0.18423347295E+02 -0.57658192208E+02  0.23736619796E+02  0.65017797363E+02  0.51100000000E-03 0.  1.
         11    1    3    3    0    0 -0.18423347295E+02  0.57658192208E+02  0.61409119070E+02  0.86226253308E+02  0.51100000000E-03 0. -1.
<mgrwt>
<rscale>  0 0.12499986E+03</rscale>
<asrwt>0</asrwt>
<pdfrwt beam="1">  1        4 0.18183830E-01 0.12499986E+03</pdfrwt>
<pdfrwt beam="2">  1       -4 0.50844855E-02 0.12499986E+03</pdfrwt>
<totfact> 0.99056594E+03</totfact>
</mgrwt>
</event>
<event>
 5    1  0.3296574E-054  0.1249971E+03  0.7818608E-02  0.1235074E+00
         -4   -1    0    0    0  501 -0.00000000000E+00  0.00000000000E+00  0.15865445225E+03  0.15866080681E+03  0.14200000000E+01 0.  1.
          4   -1    0    0  501    0  0.00000000000E+00 -0.00000000000E+00 -0.24592631333E+02  0.24633593239E+02  0.14200000000E+01 0. -1.
         25    2    1    2    0    0  0.00000000000E+00  0.00000000000E+00  0.13406182091E+03  0.18329440005E+03  0.12499706102E+03 0.  0.
        -11    1    3    3    0    0 -0.34208003800E+02  0.52264178972E+02  0.63978005536E+02  0.89414300424E+02  0.51100000000E-03 0.  1.
         11    1    3    3    0    0  0.34208003800E+02 -0.52264178972E+02  0.70083815378E+02  0.93880099626E+02  0.51100000000E-03 0. -1.
<mgrwt>
<rscale>  0 0.12499706E+03</rscale>
<asrwt>0</asrwt>
<pdfrwt beam="2">  1        4 0.37871215E-02 0.12499706E+03</pdfrwt>
<pdfrwt beam="1">  1       -4 0.24412017E-01 0.12499706E+03</pdfrwt>
<totfact> 0.93033468E+03</totfact>
</mgrwt>
</event>
<event>
 5    1  0.3296574E-054  0.1249995E+03  0.7818608E-02  0.1235070E+00
          4   -1    0    0  501    0  0.00000000000E+00  0.00000000000E+00  0.30111070631E+03  0.30111405456E+03  0.14200000000E+01 0. -1.
         -4   -1    0    0    0  501 -0.00000000000E+00 -0.00000000000E+00 -0.12930400691E+02  0.13008138300E+02  0.14200000000E+01 0.  1.
         25    2    1    2    0    0  0.00000000000E+00  0.00000000000E+00  0.28818030562E+03  0.31412219286E+03  0.12499945401E+03 0.  0.
        -11    1    3    3    0    0 -0.94598278413E+01 -0.61330623318E+02  0.12540558449E+03  0.13991959949E+03  0.51100000000E-03 0.  1.
         11    1    3    3    0    0  0.94598278413E+01  0.61330623318E+02  0.16277472113E+03  0.17420259338E+03  0.51100000000E-03 0. -1.
<mgrwt>
<rscale>  0 0.12499945E+03</rscale>
<asrwt>0</asrwt>
<pdfrwt beam="1">  1        4 0.46330960E-01 0.12499945E+03</pdfrwt>
<pdfrwt beam="2">  1       -4 0.19955298E-02 0.12499945E+03</pdfrwt>
<totfact> 0.73861603E+03</totfact>
</mgrwt>
</event>
<event>
 5    1  0.3296574E-054  0.1250003E+03  0.7818608E-02  0.1235069E+00
          4   -1    0    0  501    0  0.00000000000E+00  0.00000000000E+00  0.86449081488E+02  0.86460743058E+02  0.14200000000E+01 0.  1.
         -4   -1    0    0    0  501 -0.00000000000E+00 -0.00000000000E+00 -0.45159869672E+02  0.45182189287E+02  0.14200000000E+01 0. -1.
         25    2    1    2    0    0  0.00000000000E+00  0.00000000000E+00  0.41289211817E+02  0.13164293235E+03  0.12500025050E+03 0.  0.
        -11    1    3    3    0    0  0.58524881441E+02  0.21906253422E+02  0.21807823798E+02  0.66186304216E+02  0.51100000000E-03 0. -1.
         11    1    3    3    0    0 -0.58524881441E+02 -0.21906253422E+02  0.19481388018E+02  0.65456628129E+02  0.51100000000E-03 0.  1.
<mgrwt>
<rscale>  0 0.12500025E+03</rscale>
<asrwt>0</asrwt>
<pdfrwt beam="1">  1        4 0.13302473E-01 0.12500025E+03</pdfrwt>
<pdfrwt beam="2">  1       -4 0.69502862E-02 0.12500025E+03</pdfrwt>
<totfact> 0.10309267E+04</totfact>
</mgrwt>
</event>
<event>
 5    1  0.3296574E-054  0.1249960E+03  0.7818608E-02  0.1235075E+00
          4   -1    0    0  501    0  0.00000000000E+00  0.00000000000E+00  0.35500680286E+02  0.35529068391E+02  0.14200000000E+01 0.  1.
         -4   -1    0    0    0  501 -0.00000000000E+00 -0.00000000000E+00 -0.10994918513E+03  0.10995835444E+03  0.14200000000E+01 0. -1.
         25    2    1    2    0    0  0.00000000000E+00  0.00000000000E+00 -0.74448504841E+02  0.14548742283E+03  0.12499604125E+03 0.  0.
        -11    1    3    3    0    0 -0.18566059623E+02  0.37853756062E+02 -0.90921933092E+02  0.10022177077E+03  0.51100000000E-03 0. -1.
         11    1    3    3    0    0  0.18566059623E+02 -0.37853756062E+02  0.16473428251E+02  0.45265652061E+02  0.51100000000E-03 0.  1.
<mgrwt>
<rscale>  0 0.12499604E+03</rscale>
<asrwt>0</asrwt>
<pdfrwt beam="1">  1        4 0.54645322E-02 0.12499604E+03</pdfrwt>
<pdfrwt beam="2">  1       -4 0.16918148E-01 0.12499604E+03</pdfrwt>
<totfact> 0.10021988E+04</totfact>
</mgrwt>
</event>
<event>
 5    1  0.3296574E-054  0.1250006E+03  0.7818608E-02  0.1235068E+00
          4   -1    0    0  501    0  0.00000000000E+00  0.00000000000E+00  0.31294874680E+03  0.31295196840E+03  0.14200000000E+01 0. -1.
         -4   -1    0    0    0  501 -0.00000000000E+00 -0.00000000000E+00 -0.12438512376E+02  0.12519304698E+02  0.14200000000E+01 0.  1.
         25    2    1    2    0    0  0.00000000000E+00  0.00000000000E+00  0.30051023443E+03  0.32547127310E+03  0.12500059446E+03 0.  0.
        -11    1    3    3    0    0 -0.40633708196E+02 -0.47457757602E+02  0.14578289846E+03  0.15860640114E+03  0.51100000000E-03 0.  1.
         11    1    3    3    0    0  0.40633708196E+02  0.47457757602E+02  0.15472733596E+03  0.16686487196E+03  0.51100000000E-03 0. -1.
<mgrwt>
<rscale>  0 0.12500059E+03</rscale>
<asrwt>0</asrwt>
<pdfrwt beam="1">  1        4 0.48152422E-01 0.12500059E+03</pdfrwt>
<pdfrwt beam="2">  1       -4 0.19200800E-02 0.12500059E+03</pdfrwt>
<totfact> 0.72509125E+03</totfact>
</mgrwt>
</event>
<event>
 5    1  0.3296574E-054  0.1249705E+03  0.7818608E-02  0.1235115E+00
         -4   -1    0    0    0  501 -0.00000000000E+00  0.00000000000E+00  0.18910253601E+02  0.18963493645E+02  0.14200000000E+01 0.  1.
          4   -1    0    0  501    0  0.00000000000E+00 -0.00000000000E+00 -0.20612424558E+03  0.20612913675E+03  0.14200000000E+01 0. -1.
         25    2    1    2    0    0  0.00000000000E+00  0.00000000000E+00 -0.18721399198E+03  0.22509263039E+03  0.12497045036E+03 0.  0.
        -11    1    3    3    0    0  0.30062071090E+02 -0.53086603345E+02 -0.11793860620E+03  0.13278339658E+03  0.51100000000E-03 0.  1.
         11    1    3    3    0    0 -0.30062071090E+02  0.53086603345E+02 -0.69275385776E+02  0.92309233815E+02  0.51100000000E-03 0. -1.
<mgrwt>
<rscale>  0 0.12497045E+03</rscale>
<asrwt>0</asrwt>
<pdfrwt beam="2">  1        4 0.31715892E-01 0.12497045E+03</pdfrwt>
<pdfrwt beam="1">  1       -4 0.29137416E-02 0.12497045E+03</pdfrwt>
<totfact> 0.86125663E+03</totfact>
</mgrwt>
</event>
<event>
 4    1  0.3296574E-054  0.1249261E+03  0.7818608E-02  0.1235185E+00
         -4   -1    0    0    0  501 -0.00000000000E+00  0.00000000000E+00  0.15985128525E+03  0.15985759223E+03  0.14200000000E+01 0. -1.
          4   -1    0    0  501    0  0.00000000000E+00 -0.00000000000E+00 -0.24380440069E+02  0.24421757880E+02  0.14200000000E+01 0.  1.
        -11    1    1    2    0    0  0.50223189181E+02  0.33210966679E+02  0.92254842187E+02  0.11016484442E+03  0.51100000000E-03 0. -1.
         11    1    1    2    0    0 -0.50223189181E+02 -0.33210966679E+02  0.43216002990E+02  0.74114505692E+02  0.51100000000E-03 0.  1.
<mgrwt>
<rscale>  0 0.12492609E+03</rscale>
<asrwt>0</asrwt>
<pdfrwt beam="2">  1        4 0.37545004E-02 0.12492609E+03</pdfrwt>
<pdfrwt beam="1">  1       -4 0.24596169E-01 0.12492609E+03</pdfrwt>
<totfact> 0.93006297E+03</totfact>
</mgrwt>
</event>
<event>
 5    1  0.3296574E-054  0.1250006E+03  0.7818608E-02  0.1235068E+00
          4   -1    0    0  501    0  0.00000000000E+00  0.00000000000E+00  0.71490266188E+02  0.71504367417E+02  0.14200000000E+01 0.  1.
         -4   -1    0    0    0  501 -0.00000000000E+00 -0.00000000000E+00 -0.54612082308E+02  0.54630540305E+02  0.14200000000E+01 0. -1.
         25    2    1    2    0    0  0.00000000000E+00  0.00000000000E+00  0.16878183880E+02  0.12613490772E+03  0.12500056742E+03 0.  0.
        -11    1    3    3    0    0  0.38363481604E+02  0.18243486017E+02 -0.37821275791E+02  0.56877327694E+02  0.51100000000E-03 0. -1.
         11    1    3    3    0    0 -0.38363481604E+02 -0.18243486017E+02  0.54699459671E+02  0.69257580029E+02  0.51100000000E-03 0.  1.
<mgrwt>
<rscale>  0 0.12500057E+03</rscale>
<asrwt>0</asrwt>
<pdfrwt beam="1">  1        4 0.11001007E-01 0.12500057E+03</pdfrwt>
<pdfrwt beam="2">  1       -4 0.84043633E-02 0.12500057E+03</pdfrwt>
<totfact> 0.10427869E+04</totfact>
</mgrwt>
</event>
<event>
 5    1  0.3296574E-054  0.1250103E+03  0.7818608E-02  0.1235053E+00
         -4   -1    0    0    0  501 -0.00000000000E+00  0.00000000000E+00  0.18858741867E+02  0.18912126925E+02  0.14200000000E+01 0.  1.
          4   -1    0    0  501    0  0.00000000000E+00 -0.00000000000E+00 -0.20681765864E+03  0.20682253341E+03  0.14200000000E+01 0. -1.
         25    2    1    2    0    0  0.00000000000E+00  0.00000000000E+00 -0.18795891678E+03  0.22573466034E+03  0.12501032950E+03 0.  0.
        -11    1    3    3    0    0  0.14322677366E+02 -0.54887585071E+02 -0.46577478851E+02  0.73397872028E+02  0.51100000000E-03 0.  1.
         11    1    3    3    0    0 -0.14322677366E+02  0.54887585071E+02 -0.14138143793E+03  0.15233678831E+03  0.51100000000E-03 0. -1.
<mgrwt>
<rscale>  0 0.12501033E+03</rscale>
<asrwt>0</asrwt>
<pdfrwt beam="2">  1        4 0.31822581E-01 0.12501033E+03</pdfrwt>
<pdfrwt beam="1">  1       -4 0.29058266E-02 0.12501033E+03</pdfrwt>
<totfact> 0.85949060E+03</totfact>
</mgrwt>
</event>
<event>
 5    1  0.3296574E-054  0.1249999E+03  0.7818608E-02  0.1235069E+00
         -4   -1    0    0    0  501 -0.00000000000E+00  0.00000000000E+00  0.15010512625E+03  0.15011184273E+03  0.14200000000E+01 0.  1.
          4   -1    0    0  501    0  0.00000000000E+00 -0.00000000000E+00 -0.25996710286E+02  0.26035463231E+02  0.14200000000E+01 0. -1.
         25    2    1    2    0    0  0.00000000000E+00  0.00000000000E+00  0.12410841597E+03  0.17614730596E+03  0.12499989793E+03 0.  0.
        -11    1    3    3    0    0 -0.25729944202E+02  0.51091319774E+02  0.97533383181E+02  0.11307127761E+03  0.51100000000E-03 0.  1.
         11    1    3    3    0    0  0.25729944202E+02 -0.51091319774E+02  0.26575032787E+02  0.63076028353E+02  0.51100000000E-03 0. -1.
<mgrwt>
<rscale>  0 0.12499990E+03</rscale>
<asrwt>0</asrwt>
<pdfrwt beam="2">  1        4 0.40029915E-02 0.12499990E+03</pdfrwt>
<pdfrwt beam="1">  1       -4 0.23096594E-01 0.12499990E+03</pdfrwt>
<totfact> 0.94315349E+03</totfact>
</mgrwt>
</event>
<event>
 5    1  0.3296574E-054  0.1249992E+03  0.7818608E-02  0.1235071E+00
          4   -1    0    0  501    0  0.00000000000E+00  0.00000000000E+00  0.50380214093E+03  0.50380414211E+03  0.14200000000E+01 0. -1.
         -4   -1    0    0    0  501 -0.00000000000E+00 -0.00000000000E+00 -0.76863907110E+01  0.78164571362E+01  0.14200000000E+01 0.  1.
         25    2    1    2    0    0  0.00000000000E+00  0.00000000000E+00  0.49611575022E+03  0.51162059924E+03  0.12499919982E+03 0.  0.
        -11    1    3    3    0    0 -0.62148199698E+02 -0.64132534873E+01  0.24136806592E+03  0.24932322754E+03  0.51100000000E-03 0.  1.
         11    1    3    3    0    0  0.62148199698E+02  0.64132534873E+01  0.25474768430E+03  0.26229737170E+03  0.51100000000E-03 0. -1.
<mgrwt>
<rscale>  0 0.12499920E+03</rscale>
<asrwt>0</asrwt>
<pdfrwt beam="1">  1        4 0.77518196E-01 0.12499920E+03</pdfrwt>
<pdfrwt beam="2">  1       -4 0.11926805E-02 0.12499920E+03</pdfrwt>
<totfact> 0.54974849E+03</totfact>
</mgrwt>
</event>
<event>
 5    1  0.3296574E-054  0.1250004E+03  0.7818608E-02  0.1235069E+00
         -4   -1    0    0    0  501 -0.00000000000E+00  0.00000000000E+00  0.71722346611E+02  0.71736402220E+02  0.14200000000E+01 0. -1.
          4   -1    0    0  501    0  0.00000000000E+00 -0.00000000000E+00 -0.54435178976E+02  0.54453696937E+02  0.14200000000E+01 0.  1.
         25    2    1    2    0    0  0.00000000000E+00  0.00000000000E+00  0.17287167635E+02  0.12619009916E+03  0.12500037984E+03 0.  0.
        -11    1    3    3    0    0 -0.41650537887E+02 -0.28745488486E+02  0.45669679151E+02  0.68167367622E+02  0.51100000000E-03 0. -1.
         11    1    3    3    0    0  0.41650537887E+02  0.28745488486E+02 -0.28382511515E+02  0.58022731535E+02  0.51100000000E-03 0.  1.
<mgrwt>
<rscale>  0 0.12500038E+03</rscale>
<asrwt>0</asrwt>
<pdfrwt beam="2">  1        4 0.83771486E-02 0.12500038E+03</pdfrwt>
<pdfrwt beam="1">  1       -4 0.11036713E-01 0.12500038E+03</pdfrwt>
<totfact> 0.10426706E+04</totfact>
</mgrwt>
</event>
<event>
 5    1  0.3296574E-054  0.1249990E+03  0.7818608E-02  0.1235071E+00
          4   -1    0    0  501    0  0.00000000000E+00  0.00000000000E+00  0.12506399862E+02  0.12586756434E+02  0.14200000000E+01 0.  1.
         -4   -1    0    0    0  501 -0.00000000000E+00 -0.00000000000E+00 -0.31125310968E+03  0.31125634882E+03  0.14200000000E+01 0. -1.
         25    2    1    2    0    0  0.00000000000E+00  0.00000000000E+00 -0.29874670981E+03  0.32384310526E+03  0.12499904079E+03 0.  0.
        -11    1    3    3    0    0 -0.52114819277E+02  0.22124507952E+02 -0.21795485650E+03  0.22518829391E+03  0.51100000000E-03 0. -1.
         11    1    3    3    0    0  0.52114819277E+02 -0.22124507952E+02 -0.80791853310E+02  0.98654811347E+02  0.51100000000E-03 0.  1.
<mgrwt>
<rscale>  0 0.12499904E+03</rscale>
<asrwt>0</asrwt>
<pdfrwt beam="1">  1        4 0.19304922E-02 0.12499904E+03</pdfrwt>
<pdfrwt beam="2">  1       -4 0.47891518E-01 0.12499904E+03</pdfrwt>
<totfact> 0.72702906E+03</totfact>
</mgrwt>
</event>
<event>
 4    1  0.3296574E-054  0.1248913E+03  0.7818608E-02  0.1235239E+00
         -4   -1    0    0    0  501 -0.00000000000E+00  0.00000000000E+00  0.21190701765E+03  0.21191177534E+03  0.14200000000E+01 0.  1.
          4   -1    0    0  501    0  0.00000000000E+00 -0.00000000000E+00 -0.18369372954E+02  0.18424176039E+02  0.14200000000E+01 0. -1.
        -11    1    1    2    0    0 -0.52955188663E+02  0.26554464722E+02  0.60343894363E+02  0.84562268123E+02  0.51100000000E-03 0.  1.
         11    1    1    2    0    0  0.52955188663E+02 -0.26554464722E+02  0.13319375033E+03  0.14577368326E+03  0.51100000000E-03 0. -1.
<mgrwt>
<rscale>  0 0.12489128E+03</rscale>
<asrwt>0</asrwt>
<pdfrwt beam="2">  1        4 0.28306390E-02 0.12489128E+03</pdfrwt>
<pdfrwt beam="1">  1       -4 0.32605661E-01 0.12489128E+03</pdfrwt>
<totfact> 0.85465184E+03</totfact>
</mgrwt>
</event>
<event>
 5    1  0.3296574E-054  0.1249978E+03  0.7818608E-02  0.1235073E+00
         -4   -1    0    0    0  501 -0.00000000000E+00  0.00000000000E+00  0.70402050438E+02  0.70416369587E+02  0.14200000000E+01 0. -1.
          4   -1    0    0  501    0  0.00000000000E+00 -0.00000000000E+00 -0.55453876430E+02  0.55472054326E+02  0.14200000000E+01 0.  1.
         25    2    1    2    0    0  0.00000000000E+00  0.00000000000E+00  0.14948174008E+02  0.12588842391E+03  0.12499778946E+03 0.  0.
        -11    1    3    3    0    0 -0.51288805906E+02  0.35586215618E+02  0.10527435624E+02  0.63306771000E+02  0.51100000000E-03 0. -1.
         11    1    3    3    0    0  0.51288805906E+02 -0.35586215618E+02  0.44207383833E+01  0.62581652914E+02  0.51100000000E-03 0.  1.
<mgrwt>
<rscale>  0 0.12499779E+03</rscale>
<asrwt>0</asrwt>
<pdfrwt beam="2">  1        4 0.85338654E-02 0.12499779E+03</pdfrwt>
<pdfrwt beam="1">  1       -4 0.10833584E-01 0.12499779E+03</pdfrwt>
<totfact> 0.10433924E+04</totfact>
</mgrwt>
</event>
<event>
 5    1  0.3296574E-054  0.1250007E+03  0.7818608E-02  0.1235068E+00
          4   -1    0    0  501    0  0.00000000000E+00  0.00000000000E+00  0.44409847032E+02  0.44432543404E+02  0.14200000000E+01 0.  1.
         -4   -1    0    0    0  501 -0.00000000000E+00 -0.00000000000E+00 -0.87909133607E+02  0.87920601519E+02  0.14200000000E+01 0. -1.
         25    2    1    2    0    0  0.00000000000E+00  0.00000000000E+00 -0.43499286576E+02  0.13235314492E+03  0.12500066815E+03 0.  0.
        -11    1    3    3    0    0 -0.52270759556E+02 -0.32293399521E+02 -0.96218468009E+01  0.62190641525E+02  0.51100000000E-03 0. -1.
         11    1    3    3    0    0  0.52270759556E+02  0.32293399521E+02 -0.33877439775E+02  0.70162503398E+02  0.51100000000E-03 0.  1.
<mgrwt>
<rscale>  0 0.12500067E+03</rscale>
<asrwt>0</asrwt>
<pdfrwt beam="1">  1        4 0.68349122E-02 0.12500067E+03</pdfrwt>
<pdfrwt beam="2">  1       -4 0.13527110E-01 0.12500067E+03</pdfrwt>
<totfact> 0.10294011E+04</totfact>
</mgrwt>
</event>
<event>
 5    1  0.3296574E-054  0.1249755E+03  0.7818608E-02  0.1235108E+00
          4   -1    0    0  501    0  0.00000000000E+00  0.00000000000E+00  0.37495835524E+02  0.37522714210E+02  0.14200000000E+01 0.  1.
         -4   -1    0    0    0  501 -0.00000000000E+00 -0.00000000000E+00 -0.10406835338E+03  0.10407804079E+03  0.14200000000E+01 0. -1.
         25    2    1    2    0    0  0.00000000000E+00  0.00000000000E+00 -0.66572517853E+02  0.14160075500E+03  0.12497549233E+03 0.  0.
        -11    1    3    3    0    0 -0.45592882942E+02 -0.42534893677E+02 -0.28643570987E+02  0.68617653080E+02  0.51100000000E-03 0. -1.
         11    1    3    3    0    0  0.45592882942E+02  0.42534893677E+02 -0.37928946867E+02  0.72983101919E+02  0.51100000000E-03 0.  1.
<mgrwt>
<rscale>  0 0.12497549E+03</rscale>
<asrwt>0</asrwt>
<pdfrwt beam="1">  1        4 0.57714029E-02 0.12497549E+03</pdfrwt>
<pdfrwt beam="2">  1       -4 0.16013329E-01 0.12497549E+03</pdfrwt>
<totfact> 0.10106095E+04</totfact>
</mgrwt>
</event>
<event>
 5    1  0.3296574E-054  0.1249996E+03  0.7818608E-02  0.1235070E+00
         -4   -1    0    0    0  501 -0.00000000000E+00  0.00000000000E+00  0.53790971908E+03  0.53791159336E+03  0.14200000000E+01 0.  1.
          4   -1    0    0  501    0  0.00000000000E+00 -0.00000000000E+00 -0.71905342094E+01  0.73294053112E+01  0.14200000000E+01 0. -1.
         25    2    1    2    0    0  0.00000000000E+00  0.00000000000E+00  0.53071918487E+03  0.54524099868E+03  0.12499957381E+03 0.  0.
        -11    1    3    3    0    0 -0.42507899191E+02  0.44054670508E+02  0.32027294946E+03  0.32607130761E+03  0.51100000000E-03 0.  1.
         11    1    3    3    0    0  0.42507899191E+02 -0.44054670508E+02  0.21044623541E+03  0.21916969107E+03  0.51100000000E-03 0. -1.
<mgrwt>
<rscale>  0 0.12499957E+03</rscale>
<asrwt>0</asrwt>
<pdfrwt beam="2">  1        4 0.11170629E-02 0.12499957E+03</pdfrwt>
<pdfrwt beam="1">  1       -4 0.82766145E-01 0.12499957E+03</pdfrwt>
<totfact> 0.52517993E+03</totfact>
</mgrwt>
</event>
<event>
 5    1  0.3296574E-054  0.1249972E+03  0.7818608E-02  0.1235074E+00
         -4   -1    0    0    0  501 -0.00000000000E+00  0.00000000000E+00  0.31356924422E+03  0.31357245945E+03  0.14200000000E+01 0.  1.
          4   -1    0    0  501    0  0.00000000000E+00 -0.00000000000E+00 -0.12413053197E+02  0.12494010151E+02  0.14200000000E+01 0. -1.
         25    2    1    2    0    0  0.00000000000E+00  0.00000000000E+00  0.30115619103E+03  0.32606646960E+03  0.12499716477E+03 0.  0.
        -11    1    3    3    0    0 -0.34929940175E+02 -0.51756821944E+02  0.14357682906E+03  0.15656683934E+03  0.51100000000E-03 0.  1.
         11    1    3    3    0    0  0.34929940175E+02  0.51756821944E+02  0.15757936197E+03  0.16949963025E+03  0.51100000000E-03 0. -1.
<mgrwt>
<rscale>  0 0.12499716E+03</rscale>
<asrwt>0</asrwt>
<pdfrwt beam="2">  1        4 0.19161753E-02 0.12499716E+03</pdfrwt>
<pdfrwt beam="1">  1       -4 0.48247896E-01 0.12499716E+03</pdfrwt>
<totfact> 0.72444912E+03</totfact>
</mgrwt>
</event>
<event>
 5    1  0.3296574E-054  0.1250014E+03  0.7818608E-02  0.1235067E+00
         -4   -1    0    0    0  501 -0.00000000000E+00  0.00000000000E+00  0.13547538045E+03  0.13548282218E+03  0.14200000000E+01 0.  1.
          4   -1    0    0  501    0  0.00000000000E+00 -0.00000000000E+00 -0.28808580600E+02  0.28843555886E+02  0.14200000000E+01 0. -1.
         25    2    1    2    0    0  0.00000000000E+00  0.00000000000E+00  0.10666679985E+03  0.16432637807E+03  0.12500140935E+03 0.  0.
        -11    1    3    3    0    0 -0.59805079273E+02 -0.18065867987E+02  0.50939898978E+02  0.80609530461E+02  0.51100000000E-03 0.  1.
         11    1    3    3    0    0  0.59805079273E+02  0.18065867987E+02  0.55726900867E+02  0.83716847609E+02  0.51100000000E-03 0. -1.
<mgrwt>
<rscale>  0 0.12500141E+03</rscale>
<asrwt>0</asrwt>
<pdfrwt beam="2">  1        4 0.44353522E-02 0.12500141E+03</pdfrwt>
<pdfrwt beam="1">  1       -4 0.20845629E-01 0.12500141E+03</pdfrwt>
<totfact> 0.96512062E+03</totfact>
</mgrwt>
</event>
<event>
 5    1  0.3296574E-054  0.1249990E+03  0.7818608E-02  0.1235071E+00
         -4   -1    0    0    0  501 -0.00000000000E+00  0.00000000000E+00  0.17873527480E+03  0.17874091545E+03  0.14200000000E+01 0.  1.
          4   -1    0    0  501    0  0.00000000000E+00 -0.00000000000E+00 -0.21825523213E+02  0.21871668055E+02  0.14200000000E+01 0. -1.
         25    2    1    2    0    0  0.00000000000E+00  0.00000000000E+00  0.15690975159E+03  0.20061258351E+03  0.12499895407E+03 0.  0.
        -11    1    3    3    0    0  0.55016562245E+02 -0.29254167528E+02  0.70665470126E+02  0.94213784063E+02  0.51100000000E-03 0.  1.
         11    1    3    3    0    0 -0.55016562245E+02  0.29254167528E+02  0.86244281459E+02  0.10639879945E+03  0.51100000000E-03 0. -1.
<mgrwt>
<rscale>  0 0.12499895E+03</rscale>
<asrwt>0</asrwt>
<pdfrwt beam="2">  1        4 0.33617562E-02 0.12499895E+03</pdfrwt>
<pdfrwt beam="1">  1       -4 0.27501719E-01 0.12499895E+03</pdfrwt>
<totfact> 0.90034398E+03</totfact>
</mgrwt>
</event>
<event>
 5    1  0.3296574E-054  0.1250004E+03  0.7818608E-02  0.1235069E+00
          4   -1    0    0  501    0  0.00000000000E+00  0.00000000000E+00  0.11273120801E+03  0.11274015105E+03  0.14200000000E+01 0. -1.
         -4   -1    0    0    0  501 -0.00000000000E+00 -0.00000000000E+00 -0.34626337097E+02  0.34655441431E+02  0.14200000000E+01 0.  1.
         25    2    1    2    0    0  0.00000000000E+00  0.00000000000E+00  0.78104870911E+02  0.14739559248E+03  0.12500035929E+03 0.  0.
        -11    1    3    3    0    0 -0.47165947016E+02 -0.53269110751E+01 -0.88927626460E+01  0.48291653185E+02  0.51100000000E-03 0.  1.
         11    1    3    3    0    0  0.47165947016E+02  0.53269110751E+01  0.86997633557E+02  0.99103939298E+02  0.51100000000E-03 0. -1.
<mgrwt>
<rscale>  0 0.12500036E+03</rscale>
<asrwt>0</asrwt>
<pdfrwt beam="1">  1        4 0.17346189E-01 0.12500036E+03</pdfrwt>
<pdfrwt beam="2">  1       -4 0.53300555E-02 0.12500036E+03</pdfrwt>
<totfact> 0.99824596E+03</totfact>
</mgrwt>
</event>
<event>
 5    1  0.3296574E-054  0.1249997E+03  0.7818608E-02  0.1235070E+00
          4   -1    0    0  501    0  0.00000000000E+00  0.00000000000E+00  0.27504640163E+02  0.27541271403E+02  0.14200000000E+01 0.  1.
         -4   -1    0    0    0  501 -0.00000000000E+00 -0.00000000000E+00 -0.14188614976E+03  0.14189325528E+03  0.14200000000E+01 0. -1.
         25    2    1    2    0    0  0.00000000000E+00  0.00000000000E+00 -0.11438150959E+03  0.16943452668E+03  0.12499971638E+03 0.  0.
        -11    1    3    3    0    0 -0.25002762331E+02 -0.34305992244E+02 -0.11936860133E+03  0.12669215529E+03  0.51100000000E-03 0. -1.
         11    1    3    3    0    0  0.25002762331E+02  0.34305992244E+02  0.49870917332E+01  0.42742371392E+02  0.51100000000E-03 0.  1.
<mgrwt>
<rscale>  0 0.12499972E+03</rscale>
<asrwt>0</asrwt>
<pdfrwt beam="1">  1        4 0.42348475E-02 0.12499972E+03</pdfrwt>
<pdfrwt beam="2">  1       -4 0.21832002E-01 0.12499972E+03</pdfrwt>
<totfact> 0.95554700E+03</totfact>
</mgrwt>
</event>
<event>
 5    1  0.4940045E-054  0.1250018E+03  0.7818608E-02  0.1235066E+00
         -4   -1    0    0    0  501 -0.00000000000E+00  0.00000000000E+00  0.50093080853E+02  0.50113203344E+02  0.14200000000E+01 0. -1.
          4   -1    0    0  501    0  0.00000000000E+00 -0.00000000000E+00 -0.77939843966E+02  0.77952778511E+02  0.14200000000E+01 0.  1.
         25    2    1    2    0    0  0.00000000000E+00  0.00000000000E+00 -0.27846763113E+02  0.12806598185E+03  0.12500181396E+03 0.  0.
        -11    1    3    3    0    0  0.13688541063E+02  0.58784975570E+02 -0.30548101230E+02  0.67647882438E+02  0.51100000000E-03 0. -1.
         11    1    3    3    0    0 -0.13688541063E+02 -0.58784975570E+02  0.27013381172E+01  0.60418099417E+02  0.51100000000E-03 0.  1.
<mgrwt>
<rscale>  0 0.12500181E+03</rscale>
<asrwt>0</asrwt>
<pdfrwt beam="2">  1        4 0.11993288E-01 0.12500181E+03</pdfrwt>
<pdfrwt beam="1">  1       -4 0.77091706E-02 0.12500181E+03</pdfrwt>
<totfact> 0.10385638E+04</totfact>
</mgrwt>
</event>
<event>
 5    1  0.3296574E-054  0.1249994E+03  0.7818608E-02  0.1235070E+00
          4   -1    0    0  501    0  0.00000000000E+00  0.00000000000E+00  0.15861804431E+03  0.15862440033E+03  0.14200000000E+01 0. -1.
         -4   -1    0    0    0  501 -0.00000000000E+00 -0.00000000000E+00 -0.24599212053E+02  0.24640163019E+02  0.14200000000E+01 0.  1.
         25    2    1    2    0    0  0.00000000000E+00  0.00000000000E+00  0.13401883225E+03  0.18326456335E+03  0.12499941112E+03 0.  0.
        -11    1    3    3    0    0 -0.53647006868E+02 -0.84369854314E+01  0.21653587365E+02  0.58464193444E+02  0.51100000000E-03 0.  1.
         11    1    3    3    0    0  0.53647006868E+02  0.84369854314E+01  0.11236524489E+03  0.12480036990E+03  0.51100000000E-03 0. -1.
<mgrwt>
<rscale>  0 0.12499941E+03</rscale>
<asrwt>0</asrwt>
<pdfrwt beam="1">  1        4 0.24406415E-01 0.12499941E+03</pdfrwt>
<pdfrwt beam="2">  1       -4 0.37881331E-02 0.12499941E+03</pdfrwt>
<totfact> 0.93033878E+03</totfact>
</mgrwt>
</event>
<event>
 5    1  0.3296574E-054  0.1249967E+03  0.7818608E-02  0.1235074E+00
          4   -1    0    0  501    0  0.00000000000E+00  0.00000000000E+00  0.40067795119E+03  0.40068046742E+03  0.14200000000E+01 0. -1.
         -4   -1    0    0    0  501 -0.00000000000E+00 -0.00000000000E+00 -0.96943183350E+01  0.97977654586E+01  0.14200000000E+01 0.  1.
         25    2    1    2    0    0  0.00000000000E+00  0.00000000000E+00  0.39098363285E+03  0.41047823287E+03  0.12499671397E+03 0.  0.
        -11    1    3    3    0    0 -0.29327553840E+02  0.53982145705E+02  0.23320210510E+03  0.24115845267E+03  0.51100000000E-03 0.  1.
         11    1    3    3    0    0  0.29327553840E+02 -0.53982145705E+02  0.15778152775E+03  0.16931978021E+03  0.51100000000E-03 0. -1.
<mgrwt>
<rscale>  0 0.12499671E+03</rscale>
<asrwt>0</asrwt>
<pdfrwt beam="1">  1        4 0.61650918E-01 0.12499671E+03</pdfrwt>
<pdfrwt beam="2">  1       -4 0.14995845E-02 0.12499671E+03</pdfrwt>
<totfact> 0.63550892E+03</totfact>
</mgrwt>
</event>
<event>
 5    1  0.3728686E-054  0.1250000E+03  0.7818608E-02  0.1235069E+00
          4   -1    0    0  501    0  0.00000000000E+00  0.00000000000E+00  0.89474933186E+02  0.89486200437E+02  0.14200000000E+01 0.  1.
         -4   -1    0    0    0  501 -0.00000000000E+00 -0.00000000000E+00 -0.43631917267E+02  0.43655018090E+02  0.14200000000E+01 0. -1.
         25    2    1    2    0    0  0.00000000000E+00  0.00000000000E+00  0.45843015918E+02  0.13314121853E+03  0.12500000785E+03 0.  0.
        -11    1    3    3    0    0  0.39473278514E+01  0.60761047822E+02  0.79049109301E+01  0.61400113573E+02  0.51100000000E-03 0. -1.
         11    1    3    3    0    0 -0.39473278514E+01 -0.60761047822E+02  0.37938104988E+02  0.71741104954E+02  0.51100000000E-03 0.  1.
<mgrwt>
<rscale>  0 0.12500001E+03</rscale>
<asrwt>0</asrwt>
<pdfrwt beam="1">  1        4 0.13768018E-01 0.12500001E+03</pdfrwt>
<pdfrwt beam="2">  1       -4 0.67152465E-02 0.12500001E+03</pdfrwt>
<totfact> 0.10277398E+04</totfact>
</mgrwt>
</event>
<event>
 5    1  0.3296574E-054  0.1250004E+03  0.7818608E-02  0.1235069E+00
         -4   -1    0    0    0  501 -0.00000000000E+00  0.00000000000E+00  0.10052479086E+03  0.10053481973E+03  0.14200000000E+01 0.  1.
          4   -1    0    0  501    0  0.00000000000E+00 -0.00000000000E+00 -0.38833900441E+02  0.38859853621E+02  0.14200000000E+01 0. -1.
         25    2    1    2    0    0  0.00000000000E+00  0.00000000000E+00  0.61690890418E+02  0.13939467335E+03  0.12500043599E+03 0.  0.
        -11    1    3    3    0    0 -0.37633595963E+02  0.46064359459E+02  0.52239672798E+02  0.79165624938E+02  0.51100000000E-03 0.  1.
         11    1    3    3    0    0  0.37633595963E+02 -0.46064359459E+02  0.94512176202E+01  0.60229048409E+02  0.51100000000E-03 0. -1.
<mgrwt>
<rscale>  0 0.12500044E+03</rscale>
<asrwt>0</asrwt>
<pdfrwt beam="2">  1        4 0.59772141E-02 0.12500044E+03</pdfrwt>
<pdfrwt beam="1">  1       -4 0.15468120E-01 0.12500044E+03</pdfrwt>
<totfact> 0.10146047E+04</totfact>
</mgrwt>
</event>
<event>
 5    1  0.3296574E-054  0.1249994E+03  0.7818608E-02  0.1235070E+00
         -4   -1    0    0    0  501 -0.00000000000E+00  0.00000000000E+00  0.81320078181E+02  0.81332475158E+02  0.14200000000E+01 0.  1.
          4   -1    0    0  501    0  0.00000000000E+00 -0.00000000000E+00 -0.48008454964E+02  0.48029450840E+02  0.14200000000E+01 0. -1.
         25    2    1    2    0    0  0.00000000000E+00  0.00000000000E+00  0.33311623217E+02  0.12936192600E+03  0.12499937462E+03 0.  0.
        -11    1    3    3    0    0 -0.60753963351E+02 -0.98126978651E+01  0.53721764944E+01  0.61775346076E+02  0.51100000000E-03 0.  1.
         11    1    3    3    0    0  0.60753963351E+02  0.98126978651E+01  0.27939446723E+02  0.67586579923E+02  0.51100000000E-03 0. -1.
<mgrwt>
<rscale>  0 0.12499937E+03</rscale>
<asrwt>0</asrwt>
<pdfrwt beam="2">  1        4 0.73884849E-02 0.12499937E+03</pdfrwt>
<pdfrwt beam="1">  1       -4 0.12513350E-01 0.12499937E+03</pdfrwt>
<totfact> 0.10358322E+04</totfact>
</mgrwt>
</event>
<event>
 5    1  0.3296574E-054  0.1250030E+03  0.7818608E-02  0.1235065E+00
         -4   -1    0    0    0  501 -0.00000000000E+00  0.00000000000E+00  0.37613062022E+02  0.37639856995E+02  0.14200000000E+01 0.  1.
          4   -1    0    0  501    0  0.00000000000E+00 -0.00000000000E+00 -0.10378990098E+03  0.10379961438E+03  0.14200000000E+01 0. -1.
         25    2    1    2    0    0  0.00000000000E+00  0.00000000000E+00 -0.66176838960E+02  0.14143947138E+03  0.12500300016E+03 0.  0.
        -11    1    3    3    0    0 -0.57420556419E+02  0.11079742069E+02 -0.81300137772E+01  0.59042172284E+02  0.51100000000E-03 0.  1.
         11    1    3    3    0    0  0.57420556419E+02 -0.11079742069E+02 -0.58046825183E+02  0.82397299093E+02  0.51100000000E-03 0. -1.
<mgrwt>
<rscale>  0 0.12500300E+03</rscale>
<asrwt>0</asrwt>
<pdfrwt beam="2">  1        4 0.15970485E-01 0.12500300E+03</pdfrwt>
<pdfrwt beam="1">  1       -4 0.57894333E-02 0.12500300E+03</pdfrwt>
<totfact> 0.10103156E+04</totfact>
</mgrwt>
</event>
<event>
 5    1  0.3296574E-054  0.1250010E+03  0.7818608E-02  0.1235068E+00
          4   -1    0    0  501    0  0.00000000000E+00  0.00000000000E+00  0.86570079331E+01  0.87726955010E+01  0.14200000000E+01 0. -1.
         -4   -1    0    0    0  501 -0.00000000000E+00 -0.00000000000E+00 -0.44811950286E+03  0.44812175270E+03  0.14200000000E+01 0.  1.
         25    2    1    2    0    0  0.00000000000E+00  0.00000000000E+00 -0.43946249493E+03  0.45689444820E+03  0.12500100940E+03 0.  0.
        -11    1    3    3    0    0 -0.41981579298E+01  0.61276906225E+02 -0.26201543573E+03  0.26911813823E+03  0.51100000000E-03 0.  1.
         11    1    3    3    0    0  0.41981579298E+01 -0.61276906225E+02 -0.17744705920E+03  0.18777630997E+03  0.51100000000E-03 0. -1.
<mgrwt>
<rscale>  0 0.12500101E+03</rscale>
<asrwt>0</asrwt>
<pdfrwt beam="1">  1        4 0.13409198E-02 0.12500101E+03</pdfrwt>
<pdfrwt beam="2">  1       -4 0.68950516E-01 0.12500101E+03</pdfrwt>
<totfact> 0.59369837E+03</totfact>
</mgrwt>
</event>
<event>
 5    1  0.3296574E-054  0.1249996E+03  0.7818608E-02  0.1235070E+00
          4   -1    0    0  501    0  0.00000000000E+00  0.00000000000E+00  0.23920536385E+02  0.23962647202E+02  0.14200000000E+01 0.  1.
         -4   -1    0    0    0  501 -0.00000000000E+00 -0.00000000000E+00 -0.16311132889E+03  0.16311750983E+03  0.14200000000E+01 0. -1.
         25    2    1    2    0    0  0.00000000000E+00  0.00000000000E+00 -0.13919079251E+03  0.18708015703E+03  0.12499963374E+03 0.  0.
        -11    1    3    3    0    0 -0.35121691506E+00  0.60642738547E+02 -0.46968706853E+02  0.76705439934E+02  0.51100000000E-03 0. -1.
         11    1    3    3    0    0  0.35121691506E+00 -0.60642738547E+02 -0.92222085656E+02  0.11037471710E+03  0.51100000000E-03 0.  1.
<mgrwt>
<rscale>  0 0.12499963E+03</rscale>
<asrwt>0</asrwt>
<pdfrwt beam="1">  1        4 0.36837974E-02 0.12499963E+03</pdfrwt>
<pdfrwt beam="2">  1       -4 0.25097765E-01 0.12499963E+03</pdfrwt>
<totfact> 0.92358612E+03</totfact>
</mgrwt>
</event>
<event>
 5    1  0.3296574E-054  0.1249975E+03  0.7818608E-02  0.1235073E+00
         -4   -1    0    0    0  501 -0.00000000000E+00  0.00000000000E+00  0.19490703071E+02  0.19542361838E+02  0.14200000000E+01 0.  1.
          4   -1    0    0  501    0  0.00000000000E+00 -0.00000000000E+00 -0.20008857433E+03  0.20009361304E+03  0.14200000000E+01 0. -1.
         25    2    1    2    0    0  0.00000000000E+00  0.00000000000E+00 -0.18059787126E+03  0.21963597488E+03  0.12499748140E+03 0.  0.
        -11    1    3    3    0    0 -0.48714192477E+02  0.39150697648E+02 -0.89432915315E+02  0.10910589359E+03  0.51100000000E-03 0.  1.
         11    1    3    3    0    0  0.48714192477E+02 -0.39150697648E+02 -0.91164955948E+02  0.11053008128E+03  0.51100000000E-03 0. -1.
<mgrwt>
<rscale>  0 0.12499748E+03</rscale>
<asrwt>0</asrwt>
<pdfrwt beam="2">  1        4 0.30787218E-01 0.12499748E+03</pdfrwt>
<pdfrwt beam="1">  1       -4 0.30029312E-02 0.12499748E+03</pdfrwt>
<totfact> 0.86930876E+03</totfact>
</mgrwt>
</event>
<event>
 5    1  0.3296574E-054  0.1249658E+03  0.7818608E-02  0.1235123E+00
         -4   -1    0    0    0  501 -0.00000000000E+00  0.00000000000E+00  0.11938641398E+03  0.11939485853E+03  0.14200000000E+01 0.  1.
          4   -1    0    0  501    0  0.00000000000E+00 -0.00000000000E+00 -0.32676467092E+02  0.32707306548E+02  0.14200000000E+01 0. -1.
         25    2    1    2    0    0  0.00000000000E+00  0.00000000000E+00  0.86709946886E+02  0.15210216507E+03  0.12496581025E+03 0.  0.
        -11    1    3    3    0    0  0.99251343579E+01  0.39337208580E+02  0.10119444893E+03  0.10902403756E+03  0.51100000000E-03 0.  1.
         11    1    3    3    0    0 -0.99251343579E+01 -0.39337208580E+02 -0.14484502042E+02  0.43078127519E+02  0.51100000000E-03 0. -1.
<mgrwt>
<rscale>  0 0.12496581E+03</rscale>
<asrwt>0</asrwt>
<pdfrwt beam="2">  1        4 0.50301706E-02 0.12496581E+03</pdfrwt>
<pdfrwt beam="1">  1       -4 0.18370162E-01 0.12496581E+03</pdfrwt>
<totfact> 0.98962412E+03</totfact>
</mgrwt>
</event>
<event>
 5    1  0.3427636E-054  0.1249947E+03  0.7818608E-02  0.1235078E+00
         -4   -1    0    0    0  501 -0.00000000000E+00  0.00000000000E+00  0.22002496860E+02  0.22048271318E+02  0.14200000000E+01 0.  1.
          4   -1    0    0  501    0  0.00000000000E+00 -0.00000000000E+00 -0.17728838434E+03  0.17729407103E+03  0.14200000000E+01 0. -1.
         25    2    1    2    0    0  0.00000000000E+00  0.00000000000E+00 -0.15528588748E+03  0.19934234235E+03  0.12499465029E+03 0.  0.
        -11    1    3    3    0    0  0.60429586229E+02  0.36829272344E+01 -0.52904572106E+02  0.80400202704E+02  0.51100000000E-03 0.  1.
         11    1    3    3    0    0 -0.60429586229E+02 -0.36829272344E+01 -0.10238131537E+03  0.11894213964E+03  0.51100000000E-03 0. -1.
<mgrwt>
<rscale>  0 0.12499465E+03</rscale>
<asrwt>0</asrwt>
<pdfrwt beam="2">  1        4 0.27279094E-01 0.12499465E+03</pdfrwt>
<pdfrwt beam="1">  1       -4 0.33889582E-02 0.12499465E+03</pdfrwt>
<totfact> 0.90257350E+03</totfact>
</mgrwt>
</event>
<event>
 5    1  0.3296574E-054  0.1250014E+03  0.7818608E-02  0.1235067E+00
         -4   -1    0    0    0  501 -0.00000000000E+00  0.00000000000E+00  0.14980324139E+02  0.15047475247E+02  0.14200000000E+01 0. -1.
          4   -1    0    0  501    0  0.00000000000E+00 -0.00000000000E+00 -0.26011245285E+03  0.26011632884E+03  0.14200000000E+01 0.  1.
         25    2    1    2    0    0  0.00000000000E+00  0.00000000000E+00 -0.24513212872E+03  0.27516380409E+03  0.12500143420E+03 0.  0.
        -11    1    3    3    0    0 -0.16403331389E+02  0.56086656714E+02 -0.73761169432E+02  0.94103626169E+02  0.51100000000E-03 0. -1.
         11    1    3    3    0    0  0.16403331389E+02 -0.56086656714E+02 -0.17137095928E+03  0.18106017792E+03  0.51100000000E-03 0.  1.
<mgrwt>
<rscale>  0 0.12500143E+03</rscale>
<asrwt>0</asrwt>
<pdfrwt beam="2">  1        4 0.40022761E-01 0.12500143E+03</pdfrwt>
<pdfrwt beam="1">  1       -4 0.23101291E-02 0.12500143E+03</pdfrwt>
<totfact> 0.78821238E+03</totfact>
</mgrwt>
</event>
<event>
 5    1  0.3296574E-054  0.1250123E+03  0.7818608E-02  0.1235050E+00
         -4   -1    0    0    0  501 -0.00000000000E+00  0.00000000000E+00  0.91317553609E+02  0.91328593535E+02  0.14200000000E+01 0.  1.
          4   -1    0    0  501    0  0.00000000000E+00 -0.00000000000E+00 -0.42759589242E+02  0.42783161082E+02  0.14200000000E+01 0. -1.
         25    2    1    2    0    0  0.00000000000E+00  0.00000000000E+00  0.48557964367E+02  0.13411175462E+03  0.12501234668E+03 0.  0.
        -11    1    3    3    0    0 -0.24128455676E+01  0.62454032230E+02  0.23385445682E+02  0.66732353739E+02  0.51100000000E-03 0.  1.
         11    1    3    3    0    0  0.24128455676E+01 -0.62454032230E+02  0.25172518685E+02  0.67379400879E+02  0.51100000000E-03 0. -1.
<mgrwt>
<rscale>  0 0.12501235E+03</rscale>
<asrwt>0</asrwt>
<pdfrwt beam="2">  1        4 0.65810608E-02 0.12501235E+03</pdfrwt>
<pdfrwt beam="1">  1       -4 0.14051517E-01 0.12501235E+03</pdfrwt>
<totfact> 0.10253971E+04</totfact>
</mgrwt>
</event>
<event>
 5    1  0.3296574E-054  0.1249961E+03  0.7818608E-02  0.1235075E+00
         -4   -1    0    0    0  501 -0.00000000000E+00  0.00000000000E+00  0.18023308341E+03  0.18023867719E+03  0.14200000000E+01 0.  1.
          4   -1    0    0  501    0  0.00000000000E+00 -0.00000000000E+00 -0.21642770878E+02  0.21689304536E+02  0.14200000000E+01 0. -1.
         25    2    1    2    0    0  0.00000000000E+00  0.00000000000E+00  0.15859031253E+03  0.20192798172E+03  0.12499609024E+03 0.  0.
        -11    1    3    3    0    0 -0.26680792632E+02 -0.53436779214E+02  0.10902390468E+03  0.12431237211E+03  0.51100000000E-03 0.  1.
         11    1    3    3    0    0  0.26680792632E+02  0.53436779214E+02  0.49566407851E+02  0.77615609614E+02  0.51100000000E-03 0. -1.
<mgrwt>
<rscale>  0 0.12499609E+03</rscale>
<asrwt>0</asrwt>
<pdfrwt beam="2">  1        4 0.33336668E-02 0.12499609E+03</pdfrwt>
<pdfrwt beam="1">  1       -4 0.27732177E-01 0.12499609E+03</pdfrwt>
<totfact> 0.89819208E+03</totfact>
</mgrwt>
</event>
<event>
 5    1  0.3296574E-054  0.1250038E+03  0.7818608E-02  0.1235063E+00
          4   -1    0    0  501    0  0.00000000000E+00  0.00000000000E+00  0.19821058848E+02  0.19871858842E+02  0.14200000000E+01 0.  1.
         -4   -1    0    0    0  501 -0.00000000000E+00 -0.00000000000E+00 -0.19678221768E+03  0.19678734104E+03  0.14200000000E+01 0. -1.
         25    2    1    2    0    0  0.00000000000E+00  0.00000000000E+00 -0.17696115883E+03  0.21665919989E+03  0.12500382858E+03 0.  0.
        -11    1    3    3    0    0  0.48107860553E+00 -0.60901194538E+02 -0.64135008865E+02  0.88444820624E+02  0.51100000000E-03 0. -1.
         11    1    3    3    0    0 -0.48107860553E+00  0.60901194538E+02 -0.11282614997E+03  0.12821437926E+03  0.51100000000E-03 0.  1.
<mgrwt>
<rscale>  0 0.12500383E+03</rscale>
<asrwt>0</asrwt>
<pdfrwt beam="1">  1        4 0.30536956E-02 0.12500383E+03</pdfrwt>
<pdfrwt beam="2">  1       -4 0.30278488E-01 0.12500383E+03</pdfrwt>
<totfact> 0.87392288E+03</totfact>
</mgrwt>
</event>
<event>
 5    1  0.3296574E-054  0.1249988E+03  0.7818608E-02  0.1235071E+00
          4   -1    0    0  501    0  0.00000000000E+00  0.00000000000E+00  0.13429826981E+02  0.13504690027E+02  0.14200000000E+01 0. -1.
         -4   -1    0    0    0  501 -0.00000000000E+00 -0.00000000000E+00 -0.28997336304E+03  0.28997683989E+03  0.14200000000E+01 0.  1.
         25    2    1    2    0    0  0.00000000000E+00  0.00000000000E+00 -0.27654353606E+03  0.30348152992E+03  0.12499884665E+03 0.  0.
        -11    1    3    3    0    0 -0.57303089981E+02 -0.11374285641E+02 -0.19218804875E+03  0.20087126369E+03  0.51100000000E-03 0.  1.
         11    1    3    3    0    0  0.57303089981E+02  0.11374285641E+02 -0.84355487312E+02  0.10261026623E+03  0.51100000000E-03 0. -1.
<mgrwt>
<rscale>  0 0.12499885E+03</rscale>
<asrwt>0</asrwt>
<pdfrwt beam="1">  1        4 0.20721536E-02 0.12499885E+03</pdfrwt>
<pdfrwt beam="2">  1       -4 0.44617308E-01 0.12499885E+03</pdfrwt>
<totfact> 0.75166113E+03</totfact>
</mgrwt>
</event>
<event>
 5    1  0.3296574E-054  0.1249997E+03  0.7818608E-02  0.1235070E+00
          4   -1    0    0  501    0  0.00000000000E+00  0.00000000000E+00  0.13522716575E+02  0.13597068198E+02  0.14200000000E+01 0. -1.
         -4   -1    0    0    0  501 -0.00000000000E+00 -0.00000000000E+00 -0.28799634045E+03  0.28799984117E+03  0.14200000000E+01 0.  1.
         25    2    1    2    0    0  0.00000000000E+00  0.00000000000E+00 -0.27447362388E+03  0.30159690937E+03  0.12499970214E+03 0.  0.
        -11    1    3    3    0    0 -0.19259659969E+02  0.58440578503E+02 -0.11080659738E+03  0.12674516851E+03  0.51100000000E-03 0.  1.
         11    1    3    3    0    0  0.19259659969E+02 -0.58440578503E+02 -0.16366702650E+03  0.17485174086E+03  0.51100000000E-03 0. -1.
<mgrwt>
<rscale>  0 0.12499970E+03</rscale>
<asrwt>0</asrwt>
<pdfrwt beam="1">  1        4 0.20864068E-02 0.12499970E+03</pdfrwt>
<pdfrwt beam="2">  1       -4 0.44313113E-01 0.12499970E+03</pdfrwt>
<totfact> 0.75399461E+03</totfact>
</mgrwt>
</event>
<event>
 5    1  0.3296574E-054  0.1249991E+03  0.7818608E-02  0.1235071E+00
          4   -1    0    0  501    0  0.00000000000E+00  0.00000000000E+00  0.98127272276E+02  0.98137546150E+02  0.14200000000E+01 0.  1.
         -4   -1    0    0    0  501 -0.00000000000E+00 -0.00000000000E+00 -0.39782379251E+02  0.39807714063E+02  0.14200000000E+01 0. -1.
         25    2    1    2    0    0  0.00000000000E+00  0.00000000000E+00  0.58344893025E+02  0.13794526021E+03  0.12499907309E+03 0.  0.
        -11    1    3    3    0    0 -0.24173116687E+02 -0.47444682367E+02  0.65285586057E+02  0.84246929929E+02  0.51100000000E-03 0. -1.
         11    1    3    3    0    0  0.24173116687E+02  0.47444682367E+02 -0.69406930321E+01  0.53698330284E+02  0.51100000000E-03 0.  1.
<mgrwt>
<rscale>  0 0.12499907E+03</rscale>
<asrwt>0</asrwt>
<pdfrwt beam="1">  1        4 0.15099242E-01 0.12499907E+03</pdfrwt>
<pdfrwt beam="2">  1       -4 0.61231052E-02 0.12499907E+03</pdfrwt>
<totfact> 0.10176563E+04</totfact>
</mgrwt>
</event>
<event>
 5    1  0.3296574E-054  0.1249998E+03  0.7818608E-02  0.1235070E+00
         -4   -1    0    0    0  501 -0.00000000000E+00  0.00000000000E+00  0.35856342865E+03  0.35856624041E+03  0.14200000000E+01 0.  1.
          4   -1    0    0  501    0  0.00000000000E+00 -0.00000000000E+00 -0.10844986048E+02  0.10937555595E+02  0.14200000000E+01 0. -1.
         25    2    1    2    0    0  0.00000000000E+00  0.00000000000E+00  0.34771844260E+03  0.36950379601E+03  0.12499975976E+03 0.  0.
        -11    1    3    3    0    0 -0.15798510367E+02 -0.53736961138E+02  0.25583160201E+03  0.26189131812E+03  0.51100000000E-03 0.  1.
         11    1    3    3    0    0  0.15798510367E+02  0.53736961138E+02  0.91886840590E+02  0.10761247788E+03  0.51100000000E-03 0. -1.
<mgrwt>
<rscale>  0 0.12499976E+03</rscale>
<asrwt>0</asrwt>
<pdfrwt beam="2">  1        4 0.16757966E-02 0.12499976E+03</pdfrwt>
<pdfrwt beam="1">  1       -4 0.55170935E-01 0.12499976E+03</pdfrwt>
<totfact> 0.67631243E+03</totfact>
</mgrwt>
</event>
<event>
 5    1  0.3296574E-054  0.1250030E+03  0.7818608E-02  0.1235065E+00
          4   -1    0    0  501    0  0.00000000000E+00  0.00000000000E+00  0.64094594988E+02  0.64110322934E+02  0.14200000000E+01 0. -1.
         -4   -1    0    0    0  501 -0.00000000000E+00 -0.00000000000E+00 -0.60916494050E+02  0.60933042328E+02  0.14200000000E+01 0.  1.
         25    2    1    2    0    0  0.00000000000E+00  0.00000000000E+00  0.31781009379E+01  0.12504336526E+03  0.12500297145E+03 0.  0.
        -11    1    3    3    0    0 -0.51614980693E+02 -0.35228899977E+02  0.46882615665E+00  0.62493211021E+02  0.51100000000E-03 0.  1.
         11    1    3    3    0    0  0.51614980693E+02  0.35228899977E+02  0.27092747813E+01  0.62550154241E+02  0.51100000000E-03 0. -1.
<mgrwt>
<rscale>  0 0.12500297E+03</rscale>
<asrwt>0</asrwt>
<pdfrwt beam="1">  1        4 0.98631897E-02 0.12500297E+03</pdfrwt>
<pdfrwt beam="2">  1       -4 0.93742511E-02 0.12500297E+03</pdfrwt>
<totfact> 0.10451219E+04</totfact>
</mgrwt>
</event>
<event>
 5    1  0.3296574E-054  0.1250029E+03  0.7818608E-02  0.1235065E+00
         -4   -1    0    0    0  501 -0.00000000000E+00  0.00000000000E+00  0.78325076128E+02  0.78337947066E+02  0.14200000000E+01 0.  1.
          4   -1    0    0  501    0  0.00000000000E+00 -0.00000000000E+00 -0.49847495935E+02  0.49867717523E+02  0.14200000000E+01 0. -1.
         25    2    1    2    0    0  0.00000000000E+00  0.00000000000E+00  0.28477580193E+02  0.12820566459E+03  0.12500287940E+03 0.  0.
        -11    1    3    3    0    0 -0.31164917918E+02 -0.53856420093E+02  0.20277243563E+02  0.65444118917E+02  0.51100000000E-03 0.  1.
         11    1    3    3    0    0  0.31164917918E+02  0.53856420093E+02  0.82003366305E+01  0.62761545672E+02  0.51100000000E-03 0. -1.
<mgrwt>
<rscale>  0 0.12500288E+03</rscale>
<asrwt>0</asrwt>
<pdfrwt beam="2">  1        4 0.76713911E-02 0.12500288E+03</pdfrwt>
<pdfrwt beam="1">  1       -4 0.12052557E-01 0.12500288E+03</pdfrwt>
<totfact> 0.10382374E+04</totfact>
</mgrwt>
</event>
<event>
 5    1  0.3296574E-054  0.1249982E+03  0.7818608E-02  0.1235072E+00
          4   -1    0    0  501    0  0.00000000000E+00  0.00000000000E+00  0.53933075297E+02  0.53951765597E+02  0.14200000000E+01 0.  1.
         -4   -1    0    0    0  501 -0.00000000000E+00 -0.00000000000E+00 -0.72387390192E+02  0.72401316692E+02  0.14200000000E+01 0. -1.
         25    2    1    2    0    0  0.00000000000E+00  0.00000000000E+00 -0.18454314895E+02  0.12635308229E+03  0.12499815865E+03 0.  0.
        -11    1    3    3    0    0 -0.58702558484E+02 -0.21350920631E+02 -0.11319065862E+02  0.63482071773E+02  0.51100000000E-03 0. -1.
         11    1    3    3    0    0  0.58702558484E+02  0.21350920631E+02 -0.71352490328E+01  0.62871010516E+02  0.51100000000E-03 0.  1.
<mgrwt>
<rscale>  0 0.12499816E+03</rscale>
<asrwt>0</asrwt>
<pdfrwt beam="1">  1        4 0.82999052E-02 0.12499816E+03</pdfrwt>
<pdfrwt beam="2">  1       -4 0.11139031E-01 0.12499816E+03</pdfrwt>
<totfact> 0.10423667E+04</totfact>
</mgrwt>
</event>
<event>
 5    1  0.4972496E-054  0.1249996E+03  0.7818608E-02  0.1235070E+00
         -4   -1    0    0    0  501 -0.00000000000E+00  0.00000000000E+00  0.43727169310E+03  0.43727399875E+03  0.14200000000E+01 0.  1.
          4   -1    0    0  501    0  0.00000000000E+00 -0.00000000000E+00 -0.88744022688E+01  0.89872918962E+01  0.14200000000E+01 0. -1.
         25    2    1    2    0    0  0.00000000000E+00  0.00000000000E+00  0.42839729083E+03  0.44626129065E+03  0.12499960296E+03 0.  0.
        -11    1    3    3    0    0  0.60774728739E+02  0.14352401333E+02  0.22341622184E+03  0.23197923885E+03  0.51100000000E-03 0.  1.
         11    1    3    3    0    0 -0.60774728739E+02 -0.14352401333E+02  0.20498106899E+03  0.21428205179E+03  0.51100000000E-03 0. -1.
<mgrwt>
<rscale>  0 0.12499960E+03</rscale>
<asrwt>0</asrwt>
<pdfrwt beam="2">  1        4 0.13741540E-02 0.12499960E+03</pdfrwt>
<pdfrwt beam="1">  1       -4 0.67281419E-01 0.12499960E+03</pdfrwt>
<totfact> 0.60289584E+03</totfact>
</mgrwt>
</event>
<event>
 5    1  0.3296574E-054  0.1249993E+03  0.7818608E-02  0.1235070E+00
         -4   -1    0    0    0  501 -0.00000000000E+00  0.00000000000E+00  0.25906424549E+02  0.25945312349E+02  0.14200000000E+01 0.  1.
          4   -1    0    0  501    0  0.00000000000E+00 -0.00000000000E+00 -0.15062602733E+03  0.15063272058E+03  0.14200000000E+01 0. -1.
         25    2    1    2    0    0  0.00000000000E+00  0.00000000000E+00 -0.12471960278E+03  0.17657803293E+03  0.12499928958E+03 0.  0.
        -11    1    3    3    0    0  0.25374386123E+02  0.48802677254E+02 -0.20439005222E+02  0.58679755563E+02  0.51100000000E-03 0.  1.
         11    1    3    3    0    0 -0.25374386123E+02 -0.48802677254E+02 -0.10428059756E+03  0.11789827737E+03  0.51100000000E-03 0. -1.
<mgrwt>
<rscale>  0 0.12499929E+03</rscale>
<asrwt>0</asrwt>
<pdfrwt beam="2">  1        4 0.23176741E-01 0.12499929E+03</pdfrwt>
<pdfrwt beam="1">  1       -4 0.39891101E-02 0.12499929E+03</pdfrwt>
<totfact> 0.94238122E+03</totfact>
</mgrwt>
</event>
<event>
 5    1  0.3296574E-054  0.1250002E+03  0.7818608E-02  0.1235069E+00
          4   -1    0    0  501    0  0.00000000000E+00  0.00000000000E+00  0.99508597559E+02  0.99518728831E+02  0.14200000000E+01 0. -1.
         -4   -1    0    0    0  501 -0.00000000000E+00 -0.00000000000E+00 -0.39230522954E+02  0.39256213919E+02  0.14200000000E+01 0.  1.
         25    2    1    2    0    0  0.00000000000E+00  0.00000000000E+00  0.60278074605E+02  0.13877494275E+03  0.12500015383E+03 0.  0.
        -11    1    3    3    0    0 -0.23010681472E+01  0.60394409814E+02  0.47814562486E+02  0.77064985806E+02  0.51100000000E-03 0.  1.
         11    1    3    3    0    0  0.23010681472E+01 -0.60394409814E+02  0.12463512120E+02  0.61709956943E+02  0.51100000000E-03 0. -1.
<mgrwt>
<rscale>  0 0.12500015E+03</rscale>
<asrwt>0</asrwt>
<pdfrwt beam="1">  1        4 0.15311770E-01 0.12500015E+03</pdfrwt>
<pdfrwt beam="2">  1       -4 0.60382207E-02 0.12500015E+03</pdfrwt>
<totfact> 0.10159004E+04</totfact>
</mgrwt>
</event>
<event>
 5    1  0.3296574E-054  0.1250010E+03  0.7818608E-02  0.1235068E+00
         -4   -1    0    0    0  501 -0.00000000000E+00  0.00000000000E+00  0.18109879112E+03  0.18110435816E+03  0.14200000000E+01 0.  1.
          4   -1    0    0  501    0  0.00000000000E+00 -0.00000000000E+00 -0.21540772493E+02  0.21587526019E+02  0.14200000000E+01 0. -1.
         25    2    1    2    0    0  0.00000000000E+00  0.00000000000E+00  0.15955801862E+03  0.20269188418E+03  0.12500095441E+03 0.  0.
        -11    1    3    3    0    0 -0.59647727186E+02 -0.18597332512E+02  0.77165631890E+02  0.99288704696E+02  0.51100000000E-03 0.  1.
         11    1    3    3    0    0  0.59647727186E+02  0.18597332512E+02  0.82392386734E+02  0.10340317948E+03  0.51100000000E-03 0. -1.
<mgrwt>
<rscale>  0 0.12500095E+03</rscale>
<asrwt>0</asrwt>
<pdfrwt beam="2">  1        4 0.33179896E-02 0.12500095E+03</pdfrwt>
<pdfrwt beam="1">  1       -4 0.27865378E-01 0.12500095E+03</pdfrwt>
<totfact> 0.89681560E+03</totfact>
</mgrwt>
</event>
<event>
 5    1  0.3296574E-054  0.1249989E+03  0.7818608E-02  0.1235071E+00
         -4   -1    0    0    0  501 -0.00000000000E+00  0.00000000000E+00  0.81642392599E+02  0.81654740642E+02  0.14200000000E+01 0.  1.
          4   -1    0    0  501    0  0.00000000000E+00 -0.00000000000E+00 -0.47818523789E+02  0.47839603023E+02  0.14200000000E+01 0. -1.
         25    2    1    2    0    0  0.00000000000E+00  0.00000000000E+00  0.33823868810E+02  0.12949434366E+03  0.12499892375E+03 0.  0.
        -11    1    3    3    0    0  0.53797422739E+02  0.28045385858E+02  0.13560378850E+01  0.60683978119E+02  0.51100000000E-03 0.  1.
         11    1    3    3    0    0 -0.53797422739E+02 -0.28045385858E+02  0.32467830925E+02  0.68810365546E+02  0.51100000000E-03 0. -1.
<mgrwt>
<rscale>  0 0.12499892E+03</rscale>
<asrwt>0</asrwt>
<pdfrwt beam="2">  1        4 0.73592673E-02 0.12499892E+03</pdfrwt>
<pdfrwt beam="1">  1       -4 0.12562939E-01 0.12499892E+03</pdfrwt>
<totfact> 0.10355588E+04</totfact>
</mgrwt>
</event>
<event>
 5    1  0.3296574E-054  0.1250061E+03  0.7818608E-02  0.1235060E+00
         -4   -1    0    0    0  501 -0.00000000000E+00  0.00000000000E+00  0.21145407121E+02  0.21193032872E+02  0.14200000000E+01 0.  1.
          4   -1    0    0  501    0  0.00000000000E+00 -0.00000000000E+00 -0.18449250923E+03  0.18449797387E+03  0.14200000000E+01 0. -1.
         25    2    1    2    0    0  0.00000000000E+00  0.00000000000E+00 -0.16334710211E+03  0.20569100674E+03  0.12500605780E+03 0.  0.
        -11    1    3    3    0    0  0.29968175080E+02 -0.54828828685E+02 -0.79158302115E+02  0.10084804791E+03  0.51100000000E-03 0.  1.
         11    1    3    3    0    0 -0.29968175080E+02  0.54828828685E+02 -0.84188799993E+02  0.10484295883E+03  0.51100000000E-03 0. -1.
<mgrwt>
<rscale>  0 0.12500606E+03</rscale>
<asrwt>0</asrwt>
<pdfrwt beam="2">  1        4 0.28387546E-01 0.12500606E+03</pdfrwt>
<pdfrwt beam="1">  1       -4 0.32572236E-02 0.12500606E+03</pdfrwt>
<totfact> 0.89172385E+03</totfact>
</mgrwt>
</event>
<event>
 5    1  0.3296574E-054  0.1250022E+03  0.7818608E-02  0.1235066E+00
          4   -1    0    0  501    0  0.00000000000E+00  0.00000000000E+00  0.17853770049E+02  0.17910150891E+02  0.14200000000E+01 0.  1.
         -4   -1    0    0    0  501 -0.00000000000E+00 -0.00000000000E+00 -0.21839527992E+03  0.21839989627E+03  0.14200000000E+01 0. -1.
         25    2    1    2    0    0  0.00000000000E+00  0.00000000000E+00 -0.20054150987E+03  0.23631004716E+03  0.12500216482E+03 0.  0.
        -11    1    3    3    0    0  0.25291366782E+02 -0.55216703089E+02 -0.12817313243E+03  0.14183402064E+03  0.51100000000E-03 0. -1.
         11    1    3    3    0    0 -0.25291366782E+02  0.55216703089E+02 -0.72368377439E+02  0.94476026521E+02  0.51100000000E-03 0.  1.
<mgrwt>
<rscale>  0 0.12500216E+03</rscale>
<asrwt>0</asrwt>
<pdfrwt beam="1">  1        4 0.27514261E-02 0.12500216E+03</pdfrwt>
<pdfrwt beam="2">  1       -4 0.33603964E-01 0.12500216E+03</pdfrwt>
<totfact> 0.84345936E+03</totfact>
</mgrwt>
</event>
<event>
 5    1  0.3296574E-054  0.1249961E+03  0.7818608E-02  0.1235075E+00
         -4   -1    0    0    0  501 -0.00000000000E+00  0.00000000000E+00  0.18437022141E+02  0.18491624738E+02  0.14200000000E+01 0.  1.
          4   -1    0    0  501    0  0.00000000000E+00 -0.00000000000E+00 -0.21148640085E+03  0.21149116801E+03  0.14200000000E+01 0. -1.
         25    2    1    2    0    0  0.00000000000E+00  0.00000000000E+00 -0.19304937871E+03  0.22998279275E+03  0.12499608929E+03 0.  0.
        -11    1    3    3    0    0  0.22272379525E+02 -0.56104226844E+02 -0.66728072671E+02  0.89979880207E+02  0.51100000000E-03 0.  1.
         11    1    3    3    0    0 -0.22272379525E+02  0.56104226844E+02 -0.12632130604E+03  0.14000291254E+03  0.51100000000E-03 0. -1.
<mgrwt>
<rscale>  0 0.12499609E+03</rscale>
<asrwt>0</asrwt>
<pdfrwt beam="2">  1        4 0.32540935E-01 0.12499609E+03</pdfrwt>
<pdfrwt beam="1">  1       -4 0.28410320E-02 0.12499609E+03</pdfrwt>
<totfact> 0.85319684E+03</totfact>
</mgrwt>
</event>
<event>
 5    1  0.3296574E-054  0.1250006E+03  0.7818608E-02  0.1235068E+00
          4   -1    0    0  501    0  0.00000000000E+00  0.00000000000E+00  0.20008868831E+03  0.20009372702E+03  0.14200000000E+01 0.  1.
         -4   -1    0    0    0  501 -0.00000000000E+00 -0.00000000000E+00 -0.19491667976E+02  0.19543324192E+02  0.14200000000E+01 0. -1.
         25    2    1    2    0    0  0.00000000000E+00  0.00000000000E+00  0.18059702034E+03  0.21963705121E+03  0.12500060203E+03 0.  0.
        -11    1    3    3    0    0  0.54129964412E+02  0.17191198205E+02  0.44455776375E+02  0.72124242778E+02  0.51100000000E-03 0. -1.
         11    1    3    3    0    0 -0.54129964412E+02 -0.17191198205E+02  0.13614124396E+03  0.14751280843E+03  0.51100000000E-03 0.  1.
<mgrwt>
<rscale>  0 0.12500060E+03</rscale>
<asrwt>0</asrwt>
<pdfrwt beam="1">  1        4 0.30787237E-01 0.12500060E+03</pdfrwt>
<pdfrwt beam="2">  1       -4 0.30030793E-02 0.12500060E+03</pdfrwt>
<totfact> 0.86924644E+03</totfact>
</mgrwt>
</event>
<event>
 5    1  0.3296574E-054  0.1249975E+03  0.7818608E-02  0.1235073E+00
          4   -1    0    0  501    0  0.00000000000E+00  0.00000000000E+00  0.44028834615E+03  0.44029063601E+03  0.14200000000E+01 0.  1.
         -4   -1    0    0    0  501 -0.00000000000E+00 -0.00000000000E+00 -0.88125178877E+01  0.89261902020E+01  0.14200000000E+01 0. -1.
         25    2    1    2    0    0  0.00000000000E+00  0.00000000000E+00  0.43147582826E+03  0.44921682621E+03  0.12499746627E+03 0.  0.
        -11    1    3    3    0    0 -0.62301958036E+02  0.18874302640E+01  0.19927087215E+03  0.20879170687E+03  0.51100000000E-03 0. -1.
         11    1    3    3    0    0  0.62301958036E+02 -0.18874302640E+01  0.23220495611E+03  0.24042511934E+03  0.51100000000E-03 0.  1.
<mgrwt>
<rscale>  0 0.12499747E+03</rscale>
<asrwt>0</asrwt>
<pdfrwt beam="1">  1        4 0.67745567E-01 0.12499747E+03</pdfrwt>
<pdfrwt beam="2">  1       -4 0.13646926E-02 0.12499747E+03</pdfrwt>
<totfact> 0.60035062E+03</totfact>
</mgrwt>
</event>
<event>
 5    1  0.3296574E-054  0.1249968E+03  0.7818608E-02  0.1235074E+00
         -4   -1    0    0    0  501 -0.00000000000E+00  0.00000000000E+00  0.34976847521E+02  0.35005660435E+02  0.14200000000E+01 0.  1.
          4   -1    0    0  501    0  0.00000000000E+00 -0.00000000000E+00 -0.11159602192E+03  0.11160505592E+03  0.14200000000E+01 0. -1.
         25    2    1    2    0    0  0.00000000000E+00  0.00000000000E+00 -0.76619174394E+02  0.14661071636E+03  0.12499681702E+03 0.  0.
        -11    1    3    3    0    0 -0.43009454872E+02  0.42213480768E+02 -0.18885173553E+02  0.63154104754E+02  0.51100000000E-03 0.  1.
         11    1    3    3    0    0  0.43009454872E+02 -0.42213480768E+02 -0.57734000841E+02  0.83456611603E+02  0.51100000000E-03 0. -1.
<mgrwt>
<rscale>  0 0.12499682E+03</rscale>
<asrwt>0</asrwt>
<pdfrwt beam="2">  1        4 0.17171530E-01 0.12499682E+03</pdfrwt>
<pdfrwt beam="1">  1       -4 0.53839648E-02 0.12499682E+03</pdfrwt>
<totfact> 0.99990809E+03</totfact>
</mgrwt>
</event>
<event>
 5    1  0.3296574E-054  0.1250013E+03  0.7818608E-02  0.1235067E+00
         -4   -1    0    0    0  501 -0.00000000000E+00  0.00000000000E+00  0.52784831820E+02  0.52803928550E+02  0.14200000000E+01 0.  1.
          4   -1    0    0  501    0  0.00000000000E+00 -0.00000000000E+00 -0.73965511820E+02  0.73979141242E+02  0.14200000000E+01 0. -1.
         25    2    1    2    0    0  0.00000000000E+00  0.00000000000E+00 -0.21180680000E+02  0.12678306979E+03  0.12500130232E+03 0.  0.
        -11    1    3    3    0    0  0.29517320565E+02  0.34092906132E+02  0.33301587115E+02  0.56058845568E+02  0.51100000000E-03 0.  1.
         11    1    3    3    0    0 -0.29517320565E+02 -0.34092906132E+02 -0.54482267115E+02  0.70724224224E+02  0.51100000000E-03 0. -1.
<mgrwt>
<rscale>  0 0.12500130E+03</rscale>
<asrwt>0</asrwt>
<pdfrwt beam="2">  1        4 0.11381827E-01 0.12500130E+03</pdfrwt>
<pdfrwt beam="1">  1       -4 0.81232608E-02 0.12500130E+03</pdfrwt>
<totfact> 0.10413556E+04</totfact>
</mgrwt>
</event>
<event>
 5    1  0.3296574E-054  0.1250047E+03  0.7818608E-02  0.1235062E+00
          4   -1    0    0  501    0  0.00000000000E+00  0.00000000000E+00  0.25099525475E+02  0.25139661475E+02  0.14200000000E+01 0. -1.
         -4   -1    0    0    0  501 -0.00000000000E+00 -0.00000000000E+00 -0.15547442725E+03  0.15548091178E+03  0.14200000000E+01 0.  1.
         25    2    1    2    0    0  0.00000000000E+00  0.00000000000E+00 -0.13037490177E+03  0.18062057325E+03  0.12500470579E+03 0.  0.
        -11    1    3    3    0    0 -0.32280062440E+02 -0.37184828331E+02 -0.12080861561E+03  0.13045855854E+03  0.51100000000E-03 0.  1.
         11    1    3    3    0    0  0.32280062440E+02  0.37184828331E+02 -0.95662861572E+01  0.50162014715E+02  0.51100000000E-03 0. -1.
<mgrwt>
<rscale>  0 0.12500471E+03</rscale>
<asrwt>0</asrwt>
<pdfrwt beam="1">  1        4 0.38650517E-02 0.12500471E+03</pdfrwt>
<pdfrwt beam="2">  1       -4 0.23922728E-01 0.12500471E+03</pdfrwt>
<totfact> 0.93495553E+03</totfact>
</mgrwt>
</event>
<event>
 5    1  0.3296574E-054  0.1250082E+03  0.7818608E-02  0.1235056E+00
          4   -1    0    0  501    0  0.00000000000E+00  0.00000000000E+00  0.24043324970E+03  0.24043744292E+03  0.14200000000E+01 0. -1.
         -4   -1    0    0    0  501 -0.00000000000E+00 -0.00000000000E+00 -0.16213475358E+02  0.16275539413E+02  0.14200000000E+01 0.  1.
         25    2    1    2    0    0  0.00000000000E+00  0.00000000000E+00  0.22421977434E+03  0.25671298234E+03  0.12500819211E+03 0.  0.
        -11    1    3    3    0    0 -0.48969752675E+02  0.37509238233E+02  0.91391989297E+02  0.11026094203E+03  0.51100000000E-03 0.  1.
         11    1    3    3    0    0  0.48969752675E+02 -0.37509238233E+02  0.13282778504E+03  0.14645204030E+03  0.51100000000E-03 0. -1.
<mgrwt>
<rscale>  0 0.12500819E+03</rscale>
<asrwt>0</asrwt>
<pdfrwt beam="1">  1        4 0.36994827E-01 0.12500819E+03</pdfrwt>
<pdfrwt beam="2">  1       -4 0.24994776E-02 0.12500819E+03</pdfrwt>
<totfact> 0.81354730E+03</totfact>
</mgrwt>
</event>
<event>
 5    1  0.3296574E-054  0.1250035E+03  0.7818608E-02  0.1235064E+00
          4   -1    0    0  501    0  0.00000000000E+00  0.00000000000E+00  0.72367292675E+02  0.72381223043E+02  0.14200000000E+01 0. -1.
         -4   -1    0    0    0  501 -0.00000000000E+00 -0.00000000000E+00 -0.53952698799E+02  0.53971382303E+02  0.14200000000E+01 0.  1.
         25    2    1    2    0    0  0.00000000000E+00  0.00000000000E+00  0.18414593877E+02  0.12635260535E+03  0.12500353439E+03 0.  0.
        -11    1    3    3    0    0 -0.24098291991E+02 -0.55778714487E+02  0.24010425908E+02  0.65333706609E+02  0.51100000000E-03 0.  1.
         11    1    3    3    0    0  0.24098291991E+02  0.55778714487E+02 -0.55958320311E+01  0.61018898737E+02  0.51100000000E-03 0. -1.
<mgrwt>
<rscale>  0 0.12500353E+03</rscale>
<asrwt>0</asrwt>
<pdfrwt beam="1">  1        4 0.11135938E-01 0.12500353E+03</pdfrwt>
<pdfrwt beam="2">  1       -4 0.83029239E-02 0.12500353E+03</pdfrwt>
<totfact> 0.10422413E+04</totfact>
</mgrwt>
</event>
<event>
 5    1  0.3296574E-054  0.1249995E+03  0.7818608E-02  0.1235070E+00
          4   -1    0    0  501    0  0.00000000000E+00  0.00000000000E+00  0.12191252495E+03  0.12192079453E+03  0.14200000000E+01 0.  1.
         -4   -1    0    0    0  501 -0.00000000000E+00 -0.00000000000E+00 -0.32016072342E+02  0.32047547304E+02  0.14200000000E+01 0. -1.
         25    2    1    2    0    0  0.00000000000E+00  0.00000000000E+00  0.89896452608E+02  0.15396834184E+03  0.12499951239E+03 0.  0.
        -11    1    3    3    0    0 -0.18817269800E+01 -0.61770604990E+02  0.33454526587E+02  0.70273422335E+02  0.51100000000E-03 0. -1.
         11    1    3    3    0    0  0.18817269800E+01  0.61770604990E+02  0.56441926020E+02  0.83694919502E+02  0.51100000000E-03 0.  1.
<mgrwt>
<rscale>  0 0.12499951E+03</rscale>
<asrwt>0</asrwt>
<pdfrwt beam="1">  1        4 0.18758830E-01 0.12499951E+03</pdfrwt>
<pdfrwt beam="2">  1       -4 0.49286068E-02 0.12499951E+03</pdfrwt>
<totfact> 0.98519488E+03</totfact>
</mgrwt>
</event>
<event>
 5    1  0.3296574E-054  0.1249999E+03  0.7818608E-02  0.1235070E+00
          4   -1    0    0  501    0  0.00000000000E+00  0.00000000000E+00  0.38969764580E+03  0.38970023292E+03  0.14200000000E+01 0. -1.
         -4   -1    0    0    0  501 -0.00000000000E+00 -0.00000000000E+00 -0.99708497040E+01  0.10071456887E+02  0.14200000000E+01 0.  1.
         25    2    1    2    0    0  0.00000000000E+00  0.00000000000E+00  0.37972679609E+03  0.39977168981E+03  0.12499985721E+03 0.  0.
        -11    1    3    3    0    0  0.31867574751E+00 -0.58439444654E+02  0.11899863099E+03  0.13257429775E+03  0.51100000000E-03 0.  1.
         11    1    3    3    0    0 -0.31867574751E+00  0.58439444654E+02  0.26072816510E+03  0.26719739206E+03  0.51100000000E-03 0. -1.
<mgrwt>
<rscale>  0 0.12499986E+03</rscale>
<asrwt>0</asrwt>
<pdfrwt beam="1">  1        4 0.59961409E-01 0.12499986E+03</pdfrwt>
<pdfrwt beam="2">  1       -4 0.15419152E-02 0.12499986E+03</pdfrwt>
<totfact> 0.64575210E+03</totfact>
</mgrwt>
</event>
<event>
 5    1  0.3296574E-054  0.1250017E+03  0.7818608E-02  0.1235067E+00
         -4   -1    0    0    0  501 -0.00000000000E+00  0.00000000000E+00  0.13778981208E+03  0.13779712883E+03  0.14200000000E+01 0.  1.
          4   -1    0    0  501    0  0.00000000000E+00 -0.00000000000E+00 -0.28324249674E+02  0.28359822278E+02  0.14200000000E+01 0. -1.
         25    2    1    2    0    0  0.00000000000E+00  0.00000000000E+00  0.10946556241E+03  0.16615695111E+03  0.12500169218E+03 0.  0.
        -11    1    3    3    0    0  0.54192118993E+02 -0.30756418933E+02  0.61191931692E+02  0.87333816880E+02  0.51100000000E-03 0.  1.
         11    1    3    3    0    0 -0.54192118993E+02  0.30756418933E+02  0.48273630715E+02  0.78823134225E+02  0.51100000000E-03 0. -1.
<mgrwt>
<rscale>  0 0.12500169E+03</rscale>
<asrwt>0</asrwt>
<pdfrwt beam="2">  1        4 0.43608761E-02 0.12500169E+03</pdfrwt>
<pdfrwt beam="1">  1       -4 0.21201732E-01 0.12500169E+03</pdfrwt>
<totfact> 0.96165077E+03</totfact>
</mgrwt>
</event>
<event>
 5    1  0.3296574E-054  0.1250089E+03  0.7818608E-02  0.1235055E+00
          4   -1    0    0  501    0  0.00000000000E+00  0.00000000000E+00  0.67533245525E+02  0.67548172818E+02  0.14200000000E+01 0. -1.
         -4   -1    0    0    0  501 -0.00000000000E+00 -0.00000000000E+00 -0.57820053658E+02  0.57837487886E+02  0.14200000000E+01 0.  1.
         25    2    1    2    0    0  0.00000000000E+00  0.00000000000E+00  0.97131918669E+01  0.12538566070E+03  0.12500887094E+03 0.  0.
        -11    1    3    3    0    0  0.81404649958E+01  0.61260069149E+02 -0.45386651174E+01  0.61965012094E+02  0.51100000000E-03 0.  1.
         11    1    3    3    0    0 -0.81404649958E+01 -0.61260069149E+02  0.14251856984E+02  0.63420648611E+02  0.51100000000E-03 0. -1.
<mgrwt>
<rscale>  0 0.12500887E+03</rscale>
<asrwt>0</asrwt>
<pdfrwt beam="1">  1        4 0.10392219E-01 0.12500887E+03</pdfrwt>
<pdfrwt beam="2">  1       -4 0.88978823E-02 0.12500887E+03</pdfrwt>
<totfact> 0.10442396E+04</totfact>
</mgrwt>
</event>
<event>
 5    1  0.3296574E-054  0.1250018E+03  0.7818608E-02  0.1235066E+00
          4   -1    0    0  501    0  0.00000000000E+00  0.00000000000E+00  0.75454615250E+02  0.75467975742E+02  0.14200000000E+01 0.  1.
         -4   -1    0    0    0  501 -0.00000000000E+00 -0.00000000000E+00 -0.51743344615E+02  0.51762825579E+02  0.14200000000E+01 0. -1.
         25    2    1    2    0    0  0.00000000000E+00  0.00000000000E+00  0.23711270635E+02  0.12723080132E+03  0.12500180979E+03 0.  0.
        -11    1    3    3    0    0  0.47495351744E+02  0.22605749501E+02 -0.22503304214E+02  0.57212123266E+02  0.51100000000E-03 0. -1.
         11    1    3    3    0    0 -0.47495351744E+02 -0.22605749501E+02  0.46214574849E+02  0.70018678055E+02  0.51100000000E-03 0.  1.
<mgrwt>
<rscale>  0 0.12500181E+03</rscale>
<asrwt>0</asrwt>
<pdfrwt beam="1">  1        4 0.11610929E-01 0.12500181E+03</pdfrwt>
<pdfrwt beam="2">  1       -4 0.79630408E-02 0.12500181E+03</pdfrwt>
<totfact> 0.10403710E+04</totfact>
</mgrwt>
</event>
<event>
 5    1  0.3296574E-054  0.1249829E+03  0.7818608E-02  0.1235096E+00
          4   -1    0    0  501    0  0.00000000000E+00  0.00000000000E+00  0.45440997295E+02  0.45463178894E+02  0.14200000000E+01 0. -1.
         -4   -1    0    0    0  501 -0.00000000000E+00 -0.00000000000E+00 -0.85890631053E+02  0.85902368435E+02  0.14200000000E+01 0.  1.
         25    2    1    2    0    0  0.00000000000E+00  0.00000000000E+00 -0.40449633758E+02  0.13136554733E+03  0.12498293545E+03 0.  0.
        -11    1    3    3    0    0 -0.23196846956E+01 -0.54090506233E+02 -0.53027897968E+02  0.75783387129E+02  0.51100000000E-03 0.  1.
         11    1    3    3    0    0  0.23196846956E+01  0.54090506233E+02  0.12578264210E+02  0.55582160200E+02  0.51100000000E-03 0. -1.
<mgrwt>
<rscale>  0 0.12498294E+03</rscale>
<asrwt>0</asrwt>
<pdfrwt beam="1">  1        4 0.69935318E-02 0.12498294E+03</pdfrwt>
<pdfrwt beam="2">  1       -4 0.13216552E-01 0.12498294E+03</pdfrwt>
<totfact> 0.10319231E+04</totfact>
</mgrwt>
</event>
<event>
 5    1  0.3296574E-054  0.1250051E+03  0.7818608E-02  0.1235061E+00
          4   -1    0    0  501    0  0.00000000000E+00  0.00000000000E+00  0.84722666909E+02  0.84734566076E+02  0.14200000000E+01 0. -1.
         -4   -1    0    0    0  501 -0.00000000000E+00 -0.00000000000E+00 -0.46083972329E+02  0.46105844593E+02  0.14200000000E+01 0.  1.
         25    2    1    2    0    0  0.00000000000E+00  0.00000000000E+00  0.38638694580E+02  0.13084041067E+03  0.12500505728E+03 0.  0.
        -11    1    3    3    0    0  0.20559561523E+02  0.49971368516E+02  0.52198007156E+02  0.75129655880E+02  0.51100000000E-03 0. -1.
         11    1    3    3    0    0 -0.20559561523E+02 -0.49971368516E+02 -0.13559312576E+02  0.55710754789E+02  0.51100000000E-03 0.  1.
<mgrwt>
<rscale>  0 0.12500506E+03</rscale>
<asrwt>0</asrwt>
<pdfrwt beam="1">  1        4 0.13036854E-01 0.12500506E+03</pdfrwt>
<pdfrwt beam="2">  1       -4 0.70924397E-02 0.12500506E+03</pdfrwt>
<totfact> 0.10325334E+04</totfact>
</mgrwt>
</event>
<event>
 5    1  0.3296574E-054  0.1250000E+03  0.7818608E-02  0.1235069E+00
         -4   -1    0    0    0  501 -0.00000000000E+00  0.00000000000E+00  0.89392908633E+02  0.89404186222E+02  0.14200000000E+01 0.  1.
          4   -1    0    0  501    0  0.00000000000E+00 -0.00000000000E+00 -0.43671951311E+02  0.43695030969E+02  0.14200000000E+01 0. -1.
         25    2    1    2    0    0  0.00000000000E+00  0.00000000000E+00  0.45720957322E+02  0.13309921719E+03  0.12499998271E+03 0.  0.
        -11    1    3    3    0    0  0.11577403983E+01 -0.37113839926E+02  0.76391887945E+02  0.84938201187E+02  0.51100000000E-03 0.  1.
         11    1    3    3    0    0 -0.11577403983E+01  0.37113839926E+02 -0.30670930623E+02  0.48161016003E+02  0.51100000000E-03 0. -1.
<mgrwt>
<rscale>  0 0.12499998E+03</rscale>
<asrwt>0</asrwt>
<pdfrwt beam="2">  1        4 0.67214047E-02 0.12499998E+03</pdfrwt>
<pdfrwt beam="1">  1       -4 0.13755398E-01 0.12499998E+03</pdfrwt>
<totfact> 0.10278296E+04</totfact>
</mgrwt>
</event>
<event>
 5    1  0.3296574E-054  0.1250033E+03  0.7818608E-02  0.1235064E+00
         -4   -1    0    0    0  501 -0.00000000000E+00  0.00000000000E+00  0.30502003178E+02  0.30535038855E+02  0.14200000000E+01 0. -1.
          4   -1    0    0  501    0  0.00000000000E+00 -0.00000000000E+00 -0.12796587415E+03  0.12797375257E+03  0.14200000000E+01 0.  1.
         25    2    1    2    0    0  0.00000000000E+00  0.00000000000E+00 -0.97463870968E+02  0.15850879142E+03  0.12500332321E+03 0.  0.
        -11    1    3    3    0    0  0.56950870217E+01 -0.59963031496E+02 -0.27572110693E+02  0.66243644606E+02  0.51100000000E-03 0. -1.
         11    1    3    3    0    0 -0.56950870217E+01  0.59963031496E+02 -0.69891760275E+02  0.92265146816E+02  0.51100000000E-03 0.  1.
<mgrwt>
<rscale>  0 0.12500332E+03</rscale>
<asrwt>0</asrwt>
<pdfrwt beam="2">  1        4 0.19690205E-01 0.12500332E+03</pdfrwt>
<pdfrwt beam="1">  1       -4 0.46957632E-02 0.12500332E+03</pdfrwt>
<totfact> 0.97623757E+03</totfact>
</mgrwt>
</event>
<event>
 5    1  0.3296574E-054  0.1249990E+03  0.7818608E-02  0.1235071E+00
         -4   -1    0    0    0  501 -0.00000000000E+00  0.00000000000E+00  0.36761270297E+02  0.36788685677E+02  0.14200000000E+01 0.  1.
          4   -1    0    0  501    0  0.00000000000E+00 -0.00000000000E+00 -0.10618653808E+03  0.10619603226E+03  0.14200000000E+01 0. -1.
         25    2    1    2    0    0  0.00000000000E+00  0.00000000000E+00 -0.69425267779E+02  0.14298471794E+03  0.12499904703E+03 0.  0.
        -11    1    3    3    0    0 -0.78386272647E+01 -0.61654827731E+02 -0.27174380479E+02  0.67832210746E+02  0.51100000000E-03 0.  1.
         11    1    3    3    0    0  0.78386272647E+01  0.61654827731E+02 -0.42250887300E+02  0.75152507196E+02  0.51100000000E-03 0. -1.
<mgrwt>
<rscale>  0 0.12499905E+03</rscale>
<asrwt>0</asrwt>
<pdfrwt beam="2">  1        4 0.16339230E-01 0.12499905E+03</pdfrwt>
<pdfrwt beam="1">  1       -4 0.56584193E-02 0.12499905E+03</pdfrwt>
<totfact> 0.10072312E+04</totfact>
</mgrwt>
</event>
<event>
 5    1  0.3296574E-054  0.1250155E+03  0.7818608E-02  0.1235045E+00
         -4   -1    0    0    0  501 -0.00000000000E+00  0.00000000000E+00  0.28401047572E+02  0.28436524106E+02  0.14200000000E+01 0.  1.
          4   -1    0    0  501    0  0.00000000000E+00 -0.00000000000E+00 -0.13744812735E+03  0.13745546229E+03  0.14200000000E+01 0. -1.
         25    2    1    2    0    0  0.00000000000E+00  0.00000000000E+00 -0.10904707978E+03  0.16589198639E+03  0.12501554120E+03 0.  0.
        -11    1    3    3    0    0 -0.24294523883E+02  0.48510040912E+02 -0.13328125524E+02  0.55866688556E+02  0.51100000000E-03 0.  1.
         11    1    3    3    0    0  0.24294523883E+02 -0.48510040912E+02 -0.95718954255E+02  0.11002529784E+03  0.51100000000E-03 0. -1.
<mgrwt>
<rscale>  0 0.12501554E+03</rscale>
<asrwt>0</asrwt>
<pdfrwt beam="2">  1        4 0.21149158E-01 0.12501554E+03</pdfrwt>
<pdfrwt beam="1">  1       -4 0.43726852E-02 0.12501554E+03</pdfrwt>
<totfact> 0.96185149E+03</totfact>
</mgrwt>
</event>
<event>
 5    1  0.3296574E-054  0.1250013E+03  0.7818608E-02  0.1235067E+00
         -4   -1    0    0    0  501 -0.00000000000E+00  0.00000000000E+00  0.16541836097E+02  0.16602672721E+02  0.14200000000E+01 0.  1.
          4   -1    0    0  501    0  0.00000000000E+00 -0.00000000000E+00 -0.23565225557E+03  0.23565653387E+03  0.14200000000E+01 0. -1.
         25    2    1    2    0    0  0.00000000000E+00  0.00000000000E+00 -0.21911041948E+03  0.25225920659E+03  0.12500132555E+03 0.  0.
        -11    1    3    3    0    0 -0.56216643116E+02 -0.27308410303E+02 -0.11060887703E+03  0.12704481066E+03  0.51100000000E-03 0.  1.
         11    1    3    3    0    0  0.56216643116E+02  0.27308410303E+02 -0.10850154245E+03  0.12521439594E+03  0.51100000000E-03 0. -1.
<mgrwt>
<rscale>  0 0.12500133E+03</rscale>
<asrwt>0</asrwt>
<pdfrwt beam="2">  1        4 0.36259200E-01 0.12500133E+03</pdfrwt>
<pdfrwt beam="1">  1       -4 0.25499069E-02 0.12500133E+03</pdfrwt>
<totfact> 0.82002375E+03</totfact>
</mgrwt>
</event>
<event>
 5    1  0.3296574E-054  0.1249966E+03  0.7818608E-02  0.1235075E+00
          4   -1    0    0  501    0  0.00000000000E+00  0.00000000000E+00  0.24173235448E+02  0.24214906814E+02  0.14200000000E+01 0. -1.
         -4   -1    0    0    0  501 -0.00000000000E+00 -0.00000000000E+00 -0.16140115077E+03  0.16140739720E+03  0.14200000000E+01 0.  1.
         25    2    1    2    0    0  0.00000000000E+00  0.00000000000E+00 -0.13722791532E+03  0.18562230401E+03  0.12499655596E+03 0.  0.
        -11    1    3    3    0    0  0.16359848008E+02  0.59545877113E+02 -0.82910201387E+02  0.10338016058E+03  0.51100000000E-03 0.  1.
         11    1    3    3    0    0 -0.16359848008E+02 -0.59545877113E+02 -0.54317713934E+02  0.82242143426E+02  0.51100000000E-03 0. -1.
<mgrwt>
<rscale>  0 0.12499656E+03</rscale>
<asrwt>0</asrwt>
<pdfrwt beam="1">  1        4 0.37226454E-02 0.12499656E+03</pdfrwt>
<pdfrwt beam="2">  1       -4 0.24834632E-01 0.12499656E+03</pdfrwt>
<totfact> 0.92621797E+03</totfact>
</mgrwt>
</event>
<event>
 5    1  0.3296574E-054  0.1249980E+03  0.7818608E-02  0.1235072E+00
         -4   -1    0    0    0  501 -0.00000000000E+00  0.00000000000E+00  0.35778844697E+02  0.35807012272E+02  0.14200000000E+01 0.  1.
          4   -1    0    0  501    0  0.00000000000E+00 -0.00000000000E+00 -0.10909839760E+03  0.10910763841E+03  0.14200000000E+01 0. -1.
         25    2    1    2    0    0  0.00000000000E+00  0.00000000000E+00 -0.73319552901E+02  0.14491465068E+03  0.12499799656E+03 0.  0.
        -11    1    3    3    0    0 -0.34528426176E+00 -0.23450766803E+02  0.30502368814E+02  0.38476644714E+02  0.51100000000E-03 0.  1.
         11    1    3    3    0    0  0.34528426176E+00  0.23450766803E+02 -0.10382192172E+03  0.10643800596E+03  0.51100000000E-03 0. -1.
<mgrwt>
<rscale>  0 0.12499800E+03</rscale>
<asrwt>0</asrwt>
<pdfrwt beam="2">  1        4 0.16787246E-01 0.12499800E+03</pdfrwt>
<pdfrwt beam="1">  1       -4 0.55073153E-02 0.12499800E+03</pdfrwt>
<totfact> 0.10033175E+04</totfact>
</mgrwt>
</event>
<event>
 5    1  0.3296574E-054  0.1249994E+03  0.7818608E-02  0.1235070E+00
          4   -1    0    0  501    0  0.00000000000E+00  0.00000000000E+00  0.17238048990E+03  0.17238633849E+03  0.14200000000E+01 0. -1.
         -4   -1    0    0    0  501 -0.00000000000E+00 -0.00000000000E+00 -0.22631924452E+02  0.22676428387E+02  0.14200000000E+01 0.  1.
         25    2    1    2    0    0  0.00000000000E+00  0.00000000000E+00  0.14974856544E+03  0.19506276687E+03  0.12499940067E+03 0.  0.
        -11    1    3    3    0    0  0.65446671245E+01 -0.61599120177E+02  0.61918456013E+02  0.87585269707E+02  0.51100000000E-03 0.  1.
         11    1    3    3    0    0 -0.65446671245E+01  0.61599120177E+02  0.87830109432E+02  0.10747749717E+03  0.51100000000E-03 0. -1.
<mgrwt>
<rscale>  0 0.12499940E+03</rscale>
<asrwt>0</asrwt>
<pdfrwt beam="1">  1        4 0.26523950E-01 0.12499940E+03</pdfrwt>
<pdfrwt beam="2">  1       -4 0.34857077E-02 0.12499940E+03</pdfrwt>
<totfact> 0.90975015E+03</totfact>
</mgrwt>
</event>
<event>
 5    1  0.3296574E-054  0.1249965E+03  0.7818608E-02  0.1235075E+00
         -4   -1    0    0    0  501 -0.00000000000E+00  0.00000000000E+00  0.28621579139E+02  0.28656782659E+02  0.14200000000E+01 0.  1.
          4   -1    0    0  501    0  0.00000000000E+00 -0.00000000000E+00 -0.13634875575E+03  0.13635614982E+03  0.14200000000E+01 0. -1.
         25    2    1    2    0    0  0.00000000000E+00  0.00000000000E+00 -0.10772717661E+03  0.16501293248E+03  0.12499649317E+03 0.  0.
        -11    1    3    3    0    0 -0.47636767651E+02 -0.38890809497E+02 -0.68580291124E+02  0.92114130439E+02  0.51100000000E-03 0.  1.
         11    1    3    3    0    0  0.47636767651E+02  0.38890809497E+02 -0.39146885485E+02  0.72898802041E+02  0.51100000000E-03 0. -1.
<mgrwt>
<rscale>  0 0.12499649E+03</rscale>
<asrwt>0</asrwt>
<pdfrwt beam="2">  1        4 0.20980008E-01 0.12499649E+03</pdfrwt>
<pdfrwt beam="1">  1       -4 0.44065967E-02 0.12499649E+03</pdfrwt>
<totfact> 0.96392537E+03</totfact>
</mgrwt>
</event>
<event>
 5    1  0.3296574E-054  0.1249990E+03  0.7818608E-02  0.1235071E+00
          4   -1    0    0  501    0  0.00000000000E+00  0.00000000000E+00  0.21105976364E+02  0.21153690890E+02  0.14200000000E+01 0. -1.
         -4   -1    0    0    0  501 -0.00000000000E+00 -0.00000000000E+00 -0.18481567784E+03  0.18482113292E+03  0.14200000000E+01 0.  1.
         25    2    1    2    0    0  0.00000000000E+00  0.00000000000E+00 -0.16370970147E+03  0.20597482381E+03  0.12499904675E+03 0.  0.
        -11    1    3    3    0    0  0.55145539329E+02 -0.17185740289E+02 -0.12118925396E+03  0.13425056966E+03  0.51100000000E-03 0.  1.
         11    1    3    3    0    0 -0.55145539329E+02  0.17185740289E+02 -0.42520447510E+02  0.71724254154E+02  0.51100000000E-03 0. -1.
<mgrwt>
<rscale>  0 0.12499905E+03</rscale>
<asrwt>0</asrwt>
<pdfrwt beam="1">  1        4 0.32511634E-02 0.12499905E+03</pdfrwt>
<pdfrwt beam="2">  1       -4 0.28437270E-01 0.12499905E+03</pdfrwt>
<totfact> 0.89139394E+03</totfact>
</mgrwt>
</event>
<event>
 5    1  0.3296574E-054  0.1249816E+03  0.7818608E-02  0.1235098E+00
         -4   -1    0    0    0  501 -0.00000000000E+00  0.00000000000E+00  0.12636666300E+02  0.12716199715E+02  0.14200000000E+01 0.  1.
          4   -1    0    0  501    0  0.00000000000E+00 -0.00000000000E+00 -0.30797870541E+03  0.30798197899E+03  0.14200000000E+01 0. -1.
         25    2    1    2    0    0  0.00000000000E+00  0.00000000000E+00 -0.29534203911E+03  0.32069817871E+03  0.12498160570E+03 0.  0.
        -11    1    3    3    0    0 -0.49378611304E+02 -0.37022390190E+02 -0.17283784709E+03  0.18352609084E+03  0.51100000000E-03 0.  1.
         11    1    3    3    0    0  0.49378611304E+02  0.37022390190E+02 -0.12250419201E+03  0.13717208787E+03  0.51100000000E-03 0. -1.
<mgrwt>
<rscale>  0 0.12498161E+03</rscale>
<asrwt>0</asrwt>
<pdfrwt beam="2">  1        4 0.47387703E-01 0.12498161E+03</pdfrwt>
<pdfrwt beam="1">  1       -4 0.19504725E-02 0.12498161E+03</pdfrwt>
<totfact> 0.73102968E+03</totfact>
</mgrwt>
</event>
<event>
 5    1  0.3296574E-054  0.1250030E+03  0.7818608E-02  0.1235065E+00
         -4   -1    0    0    0  501 -0.00000000000E+00  0.00000000000E+00  0.14456766757E+03  0.14457464130E+03  0.14200000000E+01 0.  1.
          4   -1    0    0  501    0  0.00000000000E+00 -0.00000000000E+00 -0.26995220997E+02  0.27032542549E+02  0.14200000000E+01 0. -1.
         25    2    1    2    0    0  0.00000000000E+00  0.00000000000E+00  0.11757244658E+03  0.17160718385E+03  0.12500298138E+03 0.  0.
        -11    1    3    3    0    0 -0.57796284693E+02 -0.10520210976E+02  0.29491579017E+02  0.65733086010E+02  0.51100000000E-03 0.  1.
         11    1    3    3    0    0  0.57796284693E+02  0.10520210976E+02  0.88080867558E+02  0.10587409784E+03  0.51100000000E-03 0. -1.
<mgrwt>
<rscale>  0 0.12500298E+03</rscale>
<asrwt>0</asrwt>
<pdfrwt beam="2">  1        4 0.41565183E-02 0.12500298E+03</pdfrwt>
<pdfrwt beam="1">  1       -4 0.22244587E-01 0.12500298E+03</pdfrwt>
<totfact> 0.95143559E+03</totfact>
</mgrwt>
</event>
<event>
 5    1  0.3296574E-054  0.1249997E+03  0.7818608E-02  0.1235070E+00
         -4   -1    0    0    0  501 -0.00000000000E+00  0.00000000000E+00  0.65510729686E+02  0.65526117724E+02  0.14200000000E+01 0.  1.
          4   -1    0    0  501    0  0.00000000000E+00 -0.00000000000E+00 -0.59596456596E+02  0.59613371309E+02  0.14200000000E+01 0. -1.
         25    2    1    2    0    0  0.00000000000E+00  0.00000000000E+00  0.59142730895E+01  0.12513948903E+03  0.12499965236E+03 0.  0.
        -11    1    3    3    0    0 -0.54571983909E+02 -0.28774067792E+02 -0.70630497888E+01  0.62096176031E+02  0.51100000000E-03 0.  1.
         11    1    3    3    0    0  0.54571983909E+02  0.28774067792E+02  0.12977322878E+02  0.63043313003E+02  0.51100000000E-03 0. -1.
<mgrwt>
<rscale>  0 0.12499965E+03</rscale>
<asrwt>0</asrwt>
<pdfrwt beam="2">  1        4 0.91711705E-02 0.12499965E+03</pdfrwt>
<pdfrwt beam="1">  1       -4 0.10081059E-01 0.12499965E+03</pdfrwt>
<totfact> 0.10449916E+04</totfact>
</mgrwt>
</event>
<event>
 5    1  0.3296574E-054  0.1249992E+03  0.7818608E-02  0.1235071E+00
         -4   -1    0    0    0  501 -0.00000000000E+00  0.00000000000E+00  0.29875306247E+02  0.29909034143E+02  0.14200000000E+01 0.  1.
          4   -1    0    0  501    0  0.00000000000E+00 -0.00000000000E+00 -0.13063868467E+03  0.13064640191E+03  0.14200000000E+01 0. -1.
         25    2    1    2    0    0  0.00000000000E+00  0.00000000000E+00 -0.10076337842E+03  0.16055543605E+03  0.12499915846E+03 0.  0.
        -11    1    3    3    0    0 -0.53615251846E+02  0.29124201835E+02 -0.32987767553E+02  0.69361424231E+02  0.51100000000E-03 0.  1.
         11    1    3    3    0    0  0.53615251846E+02 -0.29124201835E+02 -0.67775610870E+02  0.91194011821E+02  0.51100000000E-03 0. -1.
<mgrwt>
<rscale>  0 0.12499916E+03</rscale>
<asrwt>0</asrwt>
<pdfrwt beam="2">  1        4 0.20101447E-01 0.12499916E+03</pdfrwt>
<pdfrwt beam="1">  1       -4 0.45993891E-02 0.12499916E+03</pdfrwt>
<totfact> 0.97237647E+03</totfact>
</mgrwt>
</event>
<event>
 5    1  0.3296574E-054  0.1249677E+03  0.7818608E-02  0.1235120E+00
         -4   -1    0    0    0  501 -0.00000000000E+00  0.00000000000E+00  0.11147254448E+03  0.11148158850E+03  0.14200000000E+01 0.  1.
          4   -1    0    0  501    0  0.00000000000E+00 -0.00000000000E+00 -0.34999309758E+02  0.35028104195E+02  0.14200000000E+01 0. -1.
         25    2    1    2    0    0  0.00000000000E+00  0.00000000000E+00  0.76473234725E+02  0.14650969269E+03  0.12496773353E+03 0.  0.
        -11    1    3    3    0    0 -0.61141670965E+02 -0.12438079440E+02  0.34308906363E+02  0.71204710551E+02  0.51100000000E-03 0.  1.
         11    1    3    3    0    0  0.61141670965E+02  0.12438079440E+02  0.42164328362E+02  0.75304982140E+02  0.51100000000E-03 0. -1.
<mgrwt>
<rscale>  0 0.12496773E+03</rscale>
<asrwt>0</asrwt>
<pdfrwt beam="2">  1        4 0.53874199E-02 0.12496773E+03</pdfrwt>
<pdfrwt beam="1">  1       -4 0.17152533E-01 0.12496773E+03</pdfrwt>
<totfact> 0.10007673E+04</totfact>
</mgrwt>
</event>
<event>
 5    1  0.3296574E-054  0.1249990E+03  0.7818608E-02  0.1235071E+00
         -4   -1    0    0    0  501 -0.00000000000E+00  0.00000000000E+00  0.68502932474E+01  0.69959214958E+01  0.14200000000E+01 0.  1.
          4   -1    0    0  501    0  0.00000000000E+00 -0.00000000000E+00 -0.56407827967E+03  0.56408006701E+03  0.14200000000E+01 0. -1.
         25    2    1    2    0    0  0.00000000000E+00  0.00000000000E+00 -0.55722798643E+03  0.57107598851E+03  0.12499902317E+03 0.  0.
        -11    1    3    3    0    0 -0.62301208380E+02 -0.41955565529E+01 -0.29082662580E+03  0.29745448313E+03  0.51100000000E-03 0.  1.
         11    1    3    3    0    0  0.62301208380E+02  0.41955565529E+01 -0.26640136063E+03  0.27362150538E+03  0.51100000000E-03 0. -1.
<mgrwt>
<rscale>  0 0.12499902E+03</rscale>
<asrwt>0</asrwt>
<pdfrwt beam="2">  1        4 0.86792577E-01 0.12499902E+03</pdfrwt>
<pdfrwt beam="1">  1       -4 0.10652314E-02 0.12499902E+03</pdfrwt>
<totfact> 0.50746906E+03</totfact>
</mgrwt>
</event>
<event>
 5    1  0.3296574E-054  0.1249981E+03  0.7818608E-02  0.1235072E+00
          4   -1    0    0  501    0  0.00000000000E+00  0.00000000000E+00  0.61767677972E+02  0.61783998268E+02  0.14200000000E+01 0. -1.
         -4   -1    0    0    0  501 -0.00000000000E+00 -0.00000000000E+00 -0.63206456615E+02  0.63222405505E+02  0.14200000000E+01 0.  1.
         25    2    1    2    0    0  0.00000000000E+00  0.00000000000E+00 -0.14387786433E+01  0.12500640377E+03  0.12499812359E+03 0.  0.
        -11    1    3    3    0    0 -0.60516905392E+02  0.13142353718E+02  0.77141655279E+01  0.62406134710E+02  0.51100000000E-03 0.  1.
         11    1    3    3    0    0  0.60516905392E+02 -0.13142353718E+02 -0.91529441712E+01  0.62600269063E+02  0.51100000000E-03 0. -1.
<mgrwt>
<rscale>  0 0.12499812E+03</rscale>
<asrwt>0</asrwt>
<pdfrwt beam="1">  1        4 0.95052019E-02 0.12499812E+03</pdfrwt>
<pdfrwt beam="2">  1       -4 0.97265525E-02 0.12499812E+03</pdfrwt>
<totfact> 0.10453167E+04</totfact>
</mgrwt>
</event>
<event>
 5    1  0.3296574E-054  0.1249999E+03  0.7818608E-02  0.1235069E+00
         -4   -1    0    0    0  501 -0.00000000000E+00  0.00000000000E+00  0.50235343092E+03  0.50235543787E+03  0.14200000000E+01 0.  1.
          4   -1    0    0  501    0  0.00000000000E+00 -0.00000000000E+00 -0.77090150801E+01  0.78387061116E+01  0.14200000000E+01 0. -1.
         25    2    1    2    0    0  0.00000000000E+00  0.00000000000E+00  0.49464441584E+03  0.51019414399E+03  0.12499986572E+03 0.  0.
        -11    1    3    3    0    0 -0.45407567305E+02 -0.41332511019E+02  0.19972033175E+03  0.20894600869E+03  0.51100000000E-03 0.  1.
         11    1    3    3    0    0  0.45407567305E+02  0.41332511019E+02  0.29492408410E+03  0.30124813529E+03  0.51100000000E-03 0. -1.
<mgrwt>
<rscale>  0 0.12499987E+03</rscale>
<asrwt>0</asrwt>
<pdfrwt beam="2">  1        4 0.11961327E-02 0.12499987E+03</pdfrwt>
<pdfrwt beam="1">  1       -4 0.77295286E-01 0.12499987E+03</pdfrwt>
<totfact> 0.55082166E+03</totfact>
</mgrwt>
</event>
<event>
 5    1  0.3296574E-054  0.1250006E+03  0.7818608E-02  0.1235068E+00
         -4   -1    0    0    0  501 -0.00000000000E+00  0.00000000000E+00  0.23058006409E+03  0.23058443649E+03  0.14200000000E+01 0.  1.
          4   -1    0    0  501    0  0.00000000000E+00 -0.00000000000E+00 -0.16906848029E+02  0.16966375874E+02  0.14200000000E+01 0. -1.
         25    2    1    2    0    0  0.00000000000E+00  0.00000000000E+00  0.21367321606E+03  0.24755081237E+03  0.12500064578E+03 0.  0.
        -11    1    3    3    0    0  0.96113976678E+01 -0.39537999485E+02  0.20078878589E+03  0.20487012693E+03  0.51100000000E-03 0.  1.
         11    1    3    3    0    0 -0.96113976678E+01  0.39537999485E+02  0.12884430163E+02  0.42680685436E+02  0.51100000000E-03 0. -1.
<mgrwt>
<rscale>  0 0.12500065E+03</rscale>
<asrwt>0</asrwt>
<pdfrwt beam="2">  1        4 0.26059691E-02 0.12500065E+03</pdfrwt>
<pdfrwt beam="1">  1       -4 0.35478770E-01 0.12500065E+03</pdfrwt>
<totfact> 0.82684316E+03</totfact>
</mgrwt>
</event>
<event>
 5    1  0.3296574E-054  0.1250299E+03  0.7818608E-02  0.1235023E+00
          4   -1    0    0  501    0  0.00000000000E+00  0.00000000000E+00  0.29110185132E+02  0.29144798480E+02  0.14200000000E+01 0.  1.
         -4   -1    0    0    0  501 -0.00000000000E+00 -0.00000000000E+00 -0.13413446654E+03  0.13414198267E+03  0.14200000000E+01 0. -1.
         25    2    1    2    0    0  0.00000000000E+00  0.00000000000E+00 -0.10502428141E+03  0.16328678115E+03  0.12502988928E+03 0.  0.
        -11    1    3    3    0    0 -0.57901071390E+01 -0.44410157807E+02 -0.10947348187E+03  0.11828030559E+03  0.51100000000E-03 0. -1.
         11    1    3    3    0    0  0.57901071390E+01  0.44410157807E+02  0.44492004627E+01  0.45006475558E+02  0.51100000000E-03 0.  1.
<mgrwt>
<rscale>  0 0.12502989E+03</rscale>
<asrwt>0</asrwt>
<pdfrwt beam="1">  1        4 0.44817308E-02 0.12502989E+03</pdfrwt>
<pdfrwt beam="2">  1       -4 0.20639312E-01 0.12502989E+03</pdfrwt>
<totfact> 0.96647914E+03</totfact>
</mgrwt>
</event>
<event>
 5    1  0.3296574E-054  0.1249830E+03  0.7818608E-02  0.1235096E+00
          4   -1    0    0  501    0  0.00000000000E+00  0.00000000000E+00  0.23505569023E+02  0.23548421924E+02  0.14200000000E+01 0. -1.
         -4   -1    0    0    0  501 -0.00000000000E+00 -0.00000000000E+00 -0.16594160576E+03  0.16594768128E+03  0.14200000000E+01 0.  1.
         25    2    1    2    0    0  0.00000000000E+00  0.00000000000E+00 -0.14243603674E+03  0.18949610321E+03  0.12498299312E+03 0.  0.
        -11    1    3    3    0    0 -0.61489068971E+02  0.96967202420E+01 -0.79557692034E+02  0.10101662412E+03  0.51100000000E-03 0.  1.
         11    1    3    3    0    0  0.61489068971E+02 -0.96967202420E+01 -0.62878344704E+02  0.88479479086E+02  0.51100000000E-03 0. -1.
<mgrwt>
<rscale>  0 0.12498299E+03</rscale>
<asrwt>0</asrwt>
<pdfrwt beam="1">  1        4 0.36200052E-02 0.12498299E+03</pdfrwt>
<pdfrwt beam="2">  1       -4 0.25533241E-01 0.12498299E+03</pdfrwt>
<totfact> 0.91970098E+03</totfact>
</mgrwt>
</event>
<event>
 5    1  0.3296574E-054  0.1249984E+03  0.7818608E-02  0.1235072E+00
         -4   -1    0    0    0  501 -0.00000000000E+00  0.00000000000E+00  0.19570460145E+02  0.19621908936E+02  0.14200000000E+01 0.  1.
          4   -1    0    0  501    0  0.00000000000E+00 -0.00000000000E+00 -0.19927822489E+03  0.19928328409E+03  0.14200000000E+01 0. -1.
         25    2    1    2    0    0  0.00000000000E+00  0.00000000000E+00 -0.17970776475E+03  0.21890519302E+03  0.12499841128E+03 0.  0.
        -11    1    3    3    0    0  0.51407558563E+02 -0.87293747886E+01 -0.29512445885E+02  0.59915970526E+02  0.51100000000E-03 0.  1.
         11    1    3    3    0    0 -0.51407558563E+02  0.87293747886E+01 -0.15019531886E+03  0.15898922250E+03  0.51100000000E-03 0. -1.
<mgrwt>
<rscale>  0 0.12499841E+03</rscale>
<asrwt>0</asrwt>
<pdfrwt beam="2">  1        4 0.30662534E-01 0.12499841E+03</pdfrwt>
<pdfrwt beam="1">  1       -4 0.30151869E-02 0.12499841E+03</pdfrwt>
<totfact> 0.87044975E+03</totfact>
</mgrwt>
</event>
<event>
 5    1  0.3296574E-054  0.1249994E+03  0.7818608E-02  0.1235070E+00
          4   -1    0    0  501    0  0.00000000000E+00  0.00000000000E+00  0.60723369805E+02  0.60739970698E+02  0.14200000000E+01 0. -1.
         -4   -1    0    0    0  501 -0.00000000000E+00 -0.00000000000E+00 -0.64294767766E+02  0.64310446757E+02  0.14200000000E+01 0.  1.
         25    2    1    2    0    0  0.00000000000E+00  0.00000000000E+00 -0.35713979617E+01  0.12505041746E+03  0.12499940809E+03 0.  0.
        -11    1    3    3    0    0  0.36788431951E+02  0.48737841151E+02  0.11540664872E+02  0.62144612248E+02  0.51100000000E-03 0.  1.
         11    1    3    3    0    0 -0.36788431951E+02 -0.48737841151E+02 -0.15112062833E+02  0.62905805208E+02  0.51100000000E-03 0. -1.
<mgrwt>
<rscale>  0 0.12499941E+03</rscale>
<asrwt>0</asrwt>
<pdfrwt beam="1">  1        4 0.93445399E-02 0.12499941E+03</pdfrwt>
<pdfrwt beam="2">  1       -4 0.98939859E-02 0.12499941E+03</pdfrwt>
<totfact> 0.10451907E+04</totfact>
</mgrwt>
</event>
<event>
 5    1  0.3296574E-054  0.1249928E+03  0.7818608E-02  0.1235081E+00
          4   -1    0    0  501    0  0.00000000000E+00  0.00000000000E+00  0.16368175769E+02  0.16429655444E+02  0.14200000000E+01 0. -1.
         -4   -1    0    0    0  501 -0.00000000000E+00 -0.00000000000E+00 -0.23811062902E+03  0.23811486314E+03  0.14200000000E+01 0.  1.
         25    2    1    2    0    0  0.00000000000E+00  0.00000000000E+00 -0.22174245325E+03  0.25454451859E+03  0.12499278528E+03 0.  0.
        -11    1    3    3    0    0 -0.18972142337E+02 -0.35981623809E+02 -0.20749497498E+03  0.21144451773E+03  0.51100000000E-03 0.  1.
         11    1    3    3    0    0  0.18972142337E+02  0.35981623809E+02 -0.14247478269E+02  0.43100000860E+02  0.51100000000E-03 0. -1.
<mgrwt>
<rscale>  0 0.12499279E+03</rscale>
<asrwt>0</asrwt>
<pdfrwt beam="1">  1        4 0.25232360E-02 0.12499279E+03</pdfrwt>
<pdfrwt beam="2">  1       -4 0.36637457E-01 0.12499279E+03</pdfrwt>
<totfact> 0.81690934E+03</totfact>
</mgrwt>
</event>
<event>
 5    1  0.3296574E-054  0.1249997E+03  0.7818608E-02  0.1235070E+00
         -4   -1    0    0    0  501 -0.00000000000E+00  0.00000000000E+00  0.11701589109E+03  0.11702450670E+03  0.14200000000E+01 0.  1.
          4   -1    0    0  501    0  0.00000000000E+00 -0.00000000000E+00 -0.33357103914E+02  0.33387314679E+02  0.14200000000E+01 0. -1.
         25    2    1    2    0    0  0.00000000000E+00  0.00000000000E+00  0.83658787181E+02  0.15041182138E+03  0.12499969335E+03 0.  0.
        -11    1    3    3    0    0 -0.30441202417E+02  0.42820931061E+02  0.82562959040E+02  0.97861847250E+02  0.51100000000E-03 0.  1.
         11    1    3    3    0    0  0.30441202417E+02 -0.42820931061E+02  0.10958281412E+01  0.52549974130E+02  0.51100000000E-03 0. -1.
<mgrwt>
<rscale>  0 0.12499969E+03</rscale>
<asrwt>0</asrwt>
<pdfrwt beam="2">  1        4 0.51348488E-02 0.12499969E+03</pdfrwt>
<pdfrwt beam="1">  1       -4 0.18005432E-01 0.12499969E+03</pdfrwt>
<totfact> 0.99222356E+03</totfact>
</mgrwt>
</event>
<event>
 5    1  0.3296574E-054  0.1249996E+03  0.7818608E-02  0.1235070E+00
          4   -1    0    0  501    0  0.00000000000E+00  0.00000000000E+00  0.51943117692E+03  0.51943311789E+03  0.14200000000E+01 0. -1.
         -4   -1    0    0    0  501 -0.00000000000E+00 -0.00000000000E+00 -0.74511926954E+01  0.75852931772E+01  0.14200000000E+01 0.  1.
         25    2    1    2    0    0  0.00000000000E+00  0.00000000000E+00  0.51197998423E+03  0.52701841107E+03  0.12499960541E+03 0.  0.
        -11    1    3    3    0    0 -0.16701851142E+02  0.58312789943E+02  0.19248223564E+03  0.20181363764E+03  0.51100000000E-03 0.  1.
         11    1    3    3    0    0  0.16701851142E+02 -0.58312789943E+02  0.31949774859E+03  0.32520477342E+03  0.51100000000E-03 0. -1.
<mgrwt>
<rscale>  0 0.12499961E+03</rscale>
<asrwt>0</asrwt>
<pdfrwt beam="1">  1        4 0.79922980E-01 0.12499961E+03</pdfrwt>
<pdfrwt beam="2">  1       -4 0.11568017E-02 0.12499961E+03</pdfrwt>
<totfact> 0.53827814E+03</totfact>
</mgrwt>
</event>
<event>
 5    1  0.3296574E-054  0.1250000E+03  0.7818608E-02  0.1235069E+00
         -4   -1    0    0    0  501 -0.00000000000E+00  0.00000000000E+00  0.54381353268E+02  0.54399889552E+02  0.14200000000E+01 0.  1.
          4   -1    0    0  501    0  0.00000000000E+00 -0.00000000000E+00 -0.71792929548E+02  0.71806971340E+02  0.14200000000E+01 0. -1.
         25    2    1    2    0    0  0.00000000000E+00  0.00000000000E+00 -0.17411576280E+02  0.12620686089E+03  0.12500003499E+03 0.  0.
        -11    1    3    3    0    0  0.51183645214E+02 -0.28461016096E+02 -0.30744427735E+02  0.66143894742E+02  0.51100000000E-03 0.  1.
         11    1    3    3    0    0 -0.51183645214E+02  0.28461016096E+02  0.13332851455E+02  0.60062966151E+02  0.51100000000E-03 0. -1.
<mgrwt>
<rscale>  0 0.12500003E+03</rscale>
<asrwt>0</asrwt>
<pdfrwt beam="2">  1        4 0.11047572E-01 0.12500003E+03</pdfrwt>
<pdfrwt beam="1">  1       -4 0.83688681E-02 0.12500003E+03</pdfrwt>
<totfact> 0.10426421E+04</totfact>
</mgrwt>
</event>
<event>
 5    1  0.3581339E-054  0.1249958E+03  0.7818608E-02  0.1235076E+00
         -4   -1    0    0    0  501 -0.00000000000E+00  0.00000000000E+00  0.79839918769E+02  0.79852545539E+02  0.14200000000E+01 0.  1.
          4   -1    0    0  501    0  0.00000000000E+00 -0.00000000000E+00 -0.48895937894E+02  0.48916552848E+02  0.14200000000E+01 0. -1.
         25    2    1    2    0    0  0.00000000000E+00  0.00000000000E+00  0.30943980875E+02  0.12876909839E+03  0.12499580292E+03 0.  0.
        -11    1    3    3    0    0 -0.55755093109E+02  0.24271390536E+02  0.30338735820E+02  0.67957116607E+02  0.51100000000E-03 0.  1.
         11    1    3    3    0    0  0.55755093109E+02 -0.24271390536E+02  0.60524505470E+00  0.60811981780E+02  0.51100000000E-03 0. -1.
<mgrwt>
<rscale>  0 0.12499580E+03</rscale>
<asrwt>0</asrwt>
<pdfrwt beam="2">  1        4 0.75250091E-02 0.12499580E+03</pdfrwt>
<pdfrwt beam="1">  1       -4 0.12285621E-01 0.12499580E+03</pdfrwt>
<totfact> 0.10371894E+04</totfact>
</mgrwt>
</event>
<event>
 5    1  0.6431082E-054  0.1249987E+03  0.7818608E-02  0.1235071E+00
         -4   -1    0    0    0  501 -0.00000000000E+00  0.00000000000E+00  0.19806449545E+03  0.19806958564E+03  0.14200000000E+01 0.  1.
          4   -1    0    0  501    0  0.00000000000E+00 -0.00000000000E+00 -0.19690804676E+02  0.19741939843E+02  0.14200000000E+01 0. -1.
         25    2    1    2    0    0  0.00000000000E+00  0.00000000000E+00  0.17837369077E+03  0.21781152549E+03  0.12499874829E+03 0.  0.
        -11    1    3    3    0    0  0.56331740820E+02 -0.23043908817E+02  0.11394551079E+03  0.12918152417E+03  0.51100000000E-03 0.  1.
         11    1    3    3    0    0 -0.56331740820E+02  0.23043908817E+02  0.64428179986E+02  0.88630001320E+02  0.51100000000E-03 0. -1.
<mgrwt>
<rscale>  0 0.12499875E+03</rscale>
<asrwt>0</asrwt>
<pdfrwt beam="2">  1        4 0.30336797E-02 0.12499875E+03</pdfrwt>
<pdfrwt beam="1">  1       -4 0.30475785E-01 0.12499875E+03</pdfrwt>
<totfact> 0.87218275E+03</totfact>
</mgrwt>
</event>
<event>
 5    1  0.3296574E-054  0.1249941E+03  0.7818608E-02  0.1235079E+00
         -4   -1    0    0    0  501 -0.00000000000E+00  0.00000000000E+00  0.34606413300E+02  0.34635534376E+02  0.14200000000E+01 0.  1.
          4   -1    0    0  501    0  0.00000000000E+00 -0.00000000000E+00 -0.11278468535E+03  0.11279362416E+03  0.14200000000E+01 0. -1.
         25    2    1    2    0    0  0.00000000000E+00  0.00000000000E+00 -0.78178272053E+02  0.14742915853E+03  0.12499405812E+03 0.  0.
        -11    1    3    3    0    0 -0.49958386469E+02  0.22993597786E+02 -0.40733430326E+01  0.55146514318E+02  0.51100000000E-03 0.  1.
         11    1    3    3    0    0  0.49958386469E+02 -0.22993597786E+02 -0.74104929020E+02  0.92282644213E+02  0.51100000000E-03 0. -1.
<mgrwt>
<rscale>  0 0.12499406E+03</rscale>
<asrwt>0</asrwt>
<pdfrwt beam="2">  1        4 0.17354418E-01 0.12499406E+03</pdfrwt>
<pdfrwt beam="1">  1       -4 0.53269913E-02 0.12499406E+03</pdfrwt>
<totfact> 0.99832000E+03</totfact>
</mgrwt>
</event>
<event>
 5    1  0.3296574E-054  0.1249978E+03  0.7818608E-02  0.1235073E+00
          4   -1    0    0  501    0  0.00000000000E+00  0.00000000000E+00  0.16121554257E+03  0.16122179619E+03  0.14200000000E+01 0. -1.
         -4   -1    0    0    0  501 -0.00000000000E+00 -0.00000000000E+00 -0.24201586849E+02  0.24243209482E+02  0.14200000000E+01 0.  1.
         25    2    1    2    0    0  0.00000000000E+00  0.00000000000E+00  0.13701395572E+03  0.18546500567E+03  0.12499777704E+03 0.  0.
        -11    1    3    3    0    0 -0.26804978826E+02  0.12121787495E+01 -0.15244361401E+02  0.30860441053E+02  0.51100000000E-03 0.  1.
         11    1    3    3    0    0  0.26804978826E+02 -0.12121787495E+01  0.15225831712E+03  0.15460456461E+03  0.51100000000E-03 0. -1.
<mgrwt>
<rscale>  0 0.12499778E+03</rscale>
<asrwt>0</asrwt>
<pdfrwt beam="1">  1        4 0.24806074E-01 0.12499778E+03</pdfrwt>
<pdfrwt beam="2">  1       -4 0.37270038E-02 0.12499778E+03</pdfrwt>
<totfact> 0.92647046E+03</totfact>
</mgrwt>
</event>
<event>
 5    1  0.3296574E-054  0.1249982E+03  0.7818608E-02  0.1235072E+00
          4   -1    0    0  501    0  0.00000000000E+00  0.00000000000E+00  0.81674822625E+02  0.81687165765E+02  0.14200000000E+01 0. -1.
         -4   -1    0    0    0  501 -0.00000000000E+00 -0.00000000000E+00 -0.47798981395E+02  0.47820069243E+02  0.14200000000E+01 0.  1.
         25    2    1    2    0    0  0.00000000000E+00  0.00000000000E+00  0.33875841229E+02  0.12950723501E+03  0.12499820519E+03 0.  0.
        -11    1    3    3    0    0 -0.68651744545E+01 -0.61367392227E+02  0.26932150161E+02  0.67367857035E+02  0.51100000000E-03 0.  1.
         11    1    3    3    0    0  0.68651744545E+01  0.61367392227E+02  0.69436910684E+01  0.62139377973E+02  0.51100000000E-03 0. -1.
<mgrwt>
<rscale>  0 0.12499821E+03</rscale>
<asrwt>0</asrwt>
<pdfrwt beam="1">  1        4 0.12567929E-01 0.12499821E+03</pdfrwt>
<pdfrwt beam="2">  1       -4 0.73562611E-02 0.12499821E+03</pdfrwt>
<totfact> 0.10355480E+04</totfact>
</mgrwt>
</event>
<event>
 5    1  0.3296574E-054  0.1249991E+03  0.7818608E-02  0.1235071E+00
         -4   -1    0    0    0  501 -0.00000000000E+00  0.00000000000E+00  0.31266675481E+02  0.31298904065E+02  0.14200000000E+01 0. -1.
          4   -1    0    0  501    0  0.00000000000E+00 -0.00000000000E+00 -0.12483098625E+03  0.12483906251E+03  0.14200000000E+01 0.  1.
         25    2    1    2    0    0  0.00000000000E+00  0.00000000000E+00 -0.93564310770E+02  0.15613796657E+03  0.12499913742E+03 0.  0.
        -11    1    3    3    0    0 -0.62261693070E+02  0.52701958014E+01 -0.48505161372E+02  0.79101479555E+02  0.51100000000E-03 0. -1.
         11    1    3    3    0    0  0.62261693070E+02 -0.52701958014E+01 -0.45059149398E+02  0.77036487020E+02  0.51100000000E-03 0.  1.
<mgrwt>
<rscale>  0 0.12499914E+03</rscale>
<asrwt>0</asrwt>
<pdfrwt beam="2">  1        4 0.19207867E-01 0.12499914E+03</pdfrwt>
<pdfrwt beam="1">  1       -4 0.48133582E-02 0.12499914E+03</pdfrwt>
<totfact> 0.98094467E+03</totfact>
</mgrwt>
</event>
<event>
 5    1  0.3296574E-054  0.1249988E+03  0.7818608E-02  0.1235071E+00
          4   -1    0    0  501    0  0.00000000000E+00  0.00000000000E+00  0.67378374113E+01  0.68858443913E+01  0.14200000000E+01 0.  1.
         -4   -1    0    0    0  501 -0.00000000000E+00 -0.00000000000E+00 -0.57328991239E+03  0.57329167101E+03  0.14200000000E+01 0. -1.
         25    2    1    2    0    0  0.00000000000E+00  0.00000000000E+00 -0.56655207498E+03  0.58017751540E+03  0.12499878285E+03 0.  0.
        -11    1    3    3    0    0 -0.78910987698E+01  0.60473355374E+02 -0.34672637559E+03  0.35204896773E+03  0.51100000000E-03 0. -1.
         11    1    3    3    0    0  0.78910987698E+01 -0.60473355374E+02 -0.21982569939E+03  0.22812854767E+03  0.51100000000E-03 0.  1.
<mgrwt>
<rscale>  0 0.12499878E+03</rscale>
<asrwt>0</asrwt>
<pdfrwt beam="1">  1        4 0.10481113E-02 0.12499878E+03</pdfrwt>
<pdfrwt beam="2">  1       -4 0.88209930E-01 0.12499878E+03</pdfrwt>
<totfact> 0.50144610E+03</totfact>
</mgrwt>
</event>
<event>
 5    1  0.3296574E-054  0.1250101E+03  0.7818608E-02  0.1235053E+00
         -4   -1    0    0    0  501 -0.00000000000E+00  0.00000000000E+00  0.16808606190E+03  0.16809205992E+03  0.14200000000E+01 0.  1.
          4   -1    0    0  501    0  0.00000000000E+00 -0.00000000000E+00 -0.23215240538E+02  0.23258628361E+02  0.14200000000E+01 0. -1.
         25    2    1    2    0    0  0.00000000000E+00  0.00000000000E+00  0.14487082137E+03  0.19135068828E+03  0.12501012367E+03 0.  0.
        -11    1    3    3    0    0  0.53404202156E+01 -0.60783934515E+02  0.93180294971E+02  0.11138121096E+03  0.51100000000E-03 0.  1.
         11    1    3    3    0    0 -0.53404202156E+01  0.60783934515E+02  0.51690526396E+02  0.79969477319E+02  0.51100000000E-03 0. -1.
<mgrwt>
<rscale>  0 0.12501012E+03</rscale>
<asrwt>0</asrwt>
<pdfrwt beam="2">  1        4 0.35753744E-02 0.12501012E+03</pdfrwt>
<pdfrwt beam="1">  1       -4 0.25863193E-01 0.12501012E+03</pdfrwt>
<totfact> 0.91592060E+03</totfact>
</mgrwt>
</event>
<event>
 5    1  0.3296574E-054  0.1250034E+03  0.7818608E-02  0.1235064E+00
          4   -1    0    0  501    0  0.00000000000E+00  0.00000000000E+00  0.15646637362E+03  0.15647281704E+03  0.14200000000E+01 0. -1.
         -4   -1    0    0    0  501 -0.00000000000E+00 -0.00000000000E+00 -0.24939643007E+02  0.24980035895E+02  0.14200000000E+01 0.  1.
         25    2    1    2    0    0  0.00000000000E+00  0.00000000000E+00  0.13152673061E+03  0.18145285294E+03  0.12500342785E+03 0.  0.
        -11    1    3    3    0    0 -0.53682282523E+02 -0.31025252953E+02  0.77203319106E+02  0.99018716710E+02  0.51100000000E-03 0.  1.
         11    1    3    3    0    0  0.53682282523E+02  0.31025252953E+02  0.54323411503E+02  0.82434136225E+02  0.51100000000E-03 0. -1.
<mgrwt>
<rscale>  0 0.12500343E+03</rscale>
<asrwt>0</asrwt>
<pdfrwt beam="1">  1        4 0.24075353E-01 0.12500343E+03</pdfrwt>
<pdfrwt beam="2">  1       -4 0.38404709E-02 0.12500343E+03</pdfrwt>
<totfact> 0.93348963E+03</totfact>
</mgrwt>
</event>
<event>
 5    1  0.3296574E-054  0.1249980E+03  0.7818608E-02  0.1235072E+00
          4   -1    0    0  501    0  0.00000000000E+00  0.00000000000E+00  0.16694194423E+02  0.16754477832E+02  0.14200000000E+01 0. -1.
         -4   -1    0    0    0  501 -0.00000000000E+00 -0.00000000000E+00 -0.23349671755E+03  0.23350103535E+03  0.14200000000E+01 0.  1.
         25    2    1    2    0    0  0.00000000000E+00  0.00000000000E+00 -0.21680252313E+03  0.25025551318E+03  0.12499795135E+03 0.  0.
        -11    1    3    3    0    0 -0.37089812803E+02  0.45218536972E+02 -0.64275937749E+02  0.86900900303E+02  0.51100000000E-03 0.  1.
         11    1    3    3    0    0  0.37089812803E+02 -0.45218536972E+02 -0.15252658538E+03  0.16335461288E+03  0.51100000000E-03 0. -1.
<mgrwt>
<rscale>  0 0.12499795E+03</rscale>
<asrwt>0</asrwt>
<pdfrwt beam="1">  1        4 0.25733071E-02 0.12499795E+03</pdfrwt>
<pdfrwt beam="2">  1       -4 0.35927539E-01 0.12499795E+03</pdfrwt>
<totfact> 0.82297069E+03</totfact>
</mgrwt>
</event>
<event>
 5    1  0.3296574E-054  0.1249995E+03  0.7818608E-02  0.1235070E+00
         -4   -1    0    0    0  501 -0.00000000000E+00  0.00000000000E+00  0.18128275312E+03  0.18128831451E+03  0.14200000000E+01 0.  1.
          4   -1    0    0  501    0  0.00000000000E+00 -0.00000000000E+00 -0.21518380003E+02  0.21565182075E+02  0.14200000000E+01 0. -1.
         25    2    1    2    0    0  0.00000000000E+00  0.00000000000E+00  0.15976437311E+03  0.20285349658E+03  0.12499954464E+03 0.  0.
        -11    1    3    3    0    0 -0.12117472979E+02  0.59439661259E+02  0.10429572852E+03  0.12065448798E+03  0.51100000000E-03 0.  1.
         11    1    3    3    0    0  0.12117472979E+02 -0.59439661259E+02  0.55468644592E+02  0.82199008602E+02  0.51100000000E-03 0. -1.
<mgrwt>
<rscale>  0 0.12499954E+03</rscale>
<asrwt>0</asrwt>
<pdfrwt beam="2">  1        4 0.33145481E-02 0.12499954E+03</pdfrwt>
<pdfrwt beam="1">  1       -4 0.27893681E-01 0.12499954E+03</pdfrwt>
<totfact> 0.89657377E+03</totfact>
</mgrwt>
</event>
<event>
 5    1  0.3296574E-054  0.1250005E+03  0.7818608E-02  0.1235069E+00
          4   -1    0    0  501    0  0.00000000000E+00  0.00000000000E+00  0.23384360929E+03  0.23384792068E+03  0.14200000000E+01 0.  1.
         -4   -1    0    0    0  501 -0.00000000000E+00 -0.00000000000E+00 -0.16670016187E+02  0.16730386716E+02  0.14200000000E+01 0. -1.
         25    2    1    2    0    0  0.00000000000E+00  0.00000000000E+00  0.21717359311E+03  0.25057830740E+03  0.12500047438E+03 0.  0.
        -11    1    3    3    0    0  0.87164755449E+01  0.61637611339E+02  0.11976739015E+03  0.13497925700E+03  0.51100000000E-03 0. -1.
         11    1    3    3    0    0 -0.87164755449E+01 -0.61637611339E+02  0.97406202960E+02  0.11559905040E+03  0.51100000000E-03 0.  1.
<mgrwt>
<rscale>  0 0.12500047E+03</rscale>
<asrwt>0</asrwt>
<pdfrwt beam="1">  1        4 0.35980916E-01 0.12500047E+03</pdfrwt>
<pdfrwt beam="2">  1       -4 0.25695934E-02 0.12500047E+03</pdfrwt>
<totfact> 0.82245846E+03</totfact>
</mgrwt>
</event>
<event>
 5    1  0.3296574E-054  0.1249980E+03  0.7818608E-02  0.1235072E+00
          4   -1    0    0  501    0  0.00000000000E+00  0.00000000000E+00  0.17074080310E+02  0.17133027124E+02  0.14200000000E+01 0. -1.
         -4   -1    0    0    0  501 -0.00000000000E+00 -0.00000000000E+00 -0.22831978380E+03  0.22832419950E+03  0.14200000000E+01 0.  1.
         25    2    1    2    0    0  0.00000000000E+00  0.00000000000E+00 -0.21124570349E+03  0.24545722662E+03  0.12499801141E+03 0.  0.
        -11    1    3    3    0    0 -0.29077895602E+02  0.54966524538E+02 -0.11793048047E+03  0.13332082004E+03  0.51100000000E-03 0.  1.
         11    1    3    3    0    0  0.29077895602E+02 -0.54966524538E+02 -0.93315223027E+02  0.11213640658E+03  0.51100000000E-03 0. -1.
<mgrwt>
<rscale>  0 0.12499801E+03</rscale>
<asrwt>0</asrwt>
<pdfrwt beam="1">  1        4 0.26316558E-02 0.12499801E+03</pdfrwt>
<pdfrwt beam="2">  1       -4 0.35130992E-01 0.12499801E+03</pdfrwt>
<totfact> 0.82994944E+03</totfact>
</mgrwt>
</event>
<event>
 5    1  0.3296574E-054  0.1249966E+03  0.7818608E-02  0.1235075E+00
          4   -1    0    0  501    0  0.00000000000E+00  0.00000000000E+00  0.14083213732E+03  0.14083929602E+03  0.14200000000E+01 0. -1.
         -4   -1    0    0    0  501 -0.00000000000E+00 -0.00000000000E+00 -0.27709384916E+02  0.27745745843E+02  0.14200000000E+01 0.  1.
         25    2    1    2    0    0  0.00000000000E+00  0.00000000000E+00  0.11312275241E+03  0.16858504186E+03  0.12499663686E+03 0.  0.
        -11    1    3    3    0    0  0.27860290727E+02 -0.54930167252E+02  0.42254758048E+02  0.74692594356E+02  0.51100000000E-03 0.  1.
         11    1    3    3    0    0 -0.27860290727E+02  0.54930167252E+02  0.70867994360E+02  0.93892447505E+02  0.51100000000E-03 0. -1.
<mgrwt>
<rscale>  0 0.12499664E+03</rscale>
<asrwt>0</asrwt>
<pdfrwt beam="1">  1        4 0.21669830E-01 0.12499664E+03</pdfrwt>
<pdfrwt beam="2">  1       -4 0.42663300E-02 0.12499664E+03</pdfrwt>
<totfact> 0.95719946E+03</totfact>
</mgrwt>
</event>
<event>
 5    1  0.3296574E-054  0.1249993E+03  0.7818608E-02  0.1235070E+00
         -4   -1    0    0    0  501 -0.00000000000E+00  0.00000000000E+00  0.49062504660E+02  0.49083049656E+02  0.14200000000E+01 0.  1.
          4   -1    0    0  501    0  0.00000000000E+00 -0.00000000000E+00 -0.79573378901E+02  0.79586047959E+02  0.14200000000E+01 0. -1.
         25    2    1    2    0    0  0.00000000000E+00  0.00000000000E+00 -0.30510874241E+02  0.12866909762E+03  0.12499929293E+03 0.  0.
        -11    1    3    3    0    0  0.59352654233E+02  0.18236018706E+02 -0.79104123561E+01  0.62592847568E+02  0.51100000000E-03 0.  1.
         11    1    3    3    0    0 -0.59352654233E+02 -0.18236018706E+02 -0.22600461884E+02  0.66076250048E+02  0.51100000000E-03 0. -1.
<mgrwt>
<rscale>  0 0.12499929E+03</rscale>
<asrwt>0</asrwt>
<pdfrwt beam="2">  1        4 0.12244613E-01 0.12499929E+03</pdfrwt>
<pdfrwt beam="1">  1       -4 0.75506326E-02 0.12499929E+03</pdfrwt>
<totfact> 0.10373228E+04</totfact>
</mgrwt>
</event>
<event>
 5    1  0.3296574E-054  0.1250016E+03  0.7818608E-02  0.1235067E+00
         -4   -1    0    0    0  501 -0.00000000000E+00  0.00000000000E+00  0.66226793644E+01  0.67732032277E+01  0.14200000000E+01 0. -1.
          4   -1    0    0  501    0  0.00000000000E+00 -0.00000000000E+00 -0.58306466899E+03  0.58306639813E+03  0.14200000000E+01 0.  1.
         25    2    1    2    0    0  0.00000000000E+00  0.00000000000E+00 -0.57644198963E+03  0.58983960136E+03  0.12500155168E+03 0.  0.
        -11    1    3    3    0    0  0.61811622595E+02  0.79530545368E+01 -0.26587865078E+03  0.27308494045E+03  0.51100000000E-03 0. -1.
         11    1    3    3    0    0 -0.61811622595E+02 -0.79530545368E+01 -0.31056333885E+03  0.31675466090E+03  0.51100000000E-03 0.  1.
<mgrwt>
<rscale>  0 0.12500155E+03</rscale>
<asrwt>0</asrwt>
<pdfrwt beam="2">  1        4 0.89713929E-01 0.12500155E+03</pdfrwt>
<pdfrwt beam="1">  1       -4 0.10305860E-02 0.12500155E+03</pdfrwt>
<totfact> 0.49513640E+03</totfact>
</mgrwt>
</event>
<event>
 5    1  0.3296574E-054  0.1249998E+03  0.7818608E-02  0.1235070E+00
         -4   -1    0    0    0  501 -0.00000000000E+00  0.00000000000E+00  0.76679867004E+01  0.77983600865E+01  0.14200000000E+01 0.  1.
          4   -1    0    0  501    0  0.00000000000E+00 -0.00000000000E+00 -0.50499571997E+03  0.50499771642E+03  0.14200000000E+01 0. -1.
         25    2    1    2    0    0  0.00000000000E+00  0.00000000000E+00 -0.49732773327E+03  0.51279607651E+03  0.12499976720E+03 0.  0.
        -11    1    3    3    0    0 -0.22144285921E+02  0.58256873828E+02 -0.22942083458E+03  0.23773546662E+03  0.51100000000E-03 0.  1.
         11    1    3    3    0    0  0.22144285921E+02 -0.58256873828E+02 -0.26790689869E+03  0.27506060989E+03  0.51100000000E-03 0. -1.
<mgrwt>
<rscale>  0 0.12499977E+03</rscale>
<asrwt>0</asrwt>
<pdfrwt beam="2">  1        4 0.77701806E-01 0.12499977E+03</pdfrwt>
<pdfrwt beam="1">  1       -4 0.11898730E-02 0.12499977E+03</pdfrwt>
<totfact> 0.54885331E+03</totfact>
</mgrwt>
</event>
<event>
 5    1  0.3682708E-054  0.1250001E+03  0.7818608E-02  0.1235069E+00
         -4   -1    0    0    0  501 -0.00000000000E+00  0.00000000000E+00  0.22597200164E+03  0.22597646321E+03  0.14200000000E+01 0.  1.
          4   -1    0    0  501    0  0.00000000000E+00 -0.00000000000E+00 -0.17252654359E+02  0.17310993109E+02  0.14200000000E+01 0. -1.
         25    2    1    2    0    0  0.00000000000E+00  0.00000000000E+00  0.20871934728E+03  0.24328745632E+03  0.12500008189E+03 0.  0.
        -11    1    3    3    0    0 -0.50292749004E+02 -0.32189874471E+02  0.14028490948E+03  0.15246443667E+03  0.51100000000E-03 0.  1.
         11    1    3    3    0    0  0.50292749004E+02  0.32189874471E+02  0.68434437795E+02  0.90823019645E+02  0.51100000000E-03 0. -1.
<mgrwt>
<rscale>  0 0.12500008E+03</rscale>
<asrwt>0</asrwt>
<pdfrwt beam="2">  1        4 0.26590855E-02 0.12500008E+03</pdfrwt>
<pdfrwt beam="1">  1       -4 0.34769752E-01 0.12500008E+03</pdfrwt>
<totfact> 0.83310031E+03</totfact>
</mgrwt>
</event>
<event>
 5    1  0.3296574E-054  0.1250065E+03  0.7818608E-02  0.1235059E+00
          4   -1    0    0  501    0  0.00000000000E+00  0.00000000000E+00  0.12479713285E+03  0.12480521130E+03  0.14200000000E+01 0. -1.
         -4   -1    0    0    0  501 -0.00000000000E+00 -0.00000000000E+00 -0.31278837455E+02  0.31311053520E+02  0.14200000000E+01 0.  1.
         25    2    1    2    0    0  0.00000000000E+00  0.00000000000E+00  0.93518295393E+02  0.15611626482E+03  0.12500646610E+03 0.  0.
        -11    1    3    3    0    0  0.12592236447E+02  0.41306815977E+02 -0.96729474150E+01  0.44253625579E+02  0.51100000000E-03 0.  1.
         11    1    3    3    0    0 -0.12592236447E+02 -0.41306815977E+02  0.10319124281E+03  0.11186263924E+03  0.51100000000E-03 0. -1.
<mgrwt>
<rscale>  0 0.12500647E+03</rscale>
<asrwt>0</asrwt>
<pdfrwt beam="1">  1        4 0.19202659E-01 0.12500647E+03</pdfrwt>
<pdfrwt beam="2">  1       -4 0.48152283E-02 0.12500647E+03</pdfrwt>
<totfact> 0.98082544E+03</totfact>
</mgrwt>
</event>
<event>
 5    1  0.3296574E-054  0.1249996E+03  0.7818608E-02  0.1235070E+00
         -4   -1    0    0    0  501 -0.00000000000E+00  0.00000000000E+00  0.46419997581E+03  0.46420214772E+03  0.14200000000E+01 0.  1.
          4   -1    0    0  501    0  0.00000000000E+00 -0.00000000000E+00 -0.83528452139E+01  0.84726868918E+01  0.14200000000E+01 0. -1.
         25    2    1    2    0    0  0.00000000000E+00  0.00000000000E+00  0.45584713060E+03  0.47267483461E+03  0.12499957119E+03 0.  0.
        -11    1    3    3    0    0 -0.61026006694E+02 -0.12781010246E+02  0.24427373644E+03  0.25210550575E+03  0.51100000000E-03 0.  1.
         11    1    3    3    0    0  0.61026006694E+02  0.12781010246E+02  0.21157339416E+03  0.22056932886E+03  0.51100000000E-03 0. -1.
<mgrwt>
<rscale>  0 0.12499957E+03</rscale>
<asrwt>0</asrwt>
<pdfrwt beam="2">  1        4 0.12944385E-02 0.12499957E+03</pdfrwt>
<pdfrwt beam="1">  1       -4 0.71424782E-01 0.12499957E+03</pdfrwt>
<totfact> 0.58049133E+03</totfact>
</mgrwt>
</event>
<event>
 5    1  0.3296574E-054  0.1250059E+03  0.7818608E-02  0.1235060E+00
          4   -1    0    0  501    0  0.00000000000E+00  0.00000000000E+00  0.30698486309E+02  0.30731310770E+02  0.14200000000E+01 0. -1.
         -4   -1    0    0    0  501 -0.00000000000E+00 -0.00000000000E+00 -0.12715297057E+03  0.12716089936E+03  0.14200000000E+01 0.  1.
         25    2    1    2    0    0  0.00000000000E+00  0.00000000000E+00 -0.96454484266E+02  0.15789221013E+03  0.12500592980E+03 0.  0.
        -11    1    3    3    0    0  0.13540983115E+02 -0.60428206390E+02 -0.58922033378E+02  0.85479426582E+02  0.51100000000E-03 0.  1.
         11    1    3    3    0    0 -0.13540983115E+02  0.60428206390E+02 -0.37532450888E+02  0.72412783547E+02  0.51100000000E-03 0. -1.
<mgrwt>
<rscale>  0 0.12500593E+03</rscale>
<asrwt>0</asrwt>
<pdfrwt beam="1">  1        4 0.47259790E-02 0.12500593E+03</pdfrwt>
<pdfrwt beam="2">  1       -4 0.19565130E-01 0.12500593E+03</pdfrwt>
<totfact> 0.97737665E+03</totfact>
</mgrwt>
</event>
<event>
 5    1  0.3296574E-054  0.1250006E+03  0.7818608E-02  0.1235068E+00
          4   -1    0    0  501    0  0.00000000000E+00  0.00000000000E+00  0.29200273067E+03  0.29200618336E+03  0.14200000000E+01 0. -1.
         -4   -1    0    0    0  501 -0.00000000000E+00 -0.00000000000E+00 -0.13336341573E+02  0.13411726457E+02  0.14200000000E+01 0.  1.
         25    2    1    2    0    0  0.00000000000E+00  0.00000000000E+00  0.27866638910E+03  0.30541790982E+03  0.12500057289E+03 0.  0.
        -11    1    3    3    0    0 -0.44491106275E+02 -0.21019329891E+02  0.45177211269E+02  0.66800083720E+02  0.51100000000E-03 0.  1.
         11    1    3    3    0    0  0.44491106275E+02  0.21019329891E+02  0.23348917783E+03  0.23861782610E+03  0.51100000000E-03 0. -1.
<mgrwt>
<rscale>  0 0.12500057E+03</rscale>
<asrwt>0</asrwt>
<pdfrwt beam="1">  1        4 0.44929563E-01 0.12500057E+03</pdfrwt>
<pdfrwt beam="2">  1       -4 0.20578092E-02 0.12500057E+03</pdfrwt>
<totfact> 0.74923258E+03</totfact>
</mgrwt>
</event>
<event>
 5    1  0.3296574E-054  0.1249999E+03  0.7818608E-02  0.1235069E+00
          4   -1    0    0  501    0  0.00000000000E+00  0.00000000000E+00  0.26788142219E+02  0.26825751873E+02  0.14200000000E+01 0. -1.
         -4   -1    0    0    0  501 -0.00000000000E+00 -0.00000000000E+00 -0.14567653485E+03  0.14568345550E+03  0.14200000000E+01 0.  1.
         25    2    1    2    0    0  0.00000000000E+00  0.00000000000E+00 -0.11888839263E+03  0.17250920737E+03  0.12499990690E+03 0.  0.
        -11    1    3    3    0    0 -0.13525078592E+02 -0.36815049779E+02 -0.12660108296E+03  0.13253720175E+03  0.51100000000E-03 0.  1.
         11    1    3    3    0    0  0.13525078592E+02  0.36815049779E+02  0.77126903263E+01  0.39972005623E+02  0.51100000000E-03 0. -1.
<mgrwt>
<rscale>  0 0.12499991E+03</rscale>
<asrwt>0</asrwt>
<pdfrwt beam="1">  1        4 0.41246782E-02 0.12499991E+03</pdfrwt>
<pdfrwt beam="2">  1       -4 0.22415199E-01 0.12499991E+03</pdfrwt>
<totfact> 0.94983212E+03</totfact>
</mgrwt>
</event>
<event>
 5    1  0.3296574E-054  0.1250016E+03  0.7818608E-02  0.1235067E+00
         -4   -1    0    0    0  501 -0.00000000000E+00  0.00000000000E+00  0.59242653173E+02  0.59259668874E+02  0.14200000000E+01 0.  1.
          4   -1    0    0  501    0  0.00000000000E+00 -0.00000000000E+00 -0.65903956011E+02  0.65919252255E+02  0.14200000000E+01 0. -1.
         25    2    1    2    0    0  0.00000000000E+00  0.00000000000E+00 -0.66613028376E+01  0.12517892113E+03  0.12500155735E+03 0.  0.
        -11    1    3    3    0    0  0.19239793647E+01 -0.33963111993E+02  0.49176107204E+02  0.59795352603E+02  0.51100000000E-03 0.  1.
         11    1    3    3    0    0 -0.19239793647E+01  0.33963111993E+02 -0.55837410042E+02  0.65383568527E+02  0.51100000000E-03 0. -1.
<mgrwt>
<rscale>  0 0.12500156E+03</rscale>
<asrwt>0</asrwt>
<pdfrwt beam="2">  1        4 0.10141556E-01 0.12500156E+03</pdfrwt>
<pdfrwt beam="1">  1       -4 0.91167399E-02 0.12500156E+03</pdfrwt>
<totfact> 0.10448610E+04</totfact>
</mgrwt>
</event>
<event>
 5    1  0.3296574E-054  0.1250018E+03  0.7818608E-02  0.1235066E+00
          4   -1    0    0  501    0  0.00000000000E+00  0.00000000000E+00  0.26363943581E+02  0.26402157509E+02  0.14200000000E+01 0. -1.
         -4   -1    0    0    0  501 -0.00000000000E+00 -0.00000000000E+00 -0.14802170546E+03  0.14802851647E+03  0.14200000000E+01 0.  1.
         25    2    1    2    0    0  0.00000000000E+00  0.00000000000E+00 -0.12165776188E+03  0.17443067397E+03  0.12500179598E+03 0.  0.
        -11    1    3    3    0    0  0.52754779698E+02 -0.33504716943E+02 -0.59637110218E+02  0.86384129062E+02  0.51100000000E-03 0.  1.
         11    1    3    3    0    0 -0.52754779698E+02  0.33504716943E+02 -0.62020651661E+02  0.88046544913E+02  0.51100000000E-03 0. -1.
<mgrwt>
<rscale>  0 0.12500180E+03</rscale>
<asrwt>0</asrwt>
<pdfrwt beam="1">  1        4 0.40594549E-02 0.12500180E+03</pdfrwt>
<pdfrwt beam="2">  1       -4 0.22776033E-01 0.12500180E+03</pdfrwt>
<totfact> 0.94625402E+03</totfact>
</mgrwt>
</event>
<event>
 5    1  0.3296574E-054  0.1250012E+03  0.7818608E-02  0.1235067E+00
          4   -1    0    0  501    0  0.00000000000E+00  0.00000000000E+00  0.26407417174E+03  0.26407798958E+03  0.14200000000E+01 0.  1.
         -4   -1    0    0    0  501 -0.00000000000E+00 -0.00000000000E+00 -0.14754519735E+02  0.14822693837E+02  0.14200000000E+01 0. -1.
         25    2    1    2    0    0  0.00000000000E+00  0.00000000000E+00  0.24931965201E+03  0.27890068342E+03  0.12500120933E+03 0.  0.
        -11    1    3    3    0    0  0.34099875227E+02  0.48178499346E+02  0.17051357495E+03  0.18044070642E+03  0.51100000000E-03 0. -1.
         11    1    3    3    0    0 -0.34099875227E+02 -0.48178499346E+02  0.78806077056E+02  0.98459977001E+02  0.51100000000E-03 0.  1.
<mgrwt>
<rscale>  0 0.12500121E+03</rscale>
<asrwt>0</asrwt>
<pdfrwt beam="1">  1        4 0.40632330E-01 0.12500121E+03</pdfrwt>
<pdfrwt beam="2">  1       -4 0.22754642E-02 0.12500121E+03</pdfrwt>
<totfact> 0.78321989E+03</totfact>
</mgrwt>
</event>
<event>
 5    1  0.3296574E-054  0.1250048E+03  0.7818608E-02  0.1235062E+00
          4   -1    0    0  501    0  0.00000000000E+00  0.00000000000E+00  0.69291394834E+02  0.69305943454E+02  0.14200000000E+01 0. -1.
         -4   -1    0    0    0  501 -0.00000000000E+00 -0.00000000000E+00 -0.56349135653E+02  0.56367024836E+02  0.14200000000E+01 0.  1.
         25    2    1    2    0    0  0.00000000000E+00  0.00000000000E+00  0.12942259181E+02  0.12567296829E+03  0.12500477145E+03 0.  0.
        -11    1    3    3    0    0  0.59713015743E+02 -0.60723573639E+01  0.24000802894E+02  0.64641753634E+02  0.51100000000E-03 0.  1.
         11    1    3    3    0    0 -0.59713015743E+02  0.60723573639E+01 -0.11058543712E+02  0.61031214656E+02  0.51100000000E-03 0. -1.
<mgrwt>
<rscale>  0 0.12500477E+03</rscale>
<asrwt>0</asrwt>
<pdfrwt beam="1">  1        4 0.10662710E-01 0.12500477E+03</pdfrwt>
<pdfrwt beam="2">  1       -4 0.86715930E-02 0.12500477E+03</pdfrwt>
<totfact> 0.10437016E+04</totfact>
</mgrwt>
</event>
<event>
 5    1  0.3296574E-054  0.1250147E+03  0.7818608E-02  0.1235046E+00
          4   -1    0    0  501    0  0.00000000000E+00  0.00000000000E+00  0.11646344104E+03  0.11647209751E+03  0.14200000000E+01 0. -1.
         -4   -1    0    0    0  501 -0.00000000000E+00 -0.00000000000E+00 -0.33523536643E+02  0.33553597558E+02  0.14200000000E+01 0.  1.
         25    2    1    2    0    0  0.00000000000E+00  0.00000000000E+00  0.82939904396E+02  0.15002569507E+03  0.12501472489E+03 0.  0.
        -11    1    3    3    0    0 -0.18334896940E+02 -0.23898703144E+02 -0.24258670225E+02  0.38675567728E+02  0.51100000000E-03 0.  1.
         11    1    3    3    0    0  0.18334896940E+02  0.23898703144E+02  0.10719857462E+03  0.11135012734E+03  0.51100000000E-03 0. -1.
<mgrwt>
<rscale>  0 0.12501472E+03</rscale>
<asrwt>0</asrwt>
<pdfrwt beam="1">  1        4 0.17920430E-01 0.12501472E+03</pdfrwt>
<pdfrwt beam="2">  1       -4 0.51604455E-02 0.12501472E+03</pdfrwt>
<totfact> 0.99265677E+03</totfact>
</mgrwt>
</event>
<event>
 5    1  0.3296574E-054  0.1249950E+03  0.7818608E-02  0.1235077E+00
         -4   -1    0    0    0  501 -0.00000000000E+00  0.00000000000E+00  0.83714793993E+02  0.83726836398E+02  0.14200000000E+01 0.  1.
          4   -1    0    0  501    0  0.00000000000E+00 -0.00000000000E+00 -0.46631464165E+02  0.46653079750E+02  0.14200000000E+01 0. -1.
         25    2    1    2    0    0  0.00000000000E+00  0.00000000000E+00  0.37083329828E+02  0.13037991615E+03  0.12499499663E+03 0.  0.
        -11    1    3    3    0    0  0.46432723237E+02 -0.40404148700E+02  0.72376168297E+01  0.61974802275E+02  0.51100000000E-03 0.  1.
         11    1    3    3    0    0 -0.46432723237E+02  0.40404148700E+02  0.29845712998E+02  0.68405113873E+02  0.51100000000E-03 0. -1.
<mgrwt>
<rscale>  0 0.12499500E+03</rscale>
<asrwt>0</asrwt>
<pdfrwt beam="2">  1        4 0.71766606E-02 0.12499500E+03</pdfrwt>
<pdfrwt beam="1">  1       -4 0.12881788E-01 0.12499500E+03</pdfrwt>
<totfact> 0.10337554E+04</totfact>
</mgrwt>
</event>
<event>
 5    1  0.3296574E-054  0.1249993E+03  0.7818608E-02  0.1235070E+00
          4   -1    0    0  501    0  0.00000000000E+00  0.00000000000E+00  0.84968916096E+02  0.84980780783E+02  0.14200000000E+01 0. -1.
         -4   -1    0    0    0  501 -0.00000000000E+00 -0.00000000000E+00 -0.45946114418E+02  0.45968052277E+02  0.14200000000E+01 0.  1.
         25    2    1    2    0    0  0.00000000000E+00  0.00000000000E+00  0.39022801678E+02  0.13094883306E+03  0.12499927131E+03 0.  0.
        -11    1    3    3    0    0  0.36269651991E+02  0.46899712511E+02  0.40229829157E+02  0.71648515989E+02  0.51100000000E-03 0.  1.
         11    1    3    3    0    0 -0.36269651991E+02 -0.46899712511E+02 -0.12070274791E+01  0.59300317071E+02  0.51100000000E-03 0. -1.
<mgrwt>
<rscale>  0 0.12499927E+03</rscale>
<asrwt>0</asrwt>
<pdfrwt beam="1">  1        4 0.13074741E-01 0.12499927E+03</pdfrwt>
<pdfrwt beam="2">  1       -4 0.70712332E-02 0.12499927E+03</pdfrwt>
<totfact> 0.10324356E+04</totfact>
</mgrwt>
</event>
<event>
 5    1  0.3296574E-054  0.1250176E+03  0.7818608E-02  0.1235042E+00
          4   -1    0    0  501    0  0.00000000000E+00  0.00000000000E+00  0.64269081452E+02  0.64284766708E+02  0.14200000000E+01 0. -1.
         -4   -1    0    0    0  501 -0.00000000000E+00 -0.00000000000E+00 -0.60765344116E+02  0.60781933545E+02  0.14200000000E+01 0.  1.
         25    2    1    2    0    0  0.00000000000E+00  0.00000000000E+00  0.35037373367E+01  0.12506670025E+03  0.12501761211E+03 0.  0.
        -11    1    3    3    0    0  0.55006651658E+02  0.29613817395E+02 -0.40325820775E+00  0.62472974355E+02  0.51100000000E-03 0.  1.
         11    1    3    3    0    0 -0.55006651658E+02 -0.29613817395E+02  0.39069955444E+01  0.62593725898E+02  0.51100000000E-03 0. -1.
<mgrwt>
<rscale>  0 0.12501761E+03</rscale>
<asrwt>0</asrwt>
<pdfrwt beam="1">  1        4 0.98900337E-02 0.12501761E+03</pdfrwt>
<pdfrwt beam="2">  1       -4 0.93509972E-02 0.12501761E+03</pdfrwt>
<totfact> 0.10447255E+04</totfact>
</mgrwt>
</event>
<event>
 5    1  0.3296574E-054  0.1249992E+03  0.7818608E-02  0.1235071E+00
          4   -1    0    0  501    0  0.00000000000E+00  0.00000000000E+00  0.22094555321E+03  0.22095011628E+03  0.14200000000E+01 0. -1.
         -4   -1    0    0    0  501 -0.00000000000E+00 -0.00000000000E+00 -0.17646192916E+02  0.17703234858E+02  0.14200000000E+01 0.  1.
         25    2    1    2    0    0  0.00000000000E+00  0.00000000000E+00  0.20329936029E+03  0.23865335113E+03  0.12499916845E+03 0.  0.
        -11    1    3    3    0    0 -0.54690590747E+02 -0.29921191595E+02  0.93141322878E+02  0.11207874219E+03  0.51100000000E-03 0. -1.
         11    1    3    3    0    0  0.54690590747E+02  0.29921191595E+02  0.11015803741E+03  0.12657460895E+03  0.51100000000E-03 0.  1.
<mgrwt>
<rscale>  0 0.12499917E+03</rscale>
<asrwt>0</asrwt>
<pdfrwt beam="1">  1        4 0.33996362E-01 0.12499917E+03</pdfrwt>
<pdfrwt beam="2">  1       -4 0.27195378E-02 0.12499917E+03</pdfrwt>
<totfact> 0.83999893E+03</totfact>
</mgrwt>
</event>
<event>
 5    1  0.3296574E-054  0.1250003E+03  0.7818608E-02  0.1235069E+00
          4   -1    0    0  501    0  0.00000000000E+00  0.00000000000E+00  0.12009940647E+03  0.12010780089E+03  0.14200000000E+01 0.  1.
         -4   -1    0    0    0  501 -0.00000000000E+00 -0.00000000000E+00 -0.32500275985E+02  0.32531282469E+02  0.14200000000E+01 0. -1.
         25    2    1    2    0    0  0.00000000000E+00  0.00000000000E+00  0.87599130487E+02  0.15263908336E+03  0.12500032843E+03 0.  0.
        -11    1    3    3    0    0  0.17266979246E+01  0.60077996952E+02  0.22864630106E+02  0.64305042677E+02  0.51100000000E-03 0. -1.
         11    1    3    3    0    0 -0.17266979246E+01 -0.60077996952E+02  0.64734500381E+02  0.88334040683E+02  0.51100000000E-03 0.  1.
<mgrwt>
<rscale>  0 0.12500033E+03</rscale>
<asrwt>0</asrwt>
<pdfrwt beam="1">  1        4 0.18479863E-01 0.12500033E+03</pdfrwt>
<pdfrwt beam="2">  1       -4 0.50030733E-02 0.12500033E+03</pdfrwt>
<totfact> 0.98779484E+03</totfact>
</mgrwt>
</event>
<event>
 5    1  0.3296574E-054  0.1249981E+03  0.7818608E-02  0.1235072E+00
         -4   -1    0    0    0  501 -0.00000000000E+00  0.00000000000E+00  0.31408803795E+03  0.31409124786E+03  0.14200000000E+01 0. -1.
          4   -1    0    0  501    0  0.00000000000E+00 -0.00000000000E+00 -0.12392603820E+02  0.12473693496E+02  0.14200000000E+01 0.  1.
         25    2    1    2    0    0  0.00000000000E+00  0.00000000000E+00  0.30169543413E+03  0.32656494136E+03  0.12499810378E+03 0.  0.
        -11    1    3    3    0    0  0.30682097549E+02 -0.45358912655E+02  0.22954211986E+03  0.23598391229E+03  0.51100000000E-03 0. -1.
         11    1    3    3    0    0 -0.30682097549E+02  0.45358912655E+02  0.72153314268E+02  0.90581029070E+02  0.51100000000E-03 0.  1.
<mgrwt>
<rscale>  0 0.12499810E+03</rscale>
<asrwt>0</asrwt>
<pdfrwt beam="2">  1        4 0.19130391E-02 0.12499810E+03</pdfrwt>
<pdfrwt beam="1">  1       -4 0.48327718E-01 0.12499810E+03</pdfrwt>
<totfact> 0.72385098E+03</totfact>
</mgrwt>
</event>
<event>
 5    1  0.3296574E-054  0.1250092E+03  0.7818608E-02  0.1235055E+00
         -4   -1    0    0    0  501 -0.00000000000E+00  0.00000000000E+00  0.22463396659E+02  0.22508233815E+02  0.14200000000E+01 0. -1.
          4   -1    0    0  501    0  0.00000000000E+00 -0.00000000000E+00 -0.17369839283E+03  0.17370419704E+03  0.14200000000E+01 0.  1.
         25    2    1    2    0    0  0.00000000000E+00  0.00000000000E+00 -0.15123499617E+03  0.19621243086E+03  0.12500917549E+03 0.  0.
        -11    1    3    3    0    0  0.26007193578E+02  0.56201009751E+02 -0.88926228019E+02  0.10836420832E+03  0.51100000000E-03 0. -1.
         11    1    3    3    0    0 -0.26007193578E+02 -0.56201009751E+02 -0.62308768148E+02  0.87848222539E+02  0.51100000000E-03 0.  1.
<mgrwt>
<rscale>  0 0.12500918E+03</rscale>
<asrwt>0</asrwt>
<pdfrwt beam="2">  1        4 0.26726724E-01 0.12500918E+03</pdfrwt>
<pdfrwt beam="1">  1       -4 0.34598028E-02 0.12500918E+03</pdfrwt>
<totfact> 0.90758823E+03</totfact>
</mgrwt>
</event>
<event>
 5    1  0.3296574E-054  0.1249822E+03  0.7818608E-02  0.1235097E+00
         -4   -1    0    0    0  501 -0.00000000000E+00  0.00000000000E+00  0.66921462271E+02  0.66936525997E+02  0.14200000000E+01 0.  1.
          4   -1    0    0  501    0  0.00000000000E+00 -0.00000000000E+00 -0.58323756079E+02  0.58341039785E+02  0.14200000000E+01 0. -1.
         25    2    1    2    0    0  0.00000000000E+00  0.00000000000E+00  0.85977061923E+01  0.12527756578E+03  0.12498219048E+03 0.  0.
        -11    1    3    3    0    0  0.18774926111E+02  0.25424501896E+02  0.58335756242E+02  0.66347295376E+02  0.51100000000E-03 0.  1.
         11    1    3    3    0    0 -0.18774926111E+02 -0.25424501896E+02 -0.49738050049E+02  0.58930270406E+02  0.51100000000E-03 0. -1.
<mgrwt>
<rscale>  0 0.12498219E+03</rscale>
<asrwt>0</asrwt>
<pdfrwt beam="2">  1        4 0.89753739E-02 0.12498219E+03</pdfrwt>
<pdfrwt beam="1">  1       -4 0.10298098E-01 0.12498219E+03</pdfrwt>
<totfact> 0.10451043E+04</totfact>
</mgrwt>
</event>
<event>
 5    1  0.3296574E-054  0.1249985E+03  0.7818608E-02  0.1235072E+00
          4   -1    0    0  501    0  0.00000000000E+00  0.00000000000E+00  0.98855955454E+01  0.99870615943E+01  0.14200000000E+01 0. -1.
         -4   -1    0    0    0  501 -0.00000000000E+00 -0.00000000000E+00 -0.39301599532E+03  0.39301856060E+03  0.14200000000E+01 0.  1.
         25    2    1    2    0    0  0.00000000000E+00  0.00000000000E+00 -0.38313039977E+03  0.40300562219E+03  0.12499851315E+03 0.  0.
        -11    1    3    3    0    0 -0.44773940098E+01  0.62290181830E+02 -0.19949097956E+03  0.20903771127E+03  0.51100000000E-03 0.  1.
         11    1    3    3    0    0  0.44773940098E+01 -0.62290181830E+02 -0.18363942022E+03  0.19396791092E+03  0.51100000000E-03 0. -1.
<mgrwt>
<rscale>  0 0.12499851E+03</rscale>
<asrwt>0</asrwt>
<pdfrwt beam="1">  1        4 0.15288636E-02 0.12499851E+03</pdfrwt>
<pdfrwt beam="2">  1       -4 0.60471990E-01 0.12499851E+03</pdfrwt>
<totfact> 0.64263627E+03</totfact>
</mgrwt>
</event>
<event>
 5    1  0.3296574E-054  0.1250015E+03  0.7818608E-02  0.1235067E+00
          4   -1    0    0  501    0  0.00000000000E+00  0.00000000000E+00  0.11620890733E+03  0.11621758276E+03  0.14200000000E+01 0. -1.
         -4   -1    0    0    0  501 -0.00000000000E+00 -0.00000000000E+00 -0.33589884905E+02  0.33619886495E+02  0.14200000000E+01 0.  1.
         25    2    1    2    0    0  0.00000000000E+00  0.00000000000E+00  0.82619022421E+02  0.14983746925E+03  0.12500145730E+03 0.  0.
        -11    1    3    3    0    0  0.39445354826E+02 -0.28459732789E+01 -0.16703728919E+02  0.42930759850E+02  0.51100000000E-03 0.  1.
         11    1    3    3    0    0 -0.39445354826E+02  0.28459732789E+01  0.99322751341E+02  0.10690670940E+03  0.51100000000E-03 0. -1.
<mgrwt>
<rscale>  0 0.12500146E+03</rscale>
<asrwt>0</asrwt>
<pdfrwt beam="1">  1        4 0.17881269E-01 0.12500146E+03</pdfrwt>
<pdfrwt beam="2">  1       -4 0.51706498E-02 0.12500146E+03</pdfrwt>
<totfact> 0.99332848E+03</totfact>
</mgrwt>
</event>
<event>
 5    1  0.3296574E-054  0.1249997E+03  0.7818608E-02  0.1235070E+00
         -4   -1    0    0    0  501 -0.00000000000E+00  0.00000000000E+00  0.30773087023E+03  0.30773414645E+03  0.14200000000E+01 0.  1.
          4   -1    0    0  501    0  0.00000000000E+00 -0.00000000000E+00 -0.12650587849E+02  0.12730034287E+02  0.14200000000E+01 0. -1.
         25    2    1    2    0    0  0.00000000000E+00  0.00000000000E+00  0.29508028238E+03  0.32046418074E+03  0.12499967235E+03 0.  0.
        -11    1    3    3    0    0 -0.61580520028E+02 -0.22469415075E+01  0.17430866131E+03  0.18488028181E+03  0.51100000000E-03 0.  1.
         11    1    3    3    0    0  0.61580520028E+02  0.22469415075E+01  0.12077162107E+03  0.13558389893E+03  0.51100000000E-03 0. -1.
<mgrwt>
<rscale>  0 0.12499967E+03</rscale>
<asrwt>0</asrwt>
<pdfrwt beam="2">  1        4 0.19526074E-02 0.12499967E+03</pdfrwt>
<pdfrwt beam="1">  1       -4 0.47349578E-01 0.12499967E+03</pdfrwt>
<totfact> 0.73101477E+03</totfact>
</mgrwt>
</event>
<event>
 5    1  0.3296574E-054  0.1249981E+03  0.7818608E-02  0.1235072E+00
          4   -1    0    0  501    0  0.00000000000E+00  0.00000000000E+00  0.15978255181E+02  0.16041229336E+02  0.14200000000E+01 0. -1.
         -4   -1    0    0    0  501 -0.00000000000E+00 -0.00000000000E+00 -0.24391958081E+03  0.24392371411E+03  0.14200000000E+01 0.  1.
         25    2    1    2    0    0  0.00000000000E+00  0.00000000000E+00 -0.22794132563E+03  0.25996494344E+03  0.12499809554E+03 0.  0.
        -11    1    3    3    0    0  0.16606718875E+02  0.49616379552E+02 -0.18506539262E+03  0.19231944201E+03  0.51100000000E-03 0.  1.
         11    1    3    3    0    0 -0.16606718875E+02 -0.49616379552E+02 -0.42875933018E+02  0.67645501432E+02  0.51100000000E-03 0. -1.
<mgrwt>
<rscale>  0 0.12499810E+03</rscale>
<asrwt>0</asrwt>
<pdfrwt beam="1">  1        4 0.24633554E-02 0.12499810E+03</pdfrwt>
<pdfrwt beam="2">  1       -4 0.37531249E-01 0.12499810E+03</pdfrwt>
<totfact> 0.80914412E+03</totfact>
</mgrwt>
</event>
<event>
 5    1  0.3296574E-054  0.1250002E+03  0.7818608E-02  0.1235069E+00
          4   -1    0    0  501    0  0.00000000000E+00  0.00000000000E+00  0.15804268400E+02  0.15867933062E+02  0.14200000000E+01 0. -1.
         -4   -1    0    0    0  501 -0.00000000000E+00 -0.00000000000E+00 -0.24660231521E+03  0.24660640354E+03  0.14200000000E+01 0.  1.
         25    2    1    2    0    0  0.00000000000E+00  0.00000000000E+00 -0.23079804681E+03  0.26247433660E+03  0.12500015585E+03 0.  0.
        -11    1    3    3    0    0  0.42320787591E+02  0.44227301048E+02 -0.14188942302E+03  0.15453061699E+03  0.51100000000E-03 0.  1.
         11    1    3    3    0    0 -0.42320787591E+02 -0.44227301048E+02 -0.88908623785E+02  0.10794371961E+03  0.51100000000E-03 0. -1.
<mgrwt>
<rscale>  0 0.12500016E+03</rscale>
<asrwt>0</asrwt>
<pdfrwt beam="1">  1        4 0.24366378E-02 0.12500016E+03</pdfrwt>
<pdfrwt beam="2">  1       -4 0.37944027E-01 0.12500016E+03</pdfrwt>
<totfact> 0.80559794E+03</totfact>
</mgrwt>
</event>
<event>
 5    1  0.3296574E-054  0.1250005E+03  0.7818608E-02  0.1235068E+00
          4   -1    0    0  501    0  0.00000000000E+00  0.00000000000E+00  0.13508845954E+03  0.13509592259E+03  0.14200000000E+01 0. -1.
         -4   -1    0    0    0  501 -0.00000000000E+00 -0.00000000000E+00 -0.28890783419E+02  0.28925659310E+02  0.14200000000E+01 0.  1.
         25    2    1    2    0    0  0.00000000000E+00  0.00000000000E+00  0.10619767612E+03  0.16402158190E+03  0.12500053166E+03 0.  0.
        -11    1    3    3    0    0 -0.43488757217E+02  0.21036532814E-01 -0.58028610801E+01  0.43874202486E+02  0.51100000000E-03 0.  1.
         11    1    3    3    0    0  0.43488757217E+02 -0.21036532814E-01  0.11200053720E+03  0.12014737942E+03  0.51100000000E-03 0. -1.
<mgrwt>
<rscale>  0 0.12500053E+03</rscale>
<asrwt>0</asrwt>
<pdfrwt beam="1">  1        4 0.20786096E-01 0.12500053E+03</pdfrwt>
<pdfrwt beam="2">  1       -4 0.44479929E-02 0.12500053E+03</pdfrwt>
<totfact> 0.96571857E+03</totfact>
</mgrwt>
</event>
<event>
 5    1  0.3296574E-054  0.1249940E+03  0.7818608E-02  0.1235079E+00
          4   -1    0    0  501    0  0.00000000000E+00  0.00000000000E+00  0.74596034397E+02  0.74609548637E+02  0.14200000000E+01 0.  1.
         -4   -1    0    0    0  501 -0.00000000000E+00 -0.00000000000E+00 -0.52332442996E+02  0.52351704747E+02  0.14200000000E+01 0. -1.
         25    2    1    2    0    0  0.00000000000E+00  0.00000000000E+00  0.22263591401E+02  0.12696125338E+03  0.12499396929E+03 0.  0.
        -11    1    3    3    0    0  0.24081475919E+02  0.33086093612E+01 -0.47350508910E+02  0.53225323603E+02  0.51100000000E-03 0. -1.
         11    1    3    3    0    0 -0.24081475919E+02 -0.33086093612E+01  0.69614100311E+02  0.73735929781E+02  0.51100000000E-03 0.  1.
<mgrwt>
<rscale>  0 0.12499397E+03</rscale>
<asrwt>0</asrwt>
<pdfrwt beam="1">  1        4 0.11478834E-01 0.12499397E+03</pdfrwt>
<pdfrwt beam="2">  1       -4 0.80536663E-02 0.12499397E+03</pdfrwt>
<totfact> 0.10411405E+04</totfact>
</mgrwt>
</event>
<event>
 5    1  0.3296574E-054  0.1250002E+03  0.7818608E-02  0.1235069E+00
          4   -1    0    0  501    0  0.00000000000E+00  0.00000000000E+00  0.16054898185E+02  0.16117572886E+02  0.14200000000E+01 0. -1.
         -4   -1    0    0    0  501 -0.00000000000E+00 -0.00000000000E+00 -0.24276786296E+03  0.24277201587E+03  0.14200000000E+01 0.  1.
         25    2    1    2    0    0  0.00000000000E+00  0.00000000000E+00 -0.22671296478E+03  0.25888958875E+03  0.12500020306E+03 0.  0.
        -11    1    3    3    0    0 -0.39798001525E+02  0.34282218413E+02 -0.43209880115E+02  0.68016506559E+02  0.51100000000E-03 0.  1.
         11    1    3    3    0    0  0.39798001525E+02 -0.34282218413E+02 -0.18350308466E+03  0.19087308219E+03  0.51100000000E-03 0. -1.
<mgrwt>
<rscale>  0 0.12500020E+03</rscale>
<asrwt>0</asrwt>
<pdfrwt beam="1">  1        4 0.24751251E-02 0.12500020E+03</pdfrwt>
<pdfrwt beam="2">  1       -4 0.37354040E-01 0.12500020E+03</pdfrwt>
<totfact> 0.81061779E+03</totfact>
</mgrwt>
</event>
<event>
 5    1  0.3296574E-054  0.1249996E+03  0.7818608E-02  0.1235070E+00
         -4   -1    0    0    0  501 -0.00000000000E+00  0.00000000000E+00  0.41342160094E+02  0.41366539633E+02  0.14200000000E+01 0. -1.
          4   -1    0    0  501    0  0.00000000000E+00 -0.00000000000E+00 -0.94427637178E+02  0.94438313534E+02  0.14200000000E+01 0.  1.
         25    2    1    2    0    0  0.00000000000E+00  0.00000000000E+00 -0.53085477085E+02  0.13580485317E+03  0.12499956106E+03 0.  0.
        -11    1    3    3    0    0 -0.46606647242E+02 -0.41402953174E+02 -0.21703680146E+02  0.66010861461E+02  0.51100000000E-03 0. -1.
         11    1    3    3    0    0  0.46606647242E+02  0.41402953174E+02 -0.31381796939E+02  0.69793991705E+02  0.51100000000E-03 0.  1.
<mgrwt>
<rscale>  0 0.12499956E+03</rscale>
<asrwt>0</asrwt>
<pdfrwt beam="2">  1        4 0.14530025E-01 0.12499956E+03</pdfrwt>
<pdfrwt beam="1">  1       -4 0.63630289E-02 0.12499956E+03</pdfrwt>
<totfact> 0.10221236E+04</totfact>
</mgrwt>
</event>
<event>
 5    1  0.3296574E-054  0.1250029E+03  0.7818608E-02  0.1235065E+00
          4   -1    0    0  501    0  0.00000000000E+00  0.00000000000E+00  0.12603789579E+02  0.12683529152E+02  0.14200000000E+01 0.  1.
         -4   -1    0    0    0  501 -0.00000000000E+00 -0.00000000000E+00 -0.30888225664E+03  0.30888552065E+03  0.14200000000E+01 0. -1.
         25    2    1    2    0    0  0.00000000000E+00  0.00000000000E+00 -0.29627846706E+03  0.32156904980E+03  0.12500289495E+03 0.  0.
        -11    1    3    3    0    0 -0.49159073138E+02  0.30069241956E+02 -0.21039447146E+03  0.21814354770E+03  0.51100000000E-03 0. -1.
         11    1    3    3    0    0  0.49159073138E+02 -0.30069241956E+02 -0.85883995603E+02  0.10342550210E+03  0.51100000000E-03 0.  1.
<mgrwt>
<rscale>  0 0.12500289E+03</rscale>
<asrwt>0</asrwt>
<pdfrwt beam="1">  1        4 0.19454297E-02 0.12500289E+03</pdfrwt>
<pdfrwt beam="2">  1       -4 0.47526726E-01 0.12500289E+03</pdfrwt>
<totfact> 0.72965216E+03</totfact>
</mgrwt>
</event>
<event>
 5    1  0.3296574E-054  0.1249974E+03  0.7818608E-02  0.1235073E+00
         -4   -1    0    0    0  501 -0.00000000000E+00  0.00000000000E+00  0.15743901254E+02  0.15807809042E+02  0.14200000000E+01 0.  1.
          4   -1    0    0  501    0  0.00000000000E+00 -0.00000000000E+00 -0.24753301513E+03  0.24753708809E+03  0.14200000000E+01 0. -1.
         25    2    1    2    0    0  0.00000000000E+00  0.00000000000E+00 -0.23178911388E+03  0.26334489713E+03  0.12499736611E+03 0.  0.
        -11    1    3    3    0    0 -0.61103007434E+02 -0.84942471419E+01 -0.94789092243E+02  0.11309598472E+03  0.51100000000E-03 0.  1.
         11    1    3    3    0    0  0.61103007434E+02  0.84942471419E+01 -0.13700002164E+03  0.15024891241E+03  0.51100000000E-03 0. -1.
<mgrwt>
<rscale>  0 0.12499737E+03</rscale>
<asrwt>0</asrwt>
<pdfrwt beam="2">  1        4 0.38087229E-01 0.12499737E+03</pdfrwt>
<pdfrwt beam="1">  1       -4 0.24273681E-02 0.12499737E+03</pdfrwt>
<totfact> 0.80443648E+03</totfact>
</mgrwt>
</event>
<event>
 5    1  0.3773516E-054  0.1249990E+03  0.7818608E-02  0.1235071E+00
          4   -1    0    0  501    0  0.00000000000E+00  0.00000000000E+00  0.44906094028E+03  0.44906318541E+03  0.14200000000E+01 0. -1.
         -4   -1    0    0    0  501 -0.00000000000E+00 -0.00000000000E+00 -0.86383295258E+01  0.87542639323E+01  0.14200000000E+01 0.  1.
         25    2    1    2    0    0  0.00000000000E+00  0.00000000000E+00  0.44042261076E+03  0.45781744934E+03  0.12499896341E+03 0.  0.
        -11    1    3    3    0    0 -0.44568153608E+02  0.43695257486E+02  0.20829282198E+03  0.21744308573E+03  0.51100000000E-03 0.  1.
         11    1    3    3    0    0  0.44568153608E+02 -0.43695257486E+02  0.23212978878E+03  0.24037436361E+03  0.51100000000E-03 0. -1.
<mgrwt>
<rscale>  0 0.12499896E+03</rscale>
<asrwt>0</asrwt>
<pdfrwt beam="1">  1        4 0.69095387E-01 0.12499896E+03</pdfrwt>
<pdfrwt beam="2">  1       -4 0.13380645E-02 0.12499896E+03</pdfrwt>
<totfact> 0.59293855E+03</totfact>
</mgrwt>
</event>
<event>
 5    1  0.3296574E-054  0.1250004E+03  0.7818608E-02  0.1235069E+00
         -4   -1    0    0    0  501 -0.00000000000E+00  0.00000000000E+00  0.10299471028E+03  0.10300449867E+03  0.14200000000E+01 0. -1.
          4   -1    0    0  501    0  0.00000000000E+00 -0.00000000000E+00 -0.37902081334E+02  0.37928672128E+02  0.14200000000E+01 0.  1.
         25    2    1    2    0    0  0.00000000000E+00  0.00000000000E+00  0.65092628950E+02  0.14093317080E+03  0.12500043315E+03 0.  0.
        -11    1    3    3    0    0  0.35888642371E+02 -0.45820033450E+02  0.58226880980E+02  0.82327636827E+02  0.51100000000E-03 0. -1.
         11    1    3    3    0    0 -0.35888642371E+02  0.45820033450E+02  0.68657479693E+01  0.58605533971E+02  0.51100000000E-03 0.  1.
<mgrwt>
<rscale>  0 0.12500043E+03</rscale>
<asrwt>0</asrwt>
<pdfrwt beam="2">  1        4 0.58338879E-02 0.12500043E+03</pdfrwt>
<pdfrwt beam="1">  1       -4 0.15848138E-01 0.12500043E+03</pdfrwt>
<totfact> 0.10114183E+04</totfact>
</mgrwt>
</event>
<event>
 5    1  0.3296574E-054  0.1249972E+03  0.7818608E-02  0.1235074E+00
          4   -1    0    0  501    0  0.00000000000E+00  0.00000000000E+00  0.24821834714E+03  0.24822240885E+03  0.14200000000E+01 0.  1.
         -4   -1    0    0    0  501 -0.00000000000E+00 -0.00000000000E+00 -0.15700221721E+02  0.15764306584E+02  0.14200000000E+01 0. -1.
         25    2    1    2    0    0  0.00000000000E+00  0.00000000000E+00  0.23251812542E+03  0.26398671544E+03  0.12499722908E+03 0.  0.
        -11    1    3    3    0    0 -0.28927117078E+02  0.47023061526E+02  0.54392166159E+02  0.77501317134E+02  0.51100000000E-03 0. -1.
         11    1    3    3    0    0  0.28927117078E+02 -0.47023061526E+02  0.17812595926E+03  0.18648539830E+03  0.51100000000E-03 0.  1.
<mgrwt>
<rscale>  0 0.12499723E+03</rscale>
<asrwt>0</asrwt>
<pdfrwt beam="1">  1        4 0.38192680E-01 0.12499723E+03</pdfrwt>
<pdfrwt beam="2">  1       -4 0.24206608E-02 0.12499723E+03</pdfrwt>
<totfact> 0.80354771E+03</totfact>
</mgrwt>
</event>
<event>
 5    1  0.3296574E-054  0.1249986E+03  0.7818608E-02  0.1235071E+00
          4   -1    0    0  501    0  0.00000000000E+00  0.00000000000E+00  0.20194034194E+03  0.20194533444E+03  0.14200000000E+01 0. -1.
         -4   -1    0    0    0  501 -0.00000000000E+00 -0.00000000000E+00 -0.19311865406E+02  0.19364001277E+02  0.14200000000E+01 0.  1.
         25    2    1    2    0    0  0.00000000000E+00  0.00000000000E+00  0.18262847653E+03  0.22130933572E+03  0.12499864653E+03 0.  0.
        -11    1    3    3    0    0  0.55515680973E+02 -0.10140036719E+02  0.43762246183E+02  0.71413901797E+02  0.51100000000E-03 0.  1.
         11    1    3    3    0    0 -0.55515680973E+02  0.10140036719E+02  0.13886623035E+03  0.14989543392E+03  0.51100000000E-03 0. -1.
<mgrwt>
<rscale>  0 0.12499865E+03</rscale>
<asrwt>0</asrwt>
<pdfrwt beam="1">  1        4 0.31072140E-01 0.12499865E+03</pdfrwt>
<pdfrwt beam="2">  1       -4 0.29754506E-02 0.12499865E+03</pdfrwt>
<totfact> 0.86664205E+03</totfact>
</mgrwt>
</event>
<event>
 5    1  0.3296574E-054  0.1250021E+03  0.7818608E-02  0.1235066E+00
          4   -1    0    0  501    0  0.00000000000E+00  0.00000000000E+00  0.20069437029E+02  0.20119609903E+02  0.14200000000E+01 0.  1.
         -4   -1    0    0    0  501 -0.00000000000E+00 -0.00000000000E+00 -0.19434744604E+03  0.19435263359E+03  0.14200000000E+01 0. -1.
         25    2    1    2    0    0  0.00000000000E+00  0.00000000000E+00 -0.17427800901E+03  0.21447224349E+03  0.12500207519E+03 0.  0.
        -11    1    3    3    0    0  0.28044487382E+02  0.53970848986E+02 -0.62451647892E+02  0.87175421636E+02  0.51100000000E-03 0. -1.
         11    1    3    3    0    0 -0.28044487382E+02 -0.53970848986E+02 -0.11182636112E+03  0.12729682185E+03  0.51100000000E-03 0.  1.
<mgrwt>
<rscale>  0 0.12500208E+03</rscale>
<asrwt>0</asrwt>
<pdfrwt beam="1">  1        4 0.30918643E-02 0.12500208E+03</pdfrwt>
<pdfrwt beam="2">  1       -4 0.29903864E-01 0.12500208E+03</pdfrwt>
<totfact> 0.87746605E+03</totfact>
</mgrwt>
</event>
<event>
 5    1  0.3296574E-054  0.1249984E+03  0.7818608E-02  0.1235072E+00
         -4   -1    0    0    0  501 -0.00000000000E+00  0.00000000000E+00  0.14731756239E+02  0.14800035199E+02  0.14200000000E+01 0. -1.
          4   -1    0    0  501    0  0.00000000000E+00 -0.00000000000E+00 -0.26446829838E+03  0.26447211053E+03  0.14200000000E+01 0.  1.
         25    2    1    2    0    0  0.00000000000E+00  0.00000000000E+00 -0.24973654214E+03  0.27927214573E+03  0.12499836359E+03 0.  0.
        -11    1    3    3    0    0  0.54474128651E+02  0.30389611479E+02 -0.11616101330E+03  0.13184968786E+03  0.51100000000E-03 0. -1.
         11    1    3    3    0    0 -0.54474128651E+02 -0.30389611479E+02 -0.13357552884E+03  0.14742245787E+03  0.51100000000E-03 0.  1.
<mgrwt>
<rscale>  0 0.12499836E+03</rscale>
<asrwt>0</asrwt>
<pdfrwt beam="2">  1        4 0.40692973E-01 0.12499836E+03</pdfrwt>
<pdfrwt beam="1">  1       -4 0.22719697E-02 0.12499836E+03</pdfrwt>
<totfact> 0.78277561E+03</totfact>
</mgrwt>
</event>
<event>
 5    1  0.3296574E-054  0.1250048E+03  0.7818608E-02  0.1235062E+00
         -4   -1    0    0    0  501 -0.00000000000E+00  0.00000000000E+00  0.73809571052E+01  0.75163107832E+01  0.14200000000E+01 0. -1.
          4   -1    0    0  501    0  0.00000000000E+00 -0.00000000000E+00 -0.52432898898E+03  0.52433091182E+03  0.14200000000E+01 0.  1.
         25    2    1    2    0    0  0.00000000000E+00  0.00000000000E+00 -0.51694803188E+03  0.53184722260E+03  0.12500480201E+03 0.  0.
        -11    1    3    3    0    0 -0.62023470701E+02 -0.42741064551E+01 -0.28583989496E+03  0.29252286143E+03  0.51100000000E-03 0. -1.
         11    1    3    3    0    0  0.62023470701E+02  0.42741064551E+01 -0.23110813692E+03  0.23932436118E+03  0.51100000000E-03 0.  1.
<mgrwt>
<rscale>  0 0.12500480E+03</rscale>
<asrwt>0</asrwt>
<pdfrwt beam="2">  1        4 0.80676529E-01 0.12500480E+03</pdfrwt>
<pdfrwt beam="1">  1       -4 0.11460920E-02 0.12500480E+03</pdfrwt>
<totfact> 0.53469768E+03</totfact>
</mgrwt>
</event>
<event>
 5    1  0.3296574E-054  0.1250025E+03  0.7818608E-02  0.1235065E+00
         -4   -1    0    0    0  501 -0.00000000000E+00  0.00000000000E+00  0.17744406055E+02  0.17801133285E+02  0.14200000000E+01 0.  1.
          4   -1    0    0  501    0  0.00000000000E+00 -0.00000000000E+00 -0.21973820540E+03  0.21974279354E+03  0.14200000000E+01 0. -1.
         25    2    1    2    0    0  0.00000000000E+00  0.00000000000E+00 -0.20199379935E+03  0.23754392683E+03  0.12500248876E+03 0.  0.
        -11    1    3    3    0    0  0.46270093727E+02  0.29330002315E+02 -0.43821932248E+02  0.70153633944E+02  0.51100000000E-03 0.  1.
         11    1    3    3    0    0 -0.46270093727E+02 -0.29330002315E+02 -0.15817186710E+03  0.16739029288E+03  0.51100000000E-03 0. -1.
<mgrwt>
<rscale>  0 0.12500249E+03</rscale>
<asrwt>0</asrwt>
<pdfrwt beam="2">  1        4 0.33810592E-01 0.12500249E+03</pdfrwt>
<pdfrwt beam="1">  1       -4 0.27346254E-02 0.12500249E+03</pdfrwt>
<totfact> 0.84159851E+03</totfact>
</mgrwt>
</event>
<event>
 5    1  0.3296574E-054  0.1249700E+03  0.7818608E-02  0.1235116E+00
         -4   -1    0    0    0  501 -0.00000000000E+00  0.00000000000E+00  0.10779171696E+03  0.10780106978E+03  0.14200000000E+01 0.  1.
          4   -1    0    0  501    0  0.00000000000E+00 -0.00000000000E+00 -0.36196652917E+02  0.36224495613E+02  0.14200000000E+01 0. -1.
         25    2    1    2    0    0  0.00000000000E+00  0.00000000000E+00  0.71595064043E+02  0.14402556539E+03  0.12497003757E+03 0.  0.
        -11    1    3    3    0    0 -0.23038602440E+02 -0.50650786335E+02  0.68559181676E+02  0.88298588613E+02  0.51100000000E-03 0.  1.
         11    1    3    3    0    0  0.23038602440E+02  0.50650786335E+02  0.30358823669E+01  0.55726976777E+02  0.51100000000E-03 0. -1.
<mgrwt>
<rscale>  0 0.12497004E+03</rscale>
<asrwt>0</asrwt>
<pdfrwt beam="2">  1        4 0.55715770E-02 0.12497004E+03</pdfrwt>
<pdfrwt beam="1">  1       -4 0.16586202E-01 0.12497004E+03</pdfrwt>
<totfact> 0.10057609E+04</totfact>
</mgrwt>
</event>
<event>
 5    1  0.3296574E-054  0.1250007E+03  0.7818608E-02  0.1235068E+00
         -4   -1    0    0    0  501 -0.00000000000E+00  0.00000000000E+00  0.12779668675E+02  0.12858317598E+02  0.14200000000E+01 0.  1.
          4   -1    0    0  501    0  0.00000000000E+00 -0.00000000000E+00 -0.30464682145E+03  0.30465013084E+03  0.14200000000E+01 0. -1.
         25    2    1    2    0    0  0.00000000000E+00  0.00000000000E+00 -0.29186715278E+03  0.31750844844E+03  0.12500071983E+03 0.  0.
        -11    1    3    3    0    0 -0.40894574490E+02  0.39513943518E+02 -0.80059613808E+02  0.98200100399E+02  0.51100000000E-03 0.  1.
         11    1    3    3    0    0  0.40894574490E+02 -0.39513943518E+02 -0.21180753897E+03  0.21930834804E+03  0.51100000000E-03 0. -1.
<mgrwt>
<rscale>  0 0.12500072E+03</rscale>
<asrwt>0</asrwt>
<pdfrwt beam="2">  1        4 0.46875041E-01 0.12500072E+03</pdfrwt>
<pdfrwt beam="1">  1       -4 0.19724076E-02 0.12500072E+03</pdfrwt>
<totfact> 0.73452275E+03</totfact>
</mgrwt>
</event>
<event>
 5    1  0.3296574E-054  0.1249979E+03  0.7818608E-02  0.1235073E+00
          4   -1    0    0  501    0  0.00000000000E+00  0.00000000000E+00  0.22136209807E+03  0.22136665256E+03  0.14200000000E+01 0.  1.
         -4   -1    0    0    0  501 -0.00000000000E+00 -0.00000000000E+00 -0.17612519054E+02  0.17669669704E+02  0.14200000000E+01 0. -1.
         25    2    1    2    0    0  0.00000000000E+00  0.00000000000E+00  0.20374957902E+03  0.23903632226E+03  0.12499788962E+03 0.  0.
        -11    1    3    3    0    0 -0.37303011164E+01  0.60798492965E+02  0.75119608279E+02  0.96712602289E+02  0.51100000000E-03 0. -1.
         11    1    3    3    0    0  0.37303011164E+01 -0.60798492965E+02  0.12862997074E+03  0.14232371997E+03  0.51100000000E-03 0.  1.
<mgrwt>
<rscale>  0 0.12499789E+03</rscale>
<asrwt>0</asrwt>
<pdfrwt beam="1">  1        4 0.34060455E-01 0.12499789E+03</pdfrwt>
<pdfrwt beam="2">  1       -4 0.27143647E-02 0.12499789E+03</pdfrwt>
<totfact> 0.83945047E+03</totfact>
</mgrwt>
</event>
<event>
 5    1  0.3296574E-054  0.1250005E+03  0.7818608E-02  0.1235068E+00
          4   -1    0    0  501    0  0.00000000000E+00  0.00000000000E+00  0.63064039245E+02  0.63080024143E+02  0.14200000000E+01 0. -1.
         -4   -1    0    0    0  501 -0.00000000000E+00 -0.00000000000E+00 -0.61909546445E+02  0.61925829352E+02  0.14200000000E+01 0.  1.
         25    2    1    2    0    0  0.00000000000E+00  0.00000000000E+00  0.11544928004E+01  0.12500585350E+03  0.12500052222E+03 0.  0.
        -11    1    3    3    0    0  0.56769193321E+02  0.20820125046E+02 -0.15236831256E+02  0.62356875677E+02  0.51100000000E-03 0.  1.
         11    1    3    3    0    0 -0.56769193321E+02 -0.20820125046E+02  0.16391324056E+02  0.62648977819E+02  0.51100000000E-03 0. -1.
<mgrwt>
<rscale>  0 0.12500052E+03</rscale>
<asrwt>0</asrwt>
<pdfrwt beam="1">  1        4 0.97046420E-02 0.12500052E+03</pdfrwt>
<pdfrwt beam="2">  1       -4 0.95270278E-02 0.12500052E+03</pdfrwt>
<totfact> 0.10452612E+04</totfact>
</mgrwt>
</event>
<event>
 5    1  0.3296574E-054  0.1249902E+03  0.7818608E-02  0.1235085E+00
         -4   -1    0    0    0  501 -0.00000000000E+00  0.00000000000E+00  0.16905847473E+03  0.16906443824E+03  0.14200000000E+01 0.  1.
          4   -1    0    0  501    0  0.00000000000E+00 -0.00000000000E+00 -0.23074100439E+02  0.23117753158E+02  0.14200000000E+01 0. -1.
         25    2    1    2    0    0  0.00000000000E+00  0.00000000000E+00  0.14598437429E+03  0.19218219140E+03  0.12499022823E+03 0.  0.
        -11    1    3    3    0    0 -0.32100108542E+02  0.40609035464E+02  0.12683219122E+03  0.13698874209E+03  0.51100000000E-03 0.  1.
         11    1    3    3    0    0  0.32100108542E+02 -0.40609035464E+02  0.19152183070E+02  0.55193449306E+02  0.51100000000E-03 0. -1.
<mgrwt>
<rscale>  0 0.12499023E+03</rscale>
<asrwt>0</asrwt>
<pdfrwt beam="2">  1        4 0.35536782E-02 0.12499023E+03</pdfrwt>
<pdfrwt beam="1">  1       -4 0.26012813E-01 0.12499023E+03</pdfrwt>
<totfact> 0.91489020E+03</totfact>
</mgrwt>
</event>
<event>
 5    1  0.3296574E-054  0.1249925E+03  0.7818608E-02  0.1235081E+00
         -4   -1    0    0    0  501 -0.00000000000E+00  0.00000000000E+00  0.40768931722E+02  0.40793653842E+02  0.14200000000E+01 0.  1.
          4   -1    0    0  501    0  0.00000000000E+00 -0.00000000000E+00 -0.95743932635E+02  0.95754462228E+02  0.14200000000E+01 0. -1.
         25    2    1    2    0    0  0.00000000000E+00  0.00000000000E+00 -0.54975000914E+02  0.13654811607E+03  0.12499254888E+03 0.  0.
        -11    1    3    3    0    0  0.41430431933E+02  0.34898213426E+02  0.65615288205E+01  0.54565736972E+02  0.51100000000E-03 0.  1.
         11    1    3    3    0    0 -0.41430431933E+02 -0.34898213426E+02 -0.61536529734E+02  0.81982379098E+02  0.51100000000E-03 0. -1.
<mgrwt>
<rscale>  0 0.12499255E+03</rscale>
<asrwt>0</asrwt>
<pdfrwt beam="2">  1        4 0.14732547E-01 0.12499255E+03</pdfrwt>
<pdfrwt beam="1">  1       -4 0.62748550E-02 0.12499255E+03</pdfrwt>
<totfact> 0.10207257E+04</totfact>
</mgrwt>
</event>
<event>
 5    1  0.3296574E-054  0.1250000E+03  0.7818608E-02  0.1235069E+00
          4   -1    0    0  501    0  0.00000000000E+00  0.00000000000E+00  0.20586924366E+02  0.20635839087E+02  0.14200000000E+01 0. -1.
         -4   -1    0    0    0  501 -0.00000000000E+00 -0.00000000000E+00 -0.18946756998E+03  0.18947289114E+03  0.14200000000E+01 0.  1.
         25    2    1    2    0    0  0.00000000000E+00  0.00000000000E+00 -0.16888064562E+03  0.21010873022E+03  0.12500002421E+03 0.  0.
        -11    1    3    3    0    0  0.18125820466E+02 -0.58200293759E+02 -0.10763583197E+03  0.12369839079E+03  0.51100000000E-03 0.  1.
         11    1    3    3    0    0 -0.18125820466E+02  0.58200293759E+02 -0.61244813651E+02  0.86410339431E+02  0.51100000000E-03 0. -1.
<mgrwt>
<rscale>  0 0.12500002E+03</rscale>
<asrwt>0</asrwt>
<pdfrwt beam="1">  1        4 0.31713912E-02 0.12500002E+03</pdfrwt>
<pdfrwt beam="2">  1       -4 0.29153028E-01 0.12500002E+03</pdfrwt>
<totfact> 0.88458079E+03</totfact>
</mgrwt>
</event>
<event>
 5    1  0.3296574E-054  0.1249996E+03  0.7818608E-02  0.1235070E+00
          4   -1    0    0  501    0  0.00000000000E+00  0.00000000000E+00  0.53932713907E+02  0.53951404331E+02  0.14200000000E+01 0. -1.
         -4   -1    0    0    0  501 -0.00000000000E+00 -0.00000000000E+00 -0.72389542333E+02  0.72403468419E+02  0.14200000000E+01 0.  1.
         25    2    1    2    0    0  0.00000000000E+00  0.00000000000E+00 -0.18456828426E+02  0.12635487275E+03  0.12499959741E+03 0.  0.
        -11    1    3    3    0    0 -0.39264775740E+02 -0.20168930940E+02 -0.53954230475E+02  0.69710597297E+02  0.51100000000E-03 0.  1.
         11    1    3    3    0    0  0.39264775740E+02  0.20168930940E+02  0.35497402048E+02  0.56644275453E+02  0.51100000000E-03 0. -1.
<mgrwt>
<rscale>  0 0.12499960E+03</rscale>
<asrwt>0</asrwt>
<pdfrwt beam="1">  1        4 0.82998495E-02 0.12499960E+03</pdfrwt>
<pdfrwt beam="2">  1       -4 0.11139362E-01 0.12499960E+03</pdfrwt>
<totfact> 0.10423290E+04</totfact>
</mgrwt>
</event>
<event>
 5    1  0.3296574E-054  0.1250010E+03  0.7818608E-02  0.1235068E+00
          4   -1    0    0  501    0  0.00000000000E+00  0.00000000000E+00  0.15569119780E+03  0.15569767330E+03  0.14200000000E+01 0. -1.
         -4   -1    0    0    0  501 -0.00000000000E+00 -0.00000000000E+00 -0.25063049122E+02  0.25103243442E+02  0.14200000000E+01 0.  1.
         25    2    1    2    0    0  0.00000000000E+00  0.00000000000E+00  0.13062814868E+03  0.18080091674E+03  0.12500103307E+03 0.  0.
        -11    1    3    3    0    0 -0.59522471069E+02  0.17385939217E+02  0.76621808258E+02  0.98570264003E+02  0.51100000000E-03 0.  1.
         11    1    3    3    0    0  0.59522471069E+02 -0.17385939217E+02  0.54006340417E+02  0.82230652740E+02  0.51100000000E-03 0. -1.
<mgrwt>
<rscale>  0 0.12500103E+03</rscale>
<asrwt>0</asrwt>
<pdfrwt beam="1">  1        4 0.23956082E-01 0.12500103E+03</pdfrwt>
<pdfrwt beam="2">  1       -4 0.38594437E-02 0.12500103E+03</pdfrwt>
<totfact> 0.93470869E+03</totfact>
</mgrwt>
</event>
<event>
 5    1  0.3296574E-054  0.1250006E+03  0.7818608E-02  0.1235068E+00
         -4   -1    0    0    0  501 -0.00000000000E+00  0.00000000000E+00  0.22093380400E+02  0.22138966947E+02  0.14200000000E+01 0.  1.
          4   -1    0    0  501    0  0.00000000000E+00 -0.00000000000E+00 -0.17657740015E+03  0.17658310973E+03  0.14200000000E+01 0. -1.
         25    2    1    2    0    0  0.00000000000E+00  0.00000000000E+00 -0.15448401975E+03  0.19872207668E+03  0.12500060561E+03 0.  0.
        -11    1    3    3    0    0 -0.38659552688E+02  0.47781218952E+02 -0.95276041184E+02  0.11338046535E+03  0.51100000000E-03 0. -1.
         11    1    3    3    0    0  0.38659552688E+02 -0.47781218952E+02 -0.59207978562E+02  0.85341611329E+02  0.51100000000E-03 0.  1.
<mgrwt>
<rscale>  0 0.12500061E+03</rscale>
<asrwt>0</asrwt>
<pdfrwt beam="2">  1        4 0.27169699E-01 0.12500061E+03</pdfrwt>
<pdfrwt beam="1">  1       -4 0.34029276E-02 0.12500061E+03</pdfrwt>
<totfact> 0.90350234E+03</totfact>
</mgrwt>
</event>
<event>
 5    1  0.3296574E-054  0.1250006E+03  0.7818608E-02  0.1235068E+00
         -4   -1    0    0    0  501 -0.00000000000E+00  0.00000000000E+00  0.39956290531E+03  0.39956542855E+03  0.14200000000E+01 0.  1.
          4   -1    0    0  501    0  0.00000000000E+00 -0.00000000000E+00 -0.97222712803E+01  0.98254241053E+01  0.14200000000E+01 0. -1.
         25    2    1    2    0    0  0.00000000000E+00  0.00000000000E+00  0.38984063402E+03  0.40939085266E+03  0.12500060122E+03 0.  0.
        -11    1    3    3    0    0  0.66336669616E+01 -0.61805226382E+02  0.21624529691E+03  0.22500204439E+03  0.51100000000E-03 0.  1.
         11    1    3    3    0    0 -0.66336669616E+01  0.61805226382E+02  0.17359533712E+03  0.18438880827E+03  0.51100000000E-03 0. -1.
<mgrwt>
<rscale>  0 0.12500060E+03</rscale>
<asrwt>0</asrwt>
<pdfrwt beam="2">  1        4 0.15038631E-02 0.12500060E+03</pdfrwt>
<pdfrwt beam="1">  1       -4 0.61479340E-01 0.12500060E+03</pdfrwt>
<totfact> 0.63648737E+03</totfact>
</mgrwt>
</event>
<event>
 5    1  0.3296574E-054  0.1250008E+03  0.7818608E-02  0.1235068E+00
         -4   -1    0    0    0  501 -0.00000000000E+00  0.00000000000E+00  0.51909715622E+02  0.51929134173E+02  0.14200000000E+01 0.  1.
          4   -1    0    0  501    0  0.00000000000E+00 -0.00000000000E+00 -0.75211563627E+02  0.75224967286E+02  0.14200000000E+01 0. -1.
         25    2    1    2    0    0  0.00000000000E+00  0.00000000000E+00 -0.23301848004E+02  0.12715410146E+03  0.12500075759E+03 0.  0.
        -11    1    3    3    0    0 -0.10751108983E+02  0.60389252849E+02  0.54940018050E+00  0.61341258911E+02  0.51100000000E-03 0.  1.
         11    1    3    3    0    0  0.10751108983E+02 -0.60389252849E+02 -0.23851248185E+02  0.65812842548E+02  0.51100000000E-03 0. -1.
<mgrwt>
<rscale>  0 0.12500076E+03</rscale>
<asrwt>0</asrwt>
<pdfrwt beam="2">  1        4 0.11573535E-01 0.12500076E+03</pdfrwt>
<pdfrwt beam="1">  1       -4 0.79886348E-02 0.12500076E+03</pdfrwt>
<totfact> 0.10405621E+04</totfact>
</mgrwt>
</event>
<event>
 5    1  0.3296574E-054  0.1249911E+03  0.7818608E-02  0.1235083E+00
         -4   -1    0    0    0  501 -0.00000000000E+00  0.00000000000E+00  0.25489499859E+02  0.25529022760E+02  0.14200000000E+01 0.  1.
          4   -1    0    0  501    0  0.00000000000E+00 -0.00000000000E+00 -0.15306597793E+03  0.15307256449E+03  0.14200000000E+01 0. -1.
         25    2    1    2    0    0  0.00000000000E+00  0.00000000000E+00 -0.12757647807E+03  0.17860158725E+03  0.12499107653E+03 0.  0.
        -11    1    3    3    0    0 -0.14201609905E+02 -0.57144030532E+02 -0.33863941766E+02  0.67925639501E+02  0.51100000000E-03 0.  1.
         11    1    3    3    0    0  0.14201609905E+02  0.57144030532E+02 -0.93712536305E+02  0.11067594775E+03  0.51100000000E-03 0. -1.
<mgrwt>
<rscale>  0 0.12499108E+03</rscale>
<asrwt>0</asrwt>
<pdfrwt beam="2">  1        4 0.23552158E-01 0.12499108E+03</pdfrwt>
<pdfrwt beam="1">  1       -4 0.39250085E-02 0.12499108E+03</pdfrwt>
<totfact> 0.93888116E+03</totfact>
</mgrwt>
</event>
<event>
 5    1  0.3296574E-054  0.1250048E+03  0.7818608E-02  0.1235062E+00
         -4   -1    0    0    0  501 -0.00000000000E+00  0.00000000000E+00  0.19068987402E+03  0.19069516106E+03  0.14200000000E+01 0. -1.
          4   -1    0    0  501    0  0.00000000000E+00 -0.00000000000E+00 -0.20456219894E+02  0.20505446407E+02  0.14200000000E+01 0.  1.
         25    2    1    2    0    0  0.00000000000E+00  0.00000000000E+00  0.17023365412E+03  0.21120060747E+03  0.12500479831E+03 0.  0.
        -11    1    3    3    0    0 -0.66177376114E+01 -0.48281070587E+02  0.15124011467E+03  0.15889754093E+03  0.51100000000E-03 0. -1.
         11    1    3    3    0    0  0.66177376114E+01  0.48281070587E+02  0.18993539452E+02  0.52303066538E+02  0.51100000000E-03 0.  1.
<mgrwt>
<rscale>  0 0.12500480E+03</rscale>
<asrwt>0</asrwt>
<pdfrwt beam="2">  1        4 0.31513041E-02 0.12500480E+03</pdfrwt>
<pdfrwt beam="1">  1       -4 0.29341097E-01 0.12500480E+03</pdfrwt>
<totfact> 0.88270712E+03</totfact>
</mgrwt>
</event>
<event>
 5    1  0.3296574E-054  0.1250054E+03  0.7818608E-02  0.1235061E+00
         -4   -1    0    0    0  501 -0.00000000000E+00  0.00000000000E+00  0.49872028891E+02  0.49892240536E+02  0.14200000000E+01 0. -1.
          4   -1    0    0  501    0  0.00000000000E+00 -0.00000000000E+00 -0.78289754556E+02  0.78302631300E+02  0.14200000000E+01 0.  1.
         25    2    1    2    0    0  0.00000000000E+00  0.00000000000E+00 -0.28417725665E+02  0.12819487184E+03  0.12500543201E+03 0.  0.
        -11    1    3    3    0    0  0.46544810268E+02 -0.92185664359E+01  0.27513169475E+02  0.54848662926E+02  0.51100000000E-03 0. -1.
         11    1    3    3    0    0 -0.46544810268E+02  0.92185664359E+01 -0.55930895140E+02  0.73346208910E+02  0.51100000000E-03 0.  1.
<mgrwt>
<rscale>  0 0.12500543E+03</rscale>
<asrwt>0</asrwt>
<pdfrwt beam="2">  1        4 0.12047123E-01 0.12500543E+03</pdfrwt>
<pdfrwt beam="1">  1       -4 0.76751651E-02 0.12500543E+03</pdfrwt>
<totfact> 0.10382008E+04</totfact>
</mgrwt>
</event>
<event>
 5    1  0.3296574E-054  0.1250020E+03  0.7818608E-02  0.1235066E+00
          4   -1    0    0  501    0  0.00000000000E+00  0.00000000000E+00  0.96839996321E+02  0.96850406749E+02  0.14200000000E+01 0. -1.
         -4   -1    0    0    0  501 -0.00000000000E+00 -0.00000000000E+00 -0.40313366559E+02  0.40338367881E+02  0.14200000000E+01 0.  1.
         25    2    1    2    0    0  0.00000000000E+00  0.00000000000E+00  0.56526629762E+02  0.13718877463E+03  0.12500200003E+03 0.  0.
        -11    1    3    3    0    0 -0.54936053177E+02 -0.88416952983E+01 -0.29762975972E+01  0.55722561517E+02  0.51100000000E-03 0.  1.
         11    1    3    3    0    0  0.54936053177E+02  0.88416952983E+01  0.59502927360E+02  0.81466213113E+02  0.51100000000E-03 0. -1.
<mgrwt>
<rscale>  0 0.12500200E+03</rscale>
<asrwt>0</asrwt>
<pdfrwt beam="1">  1        4 0.14901185E-01 0.12500200E+03</pdfrwt>
<pdfrwt beam="2">  1       -4 0.62047804E-02 0.12500200E+03</pdfrwt>
<totfact> 0.10191681E+04</totfact>
</mgrwt>
</event>
<event>
 5    1  0.3296574E-054  0.1249986E+03  0.7818608E-02  0.1235071E+00
         -4   -1    0    0    0  501 -0.00000000000E+00  0.00000000000E+00  0.65485028431E+01  0.67006932094E+01  0.14200000000E+01 0. -1.
          4   -1    0    0  501    0  0.00000000000E+00 -0.00000000000E+00 -0.58949234349E+03  0.58949405377E+03  0.14200000000E+01 0.  1.
         25    2    1    2    0    0  0.00000000000E+00  0.00000000000E+00 -0.58294384065E+03  0.59619474698E+03  0.12499861992E+03 0.  0.
        -11    1    3    3    0    0  0.62223693488E+02 -0.53775542069E+01 -0.28032936630E+03  0.28720247166E+03  0.51100000000E-03 0. -1.
         11    1    3    3    0    0 -0.62223693488E+02  0.53775542069E+01 -0.30261447435E+03  0.30899227532E+03  0.51100000000E-03 0.  1.
<mgrwt>
<rscale>  0 0.12499862E+03</rscale>
<asrwt>0</asrwt>
<pdfrwt beam="2">  1        4 0.90702927E-01 0.12499862E+03</pdfrwt>
<pdfrwt beam="1">  1       -4 0.10193009E-02 0.12499862E+03</pdfrwt>
<totfact> 0.49110196E+03</totfact>
</mgrwt>
</event>
<event>
 5    1  0.3296574E-054  0.1249978E+03  0.7818608E-02  0.1235073E+00
         -4   -1    0    0    0  501 -0.00000000000E+00  0.00000000000E+00  0.19297917300E+03  0.19298439733E+03  0.14200000000E+01 0. -1.
          4   -1    0    0  501    0  0.00000000000E+00 -0.00000000000E+00 -0.20210693022E+02  0.20260516095E+02  0.14200000000E+01 0.  1.
         25    2    1    2    0    0  0.00000000000E+00  0.00000000000E+00  0.17276847998E+03  0.21324491342E+03  0.12499778169E+03 0.  0.
        -11    1    3    3    0    0  0.14805205006E+02 -0.48874531590E+02  0.14785190932E+03  0.15642282769E+03  0.51100000000E-03 0. -1.
         11    1    3    3    0    0 -0.14805205006E+02  0.48874531590E+02  0.24916570664E+02  0.56822085736E+02  0.51100000000E-03 0.  1.
<mgrwt>
<rscale>  0 0.12499778E+03</rscale>
<asrwt>0</asrwt>
<pdfrwt beam="2">  1        4 0.31135716E-02 0.12499778E+03</pdfrwt>
<pdfrwt beam="1">  1       -4 0.29693340E-01 0.12499778E+03</pdfrwt>
<totfact> 0.87953029E+03</totfact>
</mgrwt>
</event>
<event>
 5    1  0.3296574E-054  0.1250069E+03  0.7818608E-02  0.1235058E+00
         -4   -1    0    0    0  501 -0.00000000000E+00  0.00000000000E+00  0.51378700508E+02  0.51398319679E+02  0.14200000000E+01 0.  1.
          4   -1    0    0  501    0  0.00000000000E+00 -0.00000000000E+00 -0.75996212614E+02  0.76009477907E+02  0.14200000000E+01 0. -1.
         25    2    1    2    0    0  0.00000000000E+00  0.00000000000E+00 -0.24617512106E+02  0.12740779759E+03  0.12500689974E+03 0.  0.
        -11    1    3    3    0    0  0.40857915082E+02 -0.45229274590E+02 -0.26417482536E+02  0.66429962280E+02  0.51100000000E-03 0.  1.
         11    1    3    3    0    0 -0.40857915082E+02  0.45229274590E+02  0.17999704300E+01  0.60977835306E+02  0.51100000000E-03 0. -1.
<mgrwt>
<rscale>  0 0.12500690E+03</rscale>
<asrwt>0</asrwt>
<pdfrwt beam="2">  1        4 0.11694255E-01 0.12500690E+03</pdfrwt>
<pdfrwt beam="1">  1       -4 0.79069450E-02 0.12500690E+03</pdfrwt>
<totfact> 0.10398678E+04</totfact>
</mgrwt>
</event>
<event>
 5    1  0.3296574E-054  0.1250005E+03  0.7818608E-02  0.1235068E+00
         -4   -1    0    0    0  501 -0.00000000000E+00  0.00000000000E+00  0.30993686863E+02  0.31026199015E+02  0.14200000000E+01 0.  1.
          4   -1    0    0  501    0  0.00000000000E+00 -0.00000000000E+00 -0.12593223554E+03  0.12594024118E+03  0.14200000000E+01 0. -1.
         25    2    1    2    0    0  0.00000000000E+00  0.00000000000E+00 -0.94938548678E+02  0.15696644019E+03  0.12500054129E+03 0.  0.
        -11    1    3    3    0    0 -0.17786287881E+02  0.57829430015E+02 -0.27786441197E+02  0.66578384834E+02  0.51100000000E-03 0.  1.
         11    1    3    3    0    0  0.17786287881E+02 -0.57829430015E+02 -0.67152107481E+02  0.90388055360E+02  0.51100000000E-03 0. -1.
<mgrwt>
<rscale>  0 0.12500054E+03</rscale>
<asrwt>0</asrwt>
<pdfrwt beam="2">  1        4 0.19377307E-01 0.12500054E+03</pdfrwt>
<pdfrwt beam="1">  1       -4 0.47713763E-02 0.12500054E+03</pdfrwt>
<totfact> 0.97929648E+03</totfact>
</mgrwt>
</event>
<event>
 5    1  0.3296574E-054  0.1250011E+03  0.7818608E-02  0.1235068E+00
          4   -1    0    0  501    0  0.00000000000E+00  0.00000000000E+00  0.95983224555E+02  0.95993727899E+02  0.14200000000E+01 0. -1.
         -4   -1    0    0    0  501 -0.00000000000E+00 -0.00000000000E+00 -0.40672807592E+02  0.40697588103E+02  0.14200000000E+01 0.  1.
         25    2    1    2    0    0  0.00000000000E+00  0.00000000000E+00  0.55310416963E+02  0.13669131600E+03  0.12500109458E+03 0.  0.
        -11    1    3    3    0    0 -0.22353348136E+02  0.97475282719E+01 -0.35273401599E+02  0.42882389636E+02  0.51100000000E-03 0.  1.
         11    1    3    3    0    0  0.22353348136E+02 -0.97475282719E+01  0.90583818562E+02  0.93808926366E+02  0.51100000000E-03 0. -1.
<mgrwt>
<rscale>  0 0.12500109E+03</rscale>
<asrwt>0</asrwt>
<pdfrwt beam="1">  1        4 0.14769364E-01 0.12500109E+03</pdfrwt>
<pdfrwt beam="2">  1       -4 0.62600693E-02 0.12500109E+03</pdfrwt>
<totfact> 0.10202292E+04</totfact>
</mgrwt>
</event>
<event>
 5    1  0.3296574E-054  0.1249963E+03  0.7818608E-02  0.1235075E+00
         -4   -1    0    0    0  501 -0.00000000000E+00  0.00000000000E+00  0.19419019707E+03  0.19419538882E+03  0.14200000000E+01 0.  1.
          4   -1    0    0  501    0  0.00000000000E+00 -0.00000000000E+00 -0.20083873296E+02  0.20134010196E+02  0.14200000000E+01 0. -1.
         25    2    1    2    0    0  0.00000000000E+00  0.00000000000E+00  0.17410632378E+03  0.21432939901E+03  0.12499631716E+03 0.  0.
        -11    1    3    3    0    0  0.53115720762E+02 -0.31574262073E+02  0.10312060036E+03  0.12021677103E+03  0.51100000000E-03 0.  1.
         11    1    3    3    0    0 -0.53115720762E+02  0.31574262073E+02  0.70985723418E+02  0.94112627989E+02  0.51100000000E-03 0. -1.
<mgrwt>
<rscale>  0 0.12499632E+03</rscale>
<asrwt>0</asrwt>
<pdfrwt beam="2">  1        4 0.30940826E-02 0.12499632E+03</pdfrwt>
<pdfrwt beam="1">  1       -4 0.29879672E-01 0.12499632E+03</pdfrwt>
<totfact> 0.87780902E+03</totfact>
</mgrwt>
</event>
<event>
 4    1  0.3349603E-054  0.1248368E+03  0.7818608E-02  0.1235325E+00
         -4   -1    0    0    0  501 -0.00000000000E+00  0.00000000000E+00  0.10400646403E+03  0.10401615720E+03  0.14200000000E+01 0.  1.
          4   -1    0    0  501    0  0.00000000000E+00 -0.00000000000E+00 -0.37434863256E+02  0.37461785689E+02  0.14200000000E+01 0. -1.
        -11    1    1    2    0    0  0.51543600756E+02 -0.39923227596E+01  0.72925108297E+02  0.89391010959E+02  0.51100000000E-03 0.  1.
         11    1    1    2    0    0 -0.51543600756E+02  0.39923227596E+01 -0.63535075279E+01  0.52086931931E+02  0.51100000000E-03 0. -1.
<mgrwt>
<rscale>  0 0.12483681E+03</rscale>
<asrwt>0</asrwt>
<pdfrwt beam="2">  1        4 0.57620263E-02 0.12483681E+03</pdfrwt>
<pdfrwt beam="1">  1       -4 0.16003811E-01 0.12483681E+03</pdfrwt>
<totfact> 0.10140274E+04</totfact>
</mgrwt>
</event>
<event>
 5    1  0.3296574E-054  0.1249989E+03  0.7818608E-02  0.1235071E+00
          4   -1    0    0  501    0  0.00000000000E+00  0.00000000000E+00  0.23719059474E+03  0.23719484529E+03  0.14200000000E+01 0. -1.
         -4   -1    0    0    0  501 -0.00000000000E+00 -0.00000000000E+00 -0.16433513602E+02  0.16494749750E+02  0.14200000000E+01 0.  1.
         25    2    1    2    0    0  0.00000000000E+00  0.00000000000E+00  0.22075708113E+03  0.25368959504E+03  0.12499888703E+03 0.  0.
        -11    1    3    3    0    0  0.21358858384E+02 -0.58504796590E+02  0.12095714588E+03  0.13605014956E+03  0.51100000000E-03 0.  1.
         11    1    3    3    0    0 -0.21358858384E+02  0.58504796590E+02  0.99799935255E+02  0.11763944548E+03  0.51100000000E-03 0. -1.
<mgrwt>
<rscale>  0 0.12499889E+03</rscale>
<asrwt>0</asrwt>
<pdfrwt beam="1">  1        4 0.36495898E-01 0.12499889E+03</pdfrwt>
<pdfrwt beam="2">  1       -4 0.25332703E-02 0.12499889E+03</pdfrwt>
<totfact> 0.81801901E+03</totfact>
</mgrwt>
</event>
<event>
 5    1  0.3296574E-054  0.1249997E+03  0.7818608E-02  0.1235070E+00
         -4   -1    0    0    0  501 -0.00000000000E+00  0.00000000000E+00  0.15164835205E+02  0.15231172863E+02  0.14200000000E+01 0.  1.
          4   -1    0    0  501    0  0.00000000000E+00 -0.00000000000E+00 -0.25695423626E+03  0.25695815989E+03  0.14200000000E+01 0. -1.
         25    2    1    2    0    0  0.00000000000E+00  0.00000000000E+00 -0.24178940106E+03  0.27218933275E+03  0.12499967360E+03 0.  0.
        -11    1    3    3    0    0  0.83407076340E+01 -0.59359765378E+02 -0.15942391873E+03  0.17032068287E+03  0.51100000000E-03 0.  1.
         11    1    3    3    0    0 -0.83407076340E+01  0.59359765378E+02 -0.82365482329E+02  0.10186864988E+03  0.51100000000E-03 0. -1.
<mgrwt>
<rscale>  0 0.12499967E+03</rscale>
<asrwt>0</asrwt>
<pdfrwt beam="2">  1        4 0.39536823E-01 0.12499967E+03</pdfrwt>
<pdfrwt beam="1">  1       -4 0.23384565E-02 0.12499967E+03</pdfrwt>
<totfact> 0.79225850E+03</totfact>
</mgrwt>
</event>
<event>
 5    1  0.3296574E-054  0.1249949E+03  0.7818608E-02  0.1235077E+00
         -4   -1    0    0    0  501 -0.00000000000E+00  0.00000000000E+00  0.58069626013E+03  0.58069799632E+03  0.14200000000E+01 0.  1.
          4   -1    0    0  501    0  0.00000000000E+00 -0.00000000000E+00 -0.66495832720E+01  0.67995115774E+01  0.14200000000E+01 0. -1.
         25    2    1    2    0    0  0.00000000000E+00  0.00000000000E+00  0.57404667686E+03  0.58749750790E+03  0.12499493819E+03 0.  0.
        -11    1    3    3    0    0  0.59883442042E+02  0.14500703993E+02  0.33623764542E+03  0.34183629304E+03  0.51100000000E-03 0.  1.
         11    1    3    3    0    0 -0.59883442042E+02 -0.14500703993E+02  0.23780903145E+03  0.24566121486E+03  0.51100000000E-03 0. -1.
<mgrwt>
<rscale>  0 0.12499494E+03</rscale>
<asrwt>0</asrwt>
<pdfrwt beam="2">  1        4 0.10346793E-02 0.12499494E+03</pdfrwt>
<pdfrwt beam="1">  1       -4 0.89349558E-01 0.12499494E+03</pdfrwt>
<totfact> 0.49671947E+03</totfact>
</mgrwt>
</event>
<event>
 5    1  0.3296574E-054  0.1250020E+03  0.7818608E-02  0.1235066E+00
         -4   -1    0    0    0  501 -0.00000000000E+00  0.00000000000E+00  0.31553421420E+02  0.31585357419E+02  0.14200000000E+01 0.  1.
          4   -1    0    0  501    0  0.00000000000E+00 -0.00000000000E+00 -0.12370323805E+03  0.12371138793E+03  0.14200000000E+01 0. -1.
         25    2    1    2    0    0  0.00000000000E+00  0.00000000000E+00 -0.92149816629E+02  0.15529674535E+03  0.12500196163E+03 0.  0.
        -11    1    3    3    0    0 -0.61970194459E+02  0.69641230020E+01 -0.51282225179E+02  0.80738284785E+02  0.51100000000E-03 0.  1.
         11    1    3    3    0    0  0.61970194459E+02 -0.69641230020E+01 -0.40867591450E+02  0.74558460564E+02  0.51100000000E-03 0. -1.
<mgrwt>
<rscale>  0 0.12500196E+03</rscale>
<asrwt>0</asrwt>
<pdfrwt beam="2">  1        4 0.19034351E-01 0.12500196E+03</pdfrwt>
<pdfrwt beam="1">  1       -4 0.48574561E-02 0.12500196E+03</pdfrwt>
<totfact> 0.98252941E+03</totfact>
</mgrwt>
</event>
<event>
 5    1  0.3296574E-054  0.1249966E+03  0.7818608E-02  0.1235075E+00
          4   -1    0    0  501    0  0.00000000000E+00  0.00000000000E+00  0.64314899255E+01  0.65863846427E+01  0.14200000000E+01 0. -1.
         -4   -1    0    0    0  501 -0.00000000000E+00 -0.00000000000E+00 -0.59994843417E+03  0.59995011465E+03  0.14200000000E+01 0.  1.
         25    2    1    2    0    0  0.00000000000E+00  0.00000000000E+00 -0.59351694425E+03  0.60653649929E+03  0.12499664741E+03 0.  0.
        -11    1    3    3    0    0  0.22768901572E+02 -0.57193065304E+02 -0.34914909848E+03  0.35453428969E+03  0.51100000000E-03 0.  1.
         11    1    3    3    0    0 -0.22768901572E+02  0.57193065304E+02 -0.24436784577E+03  0.25200220960E+03  0.51100000000E-03 0. -1.
<mgrwt>
<rscale>  0 0.12499665E+03</rscale>
<asrwt>0</asrwt>
<pdfrwt beam="1">  1        4 0.10015047E-02 0.12499665E+03</pdfrwt>
<pdfrwt beam="2">  1       -4 0.92311760E-01 0.12499665E+03</pdfrwt>
<totfact> 0.48461169E+03</totfact>
</mgrwt>
</event>
<event>
 5    1  0.3296574E-054  0.1249969E+03  0.7818608E-02  0.1235074E+00
          4   -1    0    0  501    0  0.00000000000E+00  0.00000000000E+00  0.28500543029E+03  0.28500896775E+03  0.14200000000E+01 0. -1.
         -4   -1    0    0    0  501 -0.00000000000E+00 -0.00000000000E+00 -0.13664782375E+02  0.13738365163E+02  0.14200000000E+01 0.  1.
         25    2    1    2    0    0  0.00000000000E+00  0.00000000000E+00  0.27134064792E+03  0.29874733291E+03  0.12499688680E+03 0.  0.
        -11    1    3    3    0    0 -0.53463605563E+02 -0.27524963891E+02  0.17637644725E+03  0.18634546386E+03  0.51100000000E-03 0.  1.
         11    1    3    3    0    0  0.53463605563E+02  0.27524963891E+02  0.94964200669E+02  0.11240186905E+03  0.51100000000E-03 0. -1.
<mgrwt>
<rscale>  0 0.12499689E+03</rscale>
<asrwt>0</asrwt>
<pdfrwt beam="1">  1        4 0.43852918E-01 0.12499689E+03</pdfrwt>
<pdfrwt beam="2">  1       -4 0.21082067E-02 0.12499689E+03</pdfrwt>
<totfact> 0.75761477E+03</totfact>
</mgrwt>
</event>
<event>
 5    1  0.3296574E-054  0.1250009E+03  0.7818608E-02  0.1235068E+00
          4   -1    0    0  501    0  0.00000000000E+00  0.00000000000E+00  0.35909235999E+02  0.35937301374E+02  0.14200000000E+01 0. -1.
         -4   -1    0    0    0  501 -0.00000000000E+00 -0.00000000000E+00 -0.10870759545E+03  0.10871686948E+03  0.14200000000E+01 0.  1.
         25    2    1    2    0    0  0.00000000000E+00  0.00000000000E+00 -0.72798359452E+02  0.14465417085E+03  0.12500091202E+03 0.  0.
        -11    1    3    3    0    0  0.21004359518E+02  0.33074694282E+02 -0.92750074554E+02  0.10068612045E+03  0.51100000000E-03 0.  1.
         11    1    3    3    0    0 -0.21004359518E+02 -0.33074694282E+02  0.19951715102E+02  0.43968050404E+02  0.51100000000E-03 0. -1.
<mgrwt>
<rscale>  0 0.12500091E+03</rscale>
<asrwt>0</asrwt>
<pdfrwt beam="1">  1        4 0.55273702E-02 0.12500091E+03</pdfrwt>
<pdfrwt beam="2">  1       -4 0.16727118E-01 0.12500091E+03</pdfrwt>
<totfact> 0.10037813E+04</totfact>
</mgrwt>
</event>
<event>
 5    1  0.3296574E-054  0.1250064E+03  0.7818608E-02  0.1235059E+00
         -4   -1    0    0    0  501 -0.00000000000E+00  0.00000000000E+00  0.10503312286E+03  0.10504272130E+03  0.14200000000E+01 0. -1.
          4   -1    0    0  501    0  0.00000000000E+00 -0.00000000000E+00 -0.37169598312E+02  0.37196712741E+02  0.14200000000E+01 0.  1.
         25    2    1    2    0    0  0.00000000000E+00  0.00000000000E+00  0.67863524552E+02  0.14223943404E+03  0.12500639437E+03 0.  0.
        -11    1    3    3    0    0  0.44881844172E+02 -0.22643098486E+02  0.76194541603E+02  0.91283613074E+02  0.51100000000E-03 0. -1.
         11    1    3    3    0    0 -0.44881844172E+02  0.22643098486E+02 -0.83310170511E+01  0.50955820970E+02  0.51100000000E-03 0.  1.
<mgrwt>
<rscale>  0 0.12500639E+03</rscale>
<asrwt>0</asrwt>
<pdfrwt beam="2">  1        4 0.57212240E-02 0.12500639E+03</pdfrwt>
<pdfrwt beam="1">  1       -4 0.16161766E-01 0.12500639E+03</pdfrwt>
<totfact> 0.10085929E+04</totfact>
</mgrwt>
</event>
<event>
 5    1  0.3296574E-054  0.1249994E+03  0.7818608E-02  0.1235070E+00
          4   -1    0    0  501    0  0.00000000000E+00  0.00000000000E+00  0.15188256310E+02  0.15254492116E+02  0.14200000000E+01 0. -1.
         -4   -1    0    0    0  501 -0.00000000000E+00 -0.00000000000E+00 -0.25655857017E+03  0.25656249985E+03  0.14200000000E+01 0.  1.
         25    2    1    2    0    0  0.00000000000E+00  0.00000000000E+00 -0.24137031386E+03  0.27181699197E+03  0.12499939483E+03 0.  0.
        -11    1    3    3    0    0 -0.61472285897E+02  0.10026135899E+02 -0.10941797529E+03  0.12590337029E+03  0.51100000000E-03 0.  1.
         11    1    3    3    0    0  0.61472285897E+02 -0.10026135899E+02 -0.13195233858E+03  0.14591362168E+03  0.51100000000E-03 0. -1.
<mgrwt>
<rscale>  0 0.12499939E+03</rscale>
<asrwt>0</asrwt>
<pdfrwt beam="1">  1        4 0.23420523E-02 0.12499939E+03</pdfrwt>
<pdfrwt beam="2">  1       -4 0.39475943E-01 0.12499939E+03</pdfrwt>
<totfact> 0.79276844E+03</totfact>
</mgrwt>
</event>
<event>
 5    1  0.3296574E-054  0.1250004E+03  0.7818608E-02  0.1235069E+00
         -4   -1    0    0    0  501 -0.00000000000E+00  0.00000000000E+00  0.38262955344E+03  0.38263218836E+03  0.14200000000E+01 0. -1.
          4   -1    0    0  501    0  0.00000000000E+00 -0.00000000000E+00 -0.10156964670E+02  0.10255746258E+02  0.14200000000E+01 0.  1.
         25    2    1    2    0    0  0.00000000000E+00  0.00000000000E+00  0.37247258877E+03  0.39288793462E+03  0.12500039912E+03 0.  0.
        -11    1    3    3    0    0  0.46885160045E+02 -0.36936628808E+02  0.24451014228E+03  0.25168977424E+03  0.51100000000E-03 0. -1.
         11    1    3    3    0    0 -0.46885160045E+02  0.36936628808E+02  0.12796244650E+03  0.14119816038E+03  0.51100000000E-03 0.  1.
<mgrwt>
<rscale>  0 0.12500040E+03</rscale>
<asrwt>0</asrwt>
<pdfrwt beam="2">  1        4 0.15704113E-02 0.12500040E+03</pdfrwt>
<pdfrwt beam="1">  1       -4 0.58873885E-01 0.12500040E+03</pdfrwt>
<totfact> 0.65249851E+03</totfact>
</mgrwt>
</event>
<event>
 5    1  0.3349263E-054  0.1250003E+03  0.7818608E-02  0.1235069E+00
         -4   -1    0    0    0  501 -0.00000000000E+00  0.00000000000E+00  0.32221804929E+02  0.32253079123E+02  0.14200000000E+01 0.  1.
          4   -1    0    0  501    0  0.00000000000E+00 -0.00000000000E+00 -0.12113644936E+03  0.12114477192E+03  0.14200000000E+01 0. -1.
         25    2    1    2    0    0  0.00000000000E+00  0.00000000000E+00 -0.88914644430E+02  0.15339785104E+03  0.12500034684E+03 0.  0.
        -11    1    3    3    0    0  0.93309460902E+01  0.59809737101E+02 -0.25366872356E+02  0.65633447422E+02  0.51100000000E-03 0.  1.
         11    1    3    3    0    0 -0.93309460902E+01 -0.59809737101E+02 -0.63547772074E+02  0.87764403621E+02  0.51100000000E-03 0. -1.
<mgrwt>
<rscale>  0 0.12500035E+03</rscale>
<asrwt>0</asrwt>
<pdfrwt beam="2">  1        4 0.18639422E-01 0.12500035E+03</pdfrwt>
<pdfrwt beam="1">  1       -4 0.49602467E-02 0.12500035E+03</pdfrwt>
<totfact> 0.98629879E+03</totfact>
</mgrwt>
</event>
<event>
 5    1  0.3296574E-054  0.1249997E+03  0.7818608E-02  0.1235070E+00
          4   -1    0    0  501    0  0.00000000000E+00  0.00000000000E+00  0.60976844524E+02  0.60993376428E+02  0.14200000000E+01 0. -1.
         -4   -1    0    0    0  501 -0.00000000000E+00 -0.00000000000E+00 -0.64027827189E+02  0.64043571532E+02  0.14200000000E+01 0.  1.
         25    2    1    2    0    0  0.00000000000E+00  0.00000000000E+00 -0.30509826652E+01  0.12503694796E+03  0.12499971944E+03 0.  0.
        -11    1    3    3    0    0 -0.24238292053E+02  0.46013160476E+02 -0.36198860526E+02  0.63364526687E+02  0.51100000000E-03 0.  1.
         11    1    3    3    0    0  0.24238292053E+02 -0.46013160476E+02  0.33147877861E+02  0.61672421272E+02  0.51100000000E-03 0. -1.
<mgrwt>
<rscale>  0 0.12499972E+03</rscale>
<asrwt>0</asrwt>
<pdfrwt beam="1">  1        4 0.93835358E-02 0.12499972E+03</pdfrwt>
<pdfrwt beam="2">  1       -4 0.98529177E-02 0.12499972E+03</pdfrwt>
<totfact> 0.10452126E+04</totfact>
</mgrwt>
</event>
<event>
 5    1  0.3296574E-054  0.1250027E+03  0.7818608E-02  0.1235065E+00
         -4   -1    0    0    0  501 -0.00000000000E+00  0.00000000000E+00  0.15264595433E+03  0.15265255901E+03  0.14200000000E+01 0. -1.
          4   -1    0    0  501    0  0.00000000000E+00 -0.00000000000E+00 -0.25564506634E+02  0.25603913753E+02  0.14200000000E+01 0.  1.
         25    2    1    2    0    0  0.00000000000E+00  0.00000000000E+00  0.12708144770E+03  0.17825647277E+03  0.12500270291E+03 0.  0.
        -11    1    3    3    0    0  0.35497782883E+02 -0.51023182175E+02  0.54193896278E+02  0.82464756733E+02  0.51100000000E-03 0. -1.
         11    1    3    3    0    0 -0.35497782883E+02  0.51023182175E+02  0.72887551419E+02  0.95791716035E+02  0.51100000000E-03 0.  1.
<mgrwt>
<rscale>  0 0.12500270E+03</rscale>
<asrwt>0</asrwt>
<pdfrwt beam="2">  1        4 0.39365404E-02 0.12500270E+03</pdfrwt>
<pdfrwt beam="1">  1       -4 0.23487532E-01 0.12500270E+03</pdfrwt>
<totfact> 0.93926095E+03</totfact>
</mgrwt>
</event>
<event>
 5    1  0.3530031E-054  0.1250017E+03  0.7818608E-02  0.1235067E+00
          4   -1    0    0  501    0  0.00000000000E+00  0.00000000000E+00  0.19071112951E+02  0.19123905176E+02  0.14200000000E+01 0. -1.
         -4   -1    0    0    0  501 -0.00000000000E+00 -0.00000000000E+00 -0.20449276356E+03  0.20449769375E+03  0.14200000000E+01 0.  1.
         25    2    1    2    0    0  0.00000000000E+00  0.00000000000E+00 -0.18542165061E+03  0.22362159892E+03  0.12500172395E+03 0.  0.
        -11    1    3    3    0    0 -0.94051092242E+01  0.60807294480E+02 -0.11233833429E+03  0.12808545778E+03  0.51100000000E-03 0.  1.
         11    1    3    3    0    0  0.94051092242E+01 -0.60807294480E+02 -0.73083316313E+02  0.95536141146E+02  0.51100000000E-03 0. -1.
<mgrwt>
<rscale>  0 0.12500172E+03</rscale>
<asrwt>0</asrwt>
<pdfrwt beam="1">  1        4 0.29384577E-02 0.12500172E+03</pdfrwt>
<pdfrwt beam="2">  1       -4 0.31464864E-01 0.12500172E+03</pdfrwt>
<totfact> 0.86295182E+03</totfact>
</mgrwt>
</event>
<event>
 5    1  0.3296574E-054  0.1249999E+03  0.7818608E-02  0.1235069E+00
         -4   -1    0    0    0  501 -0.00000000000E+00  0.00000000000E+00  0.98720189912E+02  0.98730402087E+02  0.14200000000E+01 0. -1.
          4   -1    0    0  501    0  0.00000000000E+00 -0.00000000000E+00 -0.39543865142E+02  0.39569352666E+02  0.14200000000E+01 0.  1.
         25    2    1    2    0    0  0.00000000000E+00  0.00000000000E+00  0.59176324770E+02  0.13829975475E+03  0.12499993901E+03 0.  0.
        -11    1    3    3    0    0 -0.48446026074E+02  0.35048955251E+02  0.49711222225E+02  0.77760223263E+02  0.51100000000E-03 0. -1.
         11    1    3    3    0    0  0.48446026074E+02 -0.35048955251E+02  0.94651025446E+01  0.60539531490E+02  0.51100000000E-03 0.  1.
<mgrwt>
<rscale>  0 0.12499994E+03</rscale>
<asrwt>0</asrwt>
<pdfrwt beam="2">  1        4 0.60864178E-02 0.12499994E+03</pdfrwt>
<pdfrwt beam="1">  1       -4 0.15190467E-01 0.12499994E+03</pdfrwt>
<totfact> 0.10168960E+04</totfact>
</mgrwt>
</event>
<event>
 5    1  0.3296574E-054  0.1249983E+03  0.7818608E-02  0.1235072E+00
          4   -1    0    0  501    0  0.00000000000E+00  0.00000000000E+00  0.20298633547E+03  0.20299130225E+03  0.14200000000E+01 0.  1.
         -4   -1    0    0    0  501 -0.00000000000E+00 -0.00000000000E+00 -0.19211965078E+02  0.19264371315E+02  0.14200000000E+01 0. -1.
         25    2    1    2    0    0  0.00000000000E+00  0.00000000000E+00  0.18377437039E+03  0.22225567356E+03  0.12499826086E+03 0.  0.
        -11    1    3    3    0    0  0.48627793285E+02 -0.37759327010E+02  0.11101381935E+03  0.12694288930E+03  0.51100000000E-03 0. -1.
         11    1    3    3    0    0 -0.48627793285E+02  0.37759327010E+02  0.72760551041E+02  0.95312784263E+02  0.51100000000E-03 0.  1.
<mgrwt>
<rscale>  0 0.12499826E+03</rscale>
<asrwt>0</asrwt>
<pdfrwt beam="1">  1        4 0.31233082E-01 0.12499826E+03</pdfrwt>
<pdfrwt beam="2">  1       -4 0.29601001E-02 0.12499826E+03</pdfrwt>
<totfact> 0.86516031E+03</totfact>
</mgrwt>
</event>
<event>
 5    1  0.3296574E-054  0.1249993E+03  0.7818608E-02  0.1235070E+00
         -4   -1    0    0    0  501 -0.00000000000E+00  0.00000000000E+00  0.69881610818E+01  0.71309743588E+01  0.14200000000E+01 0.  1.
          4   -1    0    0  501    0  0.00000000000E+00 -0.00000000000E+00 -0.55317739426E+03  0.55317921682E+03  0.14200000000E+01 0. -1.
         25    2    1    2    0    0  0.00000000000E+00  0.00000000000E+00 -0.54618923318E+03  0.56031019118E+03  0.12499932759E+03 0.  0.
        -11    1    3    3    0    0 -0.56975668277E+02  0.20710837115E+02 -0.34122905985E+03  0.34657241211E+03  0.51100000000E-03 0.  1.
         11    1    3    3    0    0  0.56975668277E+02 -0.20710837115E+02 -0.20496017332E+03  0.21373777906E+03  0.51100000000E-03 0. -1.
<mgrwt>
<rscale>  0 0.12499933E+03</rscale>
<asrwt>0</asrwt>
<pdfrwt beam="2">  1        4 0.85115306E-01 0.12499933E+03</pdfrwt>
<pdfrwt beam="1">  1       -4 0.10862280E-02 0.12499933E+03</pdfrwt>
<totfact> 0.51473553E+03</totfact>
</mgrwt>
</event>
<event>
 5    1  0.3296574E-054  0.1249982E+03  0.7818608E-02  0.1235072E+00
         -4   -1    0    0    0  501 -0.00000000000E+00  0.00000000000E+00  0.17724477686E+03  0.17725046494E+03  0.14200000000E+01 0.  1.
          4   -1    0    0  501    0  0.00000000000E+00 -0.00000000000E+00 -0.22009162690E+02  0.22054923313E+02  0.14200000000E+01 0. -1.
         25    2    1    2    0    0  0.00000000000E+00  0.00000000000E+00  0.15523561417E+03  0.19930538826E+03  0.12499816752E+03 0.  0.
        -11    1    3    3    0    0 -0.61919333945E+02 -0.68026037473E+01  0.85725498478E+02  0.10596763857E+03  0.51100000000E-03 0.  1.
         11    1    3    3    0    0  0.61919333945E+02  0.68026037473E+01  0.69510115689E+02  0.93337749690E+02  0.51100000000E-03 0. -1.
<mgrwt>
<rscale>  0 0.12499817E+03</rscale>
<asrwt>0</asrwt>
<pdfrwt beam="2">  1        4 0.33899826E-02 0.12499817E+03</pdfrwt>
<pdfrwt beam="1">  1       -4 0.27272385E-01 0.12499817E+03</pdfrwt>
<totfact> 0.90256491E+03</totfact>
</mgrwt>
</event>
<event>
 5    1  0.3296574E-054  0.1250042E+03  0.7818608E-02  0.1235063E+00
         -4   -1    0    0    0  501 -0.00000000000E+00  0.00000000000E+00  0.14930302869E+02  0.14997677945E+02  0.14200000000E+01 0.  1.
          4   -1    0    0  501    0  0.00000000000E+00 -0.00000000000E+00 -0.26099175416E+03  0.26099561708E+03  0.14200000000E+01 0. -1.
         25    2    1    2    0    0  0.00000000000E+00  0.00000000000E+00 -0.24606145129E+03  0.27599329503E+03  0.12500424430E+03 0.  0.
        -11    1    3    3    0    0  0.17486160733E+02  0.59922241243E+02 -0.11602287788E+03  0.13174881025E+03  0.51100000000E-03 0.  1.
         11    1    3    3    0    0 -0.17486160733E+02 -0.59922241243E+02 -0.13003857341E+03  0.14424448477E+03  0.51100000000E-03 0. -1.
<mgrwt>
<rscale>  0 0.12500424E+03</rscale>
<asrwt>0</asrwt>
<pdfrwt beam="2">  1        4 0.40158054E-01 0.12500424E+03</pdfrwt>
<pdfrwt beam="1">  1       -4 0.23024497E-02 0.12500424E+03</pdfrwt>
<totfact> 0.78704956E+03</totfact>
</mgrwt>
</event>
<event>
 5    1  0.3296574E-054  0.1250036E+03  0.7818608E-02  0.1235064E+00
          4   -1    0    0  501    0  0.00000000000E+00  0.00000000000E+00  0.12287073142E+02  0.12368854693E+02  0.14200000000E+01 0. -1.
         -4   -1    0    0    0  501 -0.00000000000E+00 -0.00000000000E+00 -0.31679597841E+03  0.31679916089E+03  0.14200000000E+01 0.  1.
         25    2    1    2    0    0  0.00000000000E+00  0.00000000000E+00 -0.30450890527E+03  0.32916801558E+03  0.12500363631E+03 0.  0.
        -11    1    3    3    0    0  0.47034473120E+02 -0.28827861383E+02 -0.22962010423E+03  0.23615393184E+03  0.51100000000E-03 0.  1.
         11    1    3    3    0    0 -0.47034473120E+02  0.28827861383E+02 -0.74888801039E+02  0.93014083745E+02  0.51100000000E-03 0. -1.
<mgrwt>
<rscale>  0 0.12500364E+03</rscale>
<asrwt>0</asrwt>
<pdfrwt beam="1">  1        4 0.18968549E-02 0.12500364E+03</pdfrwt>
<pdfrwt beam="2">  1       -4 0.48744373E-01 0.12500364E+03</pdfrwt>
<totfact> 0.72073014E+03</totfact>
</mgrwt>
</event>
<event>
 5    1  0.3296574E-054  0.1249990E+03  0.7818608E-02  0.1235071E+00
          4   -1    0    0  501    0  0.00000000000E+00  0.00000000000E+00  0.21260096565E+02  0.21307465968E+02  0.14200000000E+01 0. -1.
         -4   -1    0    0    0  501 -0.00000000000E+00 -0.00000000000E+00 -0.18347856542E+03  0.18348406026E+03  0.14200000000E+01 0.  1.
         25    2    1    2    0    0  0.00000000000E+00  0.00000000000E+00 -0.16221846886E+03  0.20479152623E+03  0.12499895030E+03 0.  0.
        -11    1    3    3    0    0 -0.26386635285E+02  0.37613678499E+02 -0.15052448684E+03  0.15738063563E+03  0.51100000000E-03 0.  1.
         11    1    3    3    0    0  0.26386635285E+02 -0.37613678499E+02 -0.11693982019E+02  0.47410890601E+02  0.51100000000E-03 0. -1.
<mgrwt>
<rscale>  0 0.12499895E+03</rscale>
<asrwt>0</asrwt>
<pdfrwt beam="1">  1        4 0.32748507E-02 0.12499895E+03</pdfrwt>
<pdfrwt beam="2">  1       -4 0.28231537E-01 0.12499895E+03</pdfrwt>
<totfact> 0.89335719E+03</totfact>
</mgrwt>
</event>
<event>
 5    1  0.3296574E-054  0.1250018E+03  0.7818608E-02  0.1235066E+00
         -4   -1    0    0    0  501 -0.00000000000E+00  0.00000000000E+00  0.34463148378E+02  0.34492390409E+02  0.14200000000E+01 0.  1.
          4   -1    0    0  501    0  0.00000000000E+00 -0.00000000000E+00 -0.11326722912E+03  0.11327612985E+03  0.14200000000E+01 0. -1.
         25    2    1    2    0    0  0.00000000000E+00  0.00000000000E+00 -0.78804080745E+02  0.14776852026E+03  0.12500180973E+03 0.  0.
        -11    1    3    3    0    0 -0.27571896504E+02 -0.53418716542E+02 -0.59622852554E+02  0.84667900061E+02  0.51100000000E-03 0.  1.
         11    1    3    3    0    0  0.27571896504E+02  0.53418716542E+02 -0.19181228191E+02  0.63100620195E+02  0.51100000000E-03 0. -1.
<mgrwt>
<rscale>  0 0.12500181E+03</rscale>
<asrwt>0</asrwt>
<pdfrwt beam="2">  1        4 0.17428662E-01 0.12500181E+03</pdfrwt>
<pdfrwt beam="1">  1       -4 0.53049569E-02 0.12500181E+03</pdfrwt>
<totfact> 0.99746320E+03</totfact>
</mgrwt>
</event>
<event>
 5    1  0.3296574E-054  0.1250044E+03  0.7818608E-02  0.1235062E+00
         -4   -1    0    0    0  501 -0.00000000000E+00  0.00000000000E+00  0.16989996449E+03  0.16990589846E+03  0.14200000000E+01 0. -1.
          4   -1    0    0  501    0  0.00000000000E+00 -0.00000000000E+00 -0.22964805607E+02  0.23008665684E+02  0.14200000000E+01 0.  1.
         25    2    1    2    0    0  0.00000000000E+00  0.00000000000E+00  0.14693515888E+03  0.19291456415E+03  0.12500435250E+03 0.  0.
        -11    1    3    3    0    0 -0.53837677152E+02  0.23962732610E+02  0.10561096837E+03  0.12093959102E+03  0.51100000000E-03 0. -1.
         11    1    3    3    0    0  0.53837677152E+02 -0.23962732610E+02  0.41324190506E+02  0.71974973126E+02  0.51100000000E-03 0.  1.
<mgrwt>
<rscale>  0 0.12500435E+03</rscale>
<asrwt>0</asrwt>
<pdfrwt beam="2">  1        4 0.35368773E-02 0.12500435E+03</pdfrwt>
<pdfrwt beam="1">  1       -4 0.26142287E-01 0.12500435E+03</pdfrwt>
<totfact> 0.91333746E+03</totfact>
</mgrwt>
</event>
<event>
 5    1  0.3296574E-054  0.1250012E+03  0.7818608E-02  0.1235067E+00
         -4   -1    0    0    0  501 -0.00000000000E+00  0.00000000000E+00  0.12106564680E+03  0.12107397423E+03  0.14200000000E+01 0. -1.
          4   -1    0    0  501    0  0.00000000000E+00 -0.00000000000E+00 -0.32241128129E+02  0.32272383597E+02  0.14200000000E+01 0.  1.
         25    2    1    2    0    0  0.00000000000E+00  0.00000000000E+00  0.88824518671E+02  0.15334635782E+03  0.12500124136E+03 0.  0.
        -11    1    3    3    0    0 -0.58906410329E+02 -0.10208355243E+02  0.66769978861E+02  0.89623689792E+02  0.51100000000E-03 0. -1.
         11    1    3    3    0    0  0.58906410329E+02  0.10208355243E+02  0.22054539811E+02  0.63722668032E+02  0.51100000000E-03 0.  1.
<mgrwt>
<rscale>  0 0.12500124E+03</rscale>
<asrwt>0</asrwt>
<pdfrwt beam="2">  1        4 0.49632185E-02 0.12500124E+03</pdfrwt>
<pdfrwt beam="1">  1       -4 0.18628529E-01 0.12500124E+03</pdfrwt>
<totfact> 0.98638031E+03</totfact>
</mgrwt>
</event>
<event>
 5    1  0.3296574E-054  0.1249992E+03  0.7818608E-02  0.1235071E+00
         -4   -1    0    0    0  501 -0.00000000000E+00  0.00000000000E+00  0.54152486690E+02  0.54171101288E+02  0.14200000000E+01 0. -1.
          4   -1    0    0  501    0  0.00000000000E+00 -0.00000000000E+00 -0.72095297416E+02  0.72109280329E+02  0.14200000000E+01 0.  1.
         25    2    1    2    0    0  0.00000000000E+00  0.00000000000E+00 -0.17942810726E+02  0.12628038162E+03  0.12499916130E+03 0.  0.
        -11    1    3    3    0    0 -0.58008858398E+02  0.23172595886E+02 -0.69008298406E+01  0.62845988778E+02  0.51100000000E-03 0. -1.
         11    1    3    3    0    0  0.58008858398E+02 -0.23172595886E+02 -0.11041980886E+02  0.63434392839E+02  0.51100000000E-03 0.  1.
<mgrwt>
<rscale>  0 0.12499916E+03</rscale>
<asrwt>0</asrwt>
<pdfrwt beam="2">  1        4 0.11094092E-01 0.12499916E+03</pdfrwt>
<pdfrwt beam="1">  1       -4 0.83336593E-02 0.12499916E+03</pdfrwt>
<totfact> 0.10425019E+04</totfact>
</mgrwt>
</event>
<event>
 5    1  0.3296574E-054  0.1250016E+03  0.7818608E-02  0.1235067E+00
         -4   -1    0    0    0  501 -0.00000000000E+00  0.00000000000E+00  0.19923812176E+02  0.19974350844E+02  0.14200000000E+01 0.  1.
          4   -1    0    0  501    0  0.00000000000E+00 -0.00000000000E+00 -0.19576280241E+03  0.19576795245E+03  0.14200000000E+01 0. -1.
         25    2    1    2    0    0  0.00000000000E+00  0.00000000000E+00 -0.17583899023E+03  0.21574230329E+03  0.12500156377E+03 0.  0.
        -11    1    3    3    0    0  0.79734825431E+01  0.59550144919E+02 -0.58198046999E+02  0.83646929761E+02  0.51100000000E-03 0.  1.
         11    1    3    3    0    0 -0.79734825431E+01 -0.59550144919E+02 -0.11764094323E+03  0.13209537353E+03  0.51100000000E-03 0. -1.
<mgrwt>
<rscale>  0 0.12500156E+03</rscale>
<asrwt>0</asrwt>
<pdfrwt beam="2">  1        4 0.30121637E-01 0.12500156E+03</pdfrwt>
<pdfrwt beam="1">  1       -4 0.30694857E-02 0.12500156E+03</pdfrwt>
<totfact> 0.87543532E+03</totfact>
</mgrwt>
</event>
<event>
 5    1  0.3296574E-054  0.1249968E+03  0.7818608E-02  0.1235074E+00
         -4   -1    0    0    0  501 -0.00000000000E+00  0.00000000000E+00  0.44673872629E+02  0.44696434933E+02  0.14200000000E+01 0.  1.
          4   -1    0    0  501    0  0.00000000000E+00 -0.00000000000E+00 -0.87384435991E+02  0.87395972753E+02  0.14200000000E+01 0. -1.
         25    2    1    2    0    0  0.00000000000E+00  0.00000000000E+00 -0.42710563362E+02  0.13209240769E+03  0.12499684774E+03 0.  0.
        -11    1    3    3    0    0 -0.51136008729E+02 -0.12868507640E+02  0.14098594249E+02  0.54582600137E+02  0.51100000000E-03 0.  1.
         11    1    3    3    0    0  0.51136008729E+02  0.12868507640E+02 -0.56809157611E+02  0.77509807549E+02  0.51100000000E-03 0. -1.
<mgrwt>
<rscale>  0 0.12499685E+03</rscale>
<asrwt>0</asrwt>
<pdfrwt beam="2">  1        4 0.13446382E-01 0.12499685E+03</pdfrwt>
<pdfrwt beam="1">  1       -4 0.68755265E-02 0.12499685E+03</pdfrwt>
<totfact> 0.10300459E+04</totfact>
</mgrwt>
</event>
<event>
 5    1  0.3296574E-054  0.1250028E+03  0.7818608E-02  0.1235065E+00
          4   -1    0    0  501    0  0.00000000000E+00  0.00000000000E+00  0.19375038503E+02  0.19427004839E+02  0.14200000000E+01 0. -1.
         -4   -1    0    0    0  501 -0.00000000000E+00 -0.00000000000E+00 -0.20129693360E+03  0.20130194206E+03  0.14200000000E+01 0.  1.
         25    2    1    2    0    0  0.00000000000E+00  0.00000000000E+00 -0.18192189510E+03  0.22072894690E+03  0.12500276830E+03 0.  0.
        -11    1    3    3    0    0 -0.47937702604E+02 -0.40104845045E+02 -0.91019335956E+02  0.11041259641E+03  0.51100000000E-03 0.  1.
         11    1    3    3    0    0  0.47937702604E+02  0.40104845045E+02 -0.90902559140E+02  0.11031635049E+03  0.51100000000E-03 0. -1.
<mgrwt>
<rscale>  0 0.12500277E+03</rscale>
<asrwt>0</asrwt>
<pdfrwt beam="1">  1        4 0.29851580E-02 0.12500277E+03</pdfrwt>
<pdfrwt beam="2">  1       -4 0.30973140E-01 0.12500277E+03</pdfrwt>
<totfact> 0.86747771E+03</totfact>
</mgrwt>
</event>
<event>
 5    1  0.3296574E-054  0.1250008E+03  0.7818608E-02  0.1235068E+00
          4   -1    0    0  501    0  0.00000000000E+00  0.00000000000E+00  0.24239516891E+03  0.24239932820E+03  0.14200000000E+01 0. -1.
         -4   -1    0    0    0  501 -0.00000000000E+00 -0.00000000000E+00 -0.16079825540E+02  0.16142403458E+02  0.14200000000E+01 0.  1.
         25    2    1    2    0    0  0.00000000000E+00  0.00000000000E+00  0.22631534337E+03  0.25854173166E+03  0.12500076945E+03 0.  0.
        -11    1    3    3    0    0 -0.41488193348E+02  0.28477399520E+02  0.36488335403E+02  0.62158113641E+02  0.51100000000E-03 0.  1.
         11    1    3    3    0    0  0.41488193348E+02 -0.28477399520E+02  0.18982700797E+03  0.19638361801E+03  0.51100000000E-03 0. -1.
<mgrwt>
<rscale>  0 0.12500077E+03</rscale>
<asrwt>0</asrwt>
<pdfrwt beam="1">  1        4 0.37296696E-01 0.12500077E+03</pdfrwt>
<pdfrwt beam="2">  1       -4 0.24789531E-02 0.12500077E+03</pdfrwt>
<totfact> 0.81109756E+03</totfact>
</mgrwt>
</event>
<event>
 5    1  0.3296574E-054  0.1249962E+03  0.7818608E-02  0.1235075E+00
          4   -1    0    0  501    0  0.00000000000E+00  0.00000000000E+00  0.34531429120E+02  0.34560613378E+02  0.14200000000E+01 0. -1.
         -4   -1    0    0    0  501 -0.00000000000E+00 -0.00000000000E+00 -0.11303331087E+03  0.11304223001E+03  0.14200000000E+01 0.  1.
         25    2    1    2    0    0  0.00000000000E+00  0.00000000000E+00 -0.78501881746E+02  0.14760284339E+03  0.12499621570E+03 0.  0.
        -11    1    3    3    0    0 -0.46162181484E+02 -0.41461812909E+02 -0.30415423702E+02  0.69102293220E+02  0.51100000000E-03 0.  1.
         11    1    3    3    0    0  0.46162181484E+02  0.41461812909E+02 -0.48086458045E+02  0.78500550168E+02  0.51100000000E-03 0. -1.
<mgrwt>
<rscale>  0 0.12499622E+03</rscale>
<asrwt>0</asrwt>
<pdfrwt beam="1">  1        4 0.53154586E-02 0.12499622E+03</pdfrwt>
<pdfrwt beam="2">  1       -4 0.17392671E-01 0.12499622E+03</pdfrwt>
<totfact> 0.99792200E+03</totfact>
</mgrwt>
</event>
<event>
 5    1  0.3296574E-054  0.1249997E+03  0.7818608E-02  0.1235070E+00
         -4   -1    0    0    0  501 -0.00000000000E+00  0.00000000000E+00  0.18571262276E+02  0.18625471337E+02  0.14200000000E+01 0.  1.
          4   -1    0    0  501    0  0.00000000000E+00 -0.00000000000E+00 -0.20997422548E+03  0.20997902697E+03  0.14200000000E+01 0. -1.
         25    2    1    2    0    0  0.00000000000E+00  0.00000000000E+00 -0.19140296321E+03  0.22860449831E+03  0.12499968929E+03 0.  0.
        -11    1    3    3    0    0  0.32507599991E+02 -0.51904685491E+02 -0.72903963070E+02  0.95214643121E+02  0.51100000000E-03 0.  1.
         11    1    3    3    0    0 -0.32507599991E+02  0.51904685491E+02 -0.11849900014E+03  0.13338985519E+03  0.51100000000E-03 0. -1.
<mgrwt>
<rscale>  0 0.12499969E+03</rscale>
<asrwt>0</asrwt>
<pdfrwt beam="2">  1        4 0.32308265E-01 0.12499969E+03</pdfrwt>
<pdfrwt beam="1">  1       -4 0.28616567E-02 0.12499969E+03</pdfrwt>
<totfact> 0.85524933E+03</totfact>
</mgrwt>
</event>
<event>
 5    1  0.3926747E-054  0.1249946E+03  0.7818608E-02  0.1235078E+00
         -4   -1    0    0    0  501 -0.00000000000E+00  0.00000000000E+00  0.18529570443E+02  0.18583901119E+02  0.14200000000E+01 0. -1.
          4   -1    0    0  501    0  0.00000000000E+00 -0.00000000000E+00 -0.21042824459E+03  0.21043303572E+03  0.14200000000E+01 0.  1.
         25    2    1    2    0    0  0.00000000000E+00  0.00000000000E+00 -0.19189867415E+03  0.22901693684E+03  0.12499462476E+03 0.  0.
        -11    1    3    3    0    0 -0.15366198373E+02  0.54245727959E+02 -0.46540832829E+02  0.73107921424E+02  0.51100000000E-03 0. -1.
         11    1    3    3    0    0  0.15366198373E+02 -0.54245727959E+02 -0.14535784132E+03  0.15590901542E+03  0.51100000000E-03 0.  1.
<mgrwt>
<rscale>  0 0.12499462E+03</rscale>
<asrwt>0</asrwt>
<pdfrwt beam="2">  1        4 0.32378122E-01 0.12499462E+03</pdfrwt>
<pdfrwt beam="1">  1       -4 0.28552511E-02 0.12499462E+03</pdfrwt>
<totfact> 0.85471028E+03</totfact>
</mgrwt>
</event>
<event>
 5    1  0.3296574E-054  0.1249995E+03  0.7818608E-02  0.1235070E+00
         -4   -1    0    0    0  501 -0.00000000000E+00  0.00000000000E+00  0.63041797341E+02  0.63057787878E+02  0.14200000000E+01 0.  1.
          4   -1    0    0  501    0  0.00000000000E+00 -0.00000000000E+00 -0.61930369771E+02  0.61946647205E+02  0.14200000000E+01 0. -1.
         25    2    1    2    0    0  0.00000000000E+00  0.00000000000E+00  0.11114275706E+01  0.12500443508E+03  0.12499949408E+03 0.  0.
        -11    1    3    3    0    0  0.58560259328E+02 -0.13329295014E+02 -0.16743649183E+02  0.62348407087E+02  0.51100000000E-03 0.  1.
         11    1    3    3    0    0 -0.58560259328E+02  0.13329295014E+02  0.17855076753E+02  0.62656027996E+02  0.51100000000E-03 0. -1.
<mgrwt>
<rscale>  0 0.12499949E+03</rscale>
<asrwt>0</asrwt>
<pdfrwt beam="2">  1        4 0.95302314E-02 0.12499949E+03</pdfrwt>
<pdfrwt beam="1">  1       -4 0.97012202E-02 0.12499949E+03</pdfrwt>
<totfact> 0.10452886E+04</totfact>
</mgrwt>
</event>
<event>
 5    1  0.3296574E-054  0.1250002E+03  0.7818608E-02  0.1235069E+00
         -4   -1    0    0    0  501 -0.00000000000E+00  0.00000000000E+00  0.52547869357E+03  0.52548061220E+03  0.14200000000E+01 0.  1.
          4   -1    0    0  501    0  0.00000000000E+00 -0.00000000000E+00 -0.73639623345E+01  0.74996227415E+01  0.14200000000E+01 0. -1.
         25    2    1    2    0    0  0.00000000000E+00  0.00000000000E+00  0.51811473123E+03  0.53298023494E+03  0.12500022445E+03 0.  0.
        -11    1    3    3    0    0  0.19707369118E+02  0.56104772354E+02  0.34108916458E+03  0.34623394414E+03  0.51100000000E-03 0.  1.
         11    1    3    3    0    0 -0.19707369118E+02 -0.56104772354E+02  0.17702556665E+03  0.18674629080E+03  0.51100000000E-03 0. -1.
<mgrwt>
<rscale>  0 0.12500022E+03</rscale>
<asrwt>0</asrwt>
<pdfrwt beam="2">  1        4 0.11435003E-02 0.12500022E+03</pdfrwt>
<pdfrwt beam="1">  1       -4 0.80853457E-01 0.12500022E+03</pdfrwt>
<totfact> 0.53393063E+03</totfact>
</mgrwt>
</event>
<event>
 5    1  0.3296574E-054  0.1249919E+03  0.7818608E-02  0.1235082E+00
         -4   -1    0    0    0  501 -0.00000000000E+00  0.00000000000E+00  0.57957305930E+02  0.57974698884E+02  0.14200000000E+01 0.  1.
          4   -1    0    0  501    0  0.00000000000E+00 -0.00000000000E+00 -0.67354989113E+02  0.67369955903E+02  0.14200000000E+01 0. -1.
         25    2    1    2    0    0  0.00000000000E+00  0.00000000000E+00 -0.93976831831E+01  0.12534465479E+03  0.12499186387E+03 0.  0.
        -11    1    3    3    0    0  0.44777064673E+02 -0.37448958949E+02  0.17687505215E+02  0.60993916812E+02  0.51100000000E-03 0.  1.
         11    1    3    3    0    0 -0.44777064673E+02  0.37448958949E+02 -0.27085188398E+02  0.64350737975E+02  0.51100000000E-03 0. -1.
<mgrwt>
<rscale>  0 0.12499186E+03</rscale>
<asrwt>0</asrwt>
<pdfrwt beam="2">  1        4 0.10364795E-01 0.12499186E+03</pdfrwt>
<pdfrwt beam="1">  1       -4 0.89189978E-02 0.12499186E+03</pdfrwt>
<totfact> 0.10447302E+04</totfact>
</mgrwt>
</event>
<event>
 5    1  0.3296574E-054  0.1249973E+03  0.7818608E-02  0.1235074E+00
          4   -1    0    0  501    0  0.00000000000E+00  0.00000000000E+00  0.22444514987E+02  0.22489389787E+02  0.14200000000E+01 0. -1.
         -4   -1    0    0    0  501 -0.00000000000E+00 -0.00000000000E+00 -0.17381110816E+03  0.17381690861E+03  0.14200000000E+01 0.  1.
         25    2    1    2    0    0  0.00000000000E+00  0.00000000000E+00 -0.15136659317E+03  0.19630629840E+03  0.12499726902E+03 0.  0.
        -11    1    3    3    0    0 -0.31322922906E+02  0.36583196573E+02 -0.13823953941E+03  0.14638861304E+03  0.51100000000E-03 0.  1.
         11    1    3    3    0    0  0.31322922906E+02 -0.36583196573E+02 -0.13127053760E+02  0.49917685358E+02  0.51100000000E-03 0. -1.
<mgrwt>
<rscale>  0 0.12499727E+03</rscale>
<asrwt>0</asrwt>
<pdfrwt beam="1">  1        4 0.34569005E-02 0.12499727E+03</pdfrwt>
<pdfrwt beam="2">  1       -4 0.26744068E-01 0.12499727E+03</pdfrwt>
<totfact> 0.90767019E+03</totfact>
</mgrwt>
</event>
<event>
 5    1  0.3296574E-054  0.1249978E+03  0.7818608E-02  0.1235073E+00
         -4   -1    0    0    0  501 -0.00000000000E+00  0.00000000000E+00  0.18318255853E+03  0.18318806224E+03  0.14200000000E+01 0.  1.
          4   -1    0    0  501    0  0.00000000000E+00 -0.00000000000E+00 -0.21294147263E+02  0.21341441087E+02  0.14200000000E+01 0. -1.
         25    2    1    2    0    0  0.00000000000E+00  0.00000000000E+00  0.16188841126E+03  0.20452950333E+03  0.12499784011E+03 0.  0.
        -11    1    3    3    0    0  0.50449347581E+02  0.36061095291E+02  0.68209091883E+02  0.92184703073E+02  0.51100000000E-03 0.  1.
         11    1    3    3    0    0 -0.50449347581E+02 -0.36061095291E+02  0.93679319382E+02  0.11234480026E+03  0.51100000000E-03 0. -1.
<mgrwt>
<rscale>  0 0.12499784E+03</rscale>
<asrwt>0</asrwt>
<pdfrwt beam="2">  1        4 0.32800839E-02 0.12499784E+03</pdfrwt>
<pdfrwt beam="1">  1       -4 0.28185994E-01 0.12499784E+03</pdfrwt>
<totfact> 0.89381468E+03</totfact>
</mgrwt>
</event>
<event>
 4    1  0.3296574E-054  0.1250540E+03  0.7818608E-02  0.1234985E+00
          4   -1    0    0  501    0  0.00000000000E+00  0.00000000000E+00  0.34860445117E+03  0.34860734326E+03  0.14200000000E+01 0.  1.
         -4   -1    0    0    0  501 -0.00000000000E+00 -0.00000000000E+00 -0.11167172748E+02  0.11257093194E+02  0.14200000000E+01 0. -1.
        -11    1    1    2    0    0 -0.14552970604E+02 -0.60803079235E+02  0.16611193609E+03  0.17748796779E+03  0.51100000000E-03 0.  1.
         11    1    1    2    0    0  0.14552970604E+02  0.60803079235E+02  0.17132534233E+03  0.18237646866E+03  0.51100000000E-03 0. -1.
<mgrwt>
<rscale>  0 0.12505397E+03</rscale>
<asrwt>0</asrwt>
<pdfrwt beam="1">  1        4 0.53638584E-01 0.12505397E+03</pdfrwt>
<pdfrwt beam="2">  1       -4 0.17251663E-02 0.12505397E+03</pdfrwt>
<totfact> 0.68570920E+03</totfact>
</mgrwt>
</event>
<event>
 5    1  0.3296574E-054  0.1249999E+03  0.7818608E-02  0.1235069E+00
          4   -1    0    0  501    0  0.00000000000E+00  0.00000000000E+00  0.18432283747E+02  0.18486900339E+02  0.14200000000E+01 0. -1.
         -4   -1    0    0    0  501 -0.00000000000E+00 -0.00000000000E+00 -0.21155362722E+03  0.21155839286E+03  0.14200000000E+01 0.  1.
         25    2    1    2    0    0  0.00000000000E+00  0.00000000000E+00 -0.19312134347E+03  0.23004529320E+03  0.12499993447E+03 0.  0.
        -11    1    3    3    0    0 -0.19700706930E+02  0.40993302801E+02 -0.17545361839E+03  0.18125269911E+03  0.51100000000E-03 0.  1.
         11    1    3    3    0    0  0.19700706930E+02 -0.40993302801E+02 -0.17667725081E+02  0.48792594088E+02  0.51100000000E-03 0. -1.
<mgrwt>
<rscale>  0 0.12499993E+03</rscale>
<asrwt>0</asrwt>
<pdfrwt beam="1">  1        4 0.28403040E-02 0.12499993E+03</pdfrwt>
<pdfrwt beam="2">  1       -4 0.32551278E-01 0.12499993E+03</pdfrwt>
<totfact> 0.85302768E+03</totfact>
</mgrwt>
</event>
<event>
 5    1  0.3296574E-054  0.1250009E+03  0.7818608E-02  0.1235068E+00
          4   -1    0    0  501    0  0.00000000000E+00  0.00000000000E+00  0.18751422445E+02  0.18805112169E+02  0.14200000000E+01 0.  1.
         -4   -1    0    0    0  501 -0.00000000000E+00 -0.00000000000E+00 -0.20796645526E+03  0.20797130310E+03  0.14200000000E+01 0. -1.
         25    2    1    2    0    0  0.00000000000E+00  0.00000000000E+00 -0.18921503282E+03  0.22677641527E+03  0.12500085551E+03 0.  0.
        -11    1    3    3    0    0  0.11244673629E+02 -0.33867597306E+02 -0.18769636997E+03  0.19105858822E+03  0.51100000000E-03 0. -1.
         11    1    3    3    0    0 -0.11244673629E+02  0.33867597306E+02 -0.15186628484E+01  0.35717827053E+02  0.51100000000E-03 0.  1.
<mgrwt>
<rscale>  0 0.12500086E+03</rscale>
<asrwt>0</asrwt>
<pdfrwt beam="1">  1        4 0.28893373E-02 0.12500086E+03</pdfrwt>
<pdfrwt beam="2">  1       -4 0.31999341E-01 0.12500086E+03</pdfrwt>
<totfact> 0.85805414E+03</totfact>
</mgrwt>
</event>
<event>
 5    1  0.3296574E-054  0.1249996E+03  0.7818608E-02  0.1235070E+00
         -4   -1    0    0    0  501 -0.00000000000E+00  0.00000000000E+00  0.34926158119E+03  0.34926446784E+03  0.14200000000E+01 0. -1.
          4   -1    0    0  501    0  0.00000000000E+00 -0.00000000000E+00 -0.11136229039E+02  0.11226397339E+02  0.14200000000E+01 0.  1.
         25    2    1    2    0    0  0.00000000000E+00  0.00000000000E+00  0.33812535216E+03  0.36049086518E+03  0.12499964044E+03 0.  0.
        -11    1    3    3    0    0 -0.33090806615E+02 -0.50769709204E+02  0.21314659247E+03  0.22159430213E+03  0.51100000000E-03 0. -1.
         11    1    3    3    0    0  0.33090806615E+02  0.50769709204E+02  0.12497875969E+03  0.13889656306E+03  0.51100000000E-03 0.  1.
<mgrwt>
<rscale>  0 0.12499964E+03</rscale>
<asrwt>0</asrwt>
<pdfrwt beam="2">  1        4 0.17204240E-02 0.12499964E+03</pdfrwt>
<pdfrwt beam="1">  1       -4 0.53739712E-01 0.12499964E+03</pdfrwt>
<totfact> 0.68586187E+03</totfact>
</mgrwt>
</event>
<event>
 5    1  0.3296574E-054  0.1250001E+03  0.7818608E-02  0.1235069E+00
         -4   -1    0    0    0  501 -0.00000000000E+00  0.00000000000E+00  0.26851182704E+02  0.26888704182E+02  0.14200000000E+01 0.  1.
          4   -1    0    0  501    0  0.00000000000E+00 -0.00000000000E+00 -0.14533544386E+03  0.14534238075E+03  0.14200000000E+01 0. -1.
         25    2    1    2    0    0  0.00000000000E+00  0.00000000000E+00 -0.11848426116E+03  0.17223108493E+03  0.12500010590E+03 0.  0.
        -11    1    3    3    0    0  0.15021622749E+02  0.59164986745E+02 -0.40750625797E+02  0.73394538690E+02  0.51100000000E-03 0.  1.
         11    1    3    3    0    0 -0.15021622749E+02 -0.59164986745E+02 -0.77733635360E+02  0.98836546242E+02  0.51100000000E-03 0. -1.
<mgrwt>
<rscale>  0 0.12500011E+03</rscale>
<asrwt>0</asrwt>
<pdfrwt beam="2">  1        4 0.22362719E-01 0.12500011E+03</pdfrwt>
<pdfrwt beam="1">  1       -4 0.41343711E-02 0.12500011E+03</pdfrwt>
<totfact> 0.95034195E+03</totfact>
</mgrwt>
</event>
<event>
 5    1  0.3296574E-054  0.1249988E+03  0.7818608E-02  0.1235071E+00
         -4   -1    0    0    0  501 -0.00000000000E+00  0.00000000000E+00  0.17598220487E+03  0.17598793376E+03  0.14200000000E+01 0.  1.
          4   -1    0    0  501    0  0.00000000000E+00 -0.00000000000E+00 -0.22167618569E+02  0.22213052762E+02  0.14200000000E+01 0. -1.
         25    2    1    2    0    0  0.00000000000E+00  0.00000000000E+00  0.15381458630E+03  0.19820098653E+03  0.12499881640E+03 0.  0.
        -11    1    3    3    0    0 -0.58247283663E+02 -0.16516641575E+02  0.10150390386E+03  0.11818878121E+03  0.51100000000E-03 0.  1.
         11    1    3    3    0    0  0.58247283663E+02  0.16516641575E+02  0.52310682436E+02  0.80012205320E+02  0.51100000000E-03 0. -1.
<mgrwt>
<rscale>  0 0.12499882E+03</rscale>
<asrwt>0</asrwt>
<pdfrwt beam="2">  1        4 0.34143385E-02 0.12499882E+03</pdfrwt>
<pdfrwt beam="1">  1       -4 0.27078121E-01 0.12499882E+03</pdfrwt>
<totfact> 0.90442021E+03</totfact>
</mgrwt>
</event>
<event>
 5    1  0.3296574E-054  0.1249937E+03  0.7818608E-02  0.1235079E+00
          4   -1    0    0  501    0  0.00000000000E+00  0.00000000000E+00  0.18090281122E+03  0.18090838429E+03  0.14200000000E+01 0. -1.
         -4   -1    0    0    0  501 -0.00000000000E+00 -0.00000000000E+00 -0.21561632632E+02  0.21608341023E+02  0.14200000000E+01 0.  1.
         25    2    1    2    0    0  0.00000000000E+00  0.00000000000E+00  0.15934117858E+03  0.20251672531E+03  0.12499365119E+03 0.  0.
        -11    1    3    3    0    0 -0.13635755979E+02  0.35047879822E+02 -0.12034426323E+01  0.37626267361E+02  0.51100000000E-03 0.  1.
         11    1    3    3    0    0  0.13635755979E+02 -0.35047879822E+02  0.16054462122E+03  0.16489045795E+03  0.51100000000E-03 0. -1.
<mgrwt>
<rscale>  0 0.12499365E+03</rscale>
<asrwt>0</asrwt>
<pdfrwt beam="1">  1        4 0.27835224E-01 0.12499365E+03</pdfrwt>
<pdfrwt beam="2">  1       -4 0.33211959E-02 0.12499365E+03</pdfrwt>
<totfact> 0.89725512E+03</totfact>
</mgrwt>
</event>
<event>
 5    1  0.3296574E-054  0.1250009E+03  0.7818608E-02  0.1235068E+00
          4   -1    0    0  501    0  0.00000000000E+00  0.00000000000E+00  0.11035656483E+02  0.11126639834E+02  0.14200000000E+01 0. -1.
         -4   -1    0    0    0  501 -0.00000000000E+00 -0.00000000000E+00 -0.35242568841E+03  0.35242854914E+03  0.14200000000E+01 0.  1.
         25    2    1    2    0    0  0.00000000000E+00  0.00000000000E+00 -0.34139003193E+03  0.36355518898E+03  0.12500088613E+03 0.  0.
        -11    1    3    3    0    0 -0.25630539730E+02  0.55454762243E+02 -0.20907627313E+03  0.21781883116E+03  0.51100000000E-03 0.  1.
         11    1    3    3    0    0  0.25630539730E+02 -0.55454762243E+02 -0.13231375880E+03  0.14573635782E+03  0.51100000000E-03 0. -1.
<mgrwt>
<rscale>  0 0.12500089E+03</rscale>
<asrwt>0</asrwt>
<pdfrwt beam="1">  1        4 0.17050124E-02 0.12500089E+03</pdfrwt>
<pdfrwt beam="2">  1       -4 0.54226547E-01 0.12500089E+03</pdfrwt>
<totfact> 0.68257284E+03</totfact>
</mgrwt>
</event>
<event>
 5    1  0.3296574E-054  0.1249983E+03  0.7818608E-02  0.1235072E+00
         -4   -1    0    0    0  501 -0.00000000000E+00  0.00000000000E+00  0.23786274764E+02  0.23828622855E+02  0.14200000000E+01 0. -1.
          4   -1    0    0  501    0  0.00000000000E+00 -0.00000000000E+00 -0.16402690730E+03  0.16403305374E+03  0.14200000000E+01 0.  1.
         25    2    1    2    0    0  0.00000000000E+00  0.00000000000E+00 -0.14024063254E+03  0.18786167659E+03  0.12499829806E+03 0.  0.
        -11    1    3    3    0    0 -0.29153740475E+02  0.46863042938E+02 -0.11419589543E+03  0.12683370179E+03  0.51100000000E-03 0. -1.
         11    1    3    3    0    0  0.29153740475E+02 -0.46863042938E+02 -0.26044737109E+02  0.61027974802E+02  0.51100000000E-03 0.  1.
<mgrwt>
<rscale>  0 0.12499830E+03</rscale>
<asrwt>0</asrwt>
<pdfrwt beam="2">  1        4 0.25238639E-01 0.12499830E+03</pdfrwt>
<pdfrwt beam="1">  1       -4 0.36631573E-02 0.12499830E+03</pdfrwt>
<totfact> 0.92224229E+03</totfact>
</mgrwt>
</event>
<event>
 5    1  0.3296574E-054  0.1250001E+03  0.7818608E-02  0.1235069E+00
          4   -1    0    0  501    0  0.00000000000E+00  0.00000000000E+00  0.16625491414E+02  0.16686023036E+02  0.14200000000E+01 0. -1.
         -4   -1    0    0    0  501 -0.00000000000E+00 -0.00000000000E+00 -0.23446624739E+03  0.23447054733E+03  0.14200000000E+01 0.  1.
         25    2    1    2    0    0  0.00000000000E+00  0.00000000000E+00 -0.21784075598E+03  0.25115657036E+03  0.12500011149E+03 0.  0.
        -11    1    3    3    0    0 -0.57058689369E+01  0.56248290141E+02 -0.16245210853E+03  0.17200905398E+03  0.51100000000E-03 0.  1.
         11    1    3    3    0    0  0.57058689369E+01 -0.56248290141E+02 -0.55388647446E+02  0.79147516387E+02  0.51100000000E-03 0. -1.
<mgrwt>
<rscale>  0 0.12500011E+03</rscale>
<asrwt>0</asrwt>
<pdfrwt beam="1">  1        4 0.25627551E-02 0.12500011E+03</pdfrwt>
<pdfrwt beam="2">  1       -4 0.36076715E-01 0.12500011E+03</pdfrwt>
<totfact> 0.82163151E+03</totfact>
</mgrwt>
</event>
<event>
 5    1  0.3296574E-054  0.1250005E+03  0.7818608E-02  0.1235069E+00
          4   -1    0    0  501    0  0.00000000000E+00  0.00000000000E+00  0.68936427757E+02  0.68951051275E+02  0.14200000000E+01 0. -1.
         -4   -1    0    0    0  501 -0.00000000000E+00 -0.00000000000E+00 -0.56635440535E+02  0.56653239312E+02  0.14200000000E+01 0.  1.
         25    2    1    2    0    0  0.00000000000E+00  0.00000000000E+00  0.12300987222E+02  0.12560429059E+03  0.12500049411E+03 0.  0.
        -11    1    3    3    0    0  0.28897518989E+02 -0.54585164183E+02  0.15771403376E+02  0.63744363808E+02  0.51100000000E-03 0.  1.
         11    1    3    3    0    0 -0.28897518989E+02  0.54585164183E+02 -0.34704161539E+01  0.61859926779E+02  0.51100000000E-03 0. -1.
<mgrwt>
<rscale>  0 0.12500049E+03</rscale>
<asrwt>0</asrwt>
<pdfrwt beam="1">  1        4 0.10608098E-01 0.12500049E+03</pdfrwt>
<pdfrwt beam="2">  1       -4 0.87156387E-02 0.12500049E+03</pdfrwt>
<totfact> 0.10439536E+04</totfact>
</mgrwt>
</event>
<event>
 5    1  0.3526764E-054  0.1249994E+03  0.7818608E-02  0.1235070E+00
          4   -1    0    0  501    0  0.00000000000E+00  0.00000000000E+00  0.11987351435E+03  0.11988192458E+03  0.14200000000E+01 0. -1.
         -4   -1    0    0    0  501 -0.00000000000E+00 -0.00000000000E+00 -0.32561075519E+02  0.32592024162E+02  0.14200000000E+01 0.  1.
         25    2    1    2    0    0  0.00000000000E+00  0.00000000000E+00  0.87312438828E+02  0.15247394875E+03  0.12499937229E+03 0.  0.
        -11    1    3    3    0    0 -0.62222653374E+02 -0.37771672728E+01  0.38162363404E+02  0.73090981429E+02  0.51100000000E-03 0.  1.
         11    1    3    3    0    0  0.62222653374E+02  0.37771672728E+01  0.49150075424E+02  0.79382967316E+02  0.51100000000E-03 0. -1.
<mgrwt>
<rscale>  0 0.12499937E+03</rscale>
<asrwt>0</asrwt>
<pdfrwt beam="1">  1        4 0.18445106E-01 0.12499937E+03</pdfrwt>
<pdfrwt beam="2">  1       -4 0.50124239E-02 0.12499937E+03</pdfrwt>
<totfact> 0.98814216E+03</totfact>
</mgrwt>
</event>
<event>
 5    1  0.3296574E-054  0.1249997E+03  0.7818608E-02  0.1235070E+00
          4   -1    0    0  501    0  0.00000000000E+00  0.00000000000E+00  0.45955603067E+03  0.45955822452E+03  0.14200000000E+01 0. -1.
         -4   -1    0    0    0  501 -0.00000000000E+00 -0.00000000000E+00 -0.84384696467E+01  0.85571122453E+01  0.14200000000E+01 0.  1.
         25    2    1    2    0    0  0.00000000000E+00  0.00000000000E+00  0.45111756102E+03  0.46811533677E+03  0.12499965861E+03 0.  0.
        -11    1    3    3    0    0  0.19044044712E+02  0.59514021905E+02  0.22077138429E+03  0.22944410771E+03  0.51100000000E-03 0.  1.
         11    1    3    3    0    0 -0.19044044712E+02 -0.59514021905E+02  0.23034617673E+03  0.23867122905E+03  0.51100000000E-03 0. -1.
<mgrwt>
<rscale>  0 0.12499966E+03</rscale>
<asrwt>0</asrwt>
<pdfrwt beam="1">  1        4 0.70710220E-01 0.12499966E+03</pdfrwt>
<pdfrwt beam="2">  1       -4 0.13075213E-02 0.12499966E+03</pdfrwt>
<totfact> 0.58426409E+03</totfact>
</mgrwt>
</event>
<event>
 5    1  0.3296574E-054  0.1249829E+03  0.7818608E-02  0.1235096E+00
         -4   -1    0    0    0  501 -0.00000000000E+00  0.00000000000E+00  0.11584801308E+02  0.11671504674E+02  0.14200000000E+01 0.  1.
          4   -1    0    0  501    0  0.00000000000E+00 -0.00000000000E+00 -0.33575008275E+03  0.33575308556E+03  0.14200000000E+01 0. -1.
         25    2    1    2    0    0  0.00000000000E+00  0.00000000000E+00 -0.32416528144E+03  0.34742459024E+03  0.12498286367E+03 0.  0.
        -11    1    3    3    0    0  0.37286708710E+02 -0.49827401937E+02 -0.14633073548E+03  0.15901494514E+03  0.51100000000E-03 0.  1.
         11    1    3    3    0    0 -0.37286708710E+02  0.49827401937E+02 -0.17783454596E+03  0.18840964510E+03  0.51100000000E-03 0. -1.
<mgrwt>
<rscale>  0 0.12498286E+03</rscale>
<asrwt>0</asrwt>
<pdfrwt beam="2">  1        4 0.51660752E-01 0.12498286E+03</pdfrwt>
<pdfrwt beam="1">  1       -4 0.17891779E-02 0.12498286E+03</pdfrwt>
<totfact> 0.70035378E+03</totfact>
</mgrwt>
</event>
<event>
 5    1  0.7454147E-054  0.1250015E+03  0.7818608E-02  0.1235067E+00
         -4   -1    0    0    0  501 -0.00000000000E+00  0.00000000000E+00  0.58014169318E+02  0.58031545229E+02  0.14200000000E+01 0.  1.
          4   -1    0    0  501    0  0.00000000000E+00 -0.00000000000E+00 -0.67299330389E+02  0.67314309554E+02  0.14200000000E+01 0. -1.
         25    2    1    2    0    0  0.00000000000E+00  0.00000000000E+00 -0.92851610709E+01  0.12534585478E+03  0.12500147637E+03 0.  0.
        -11    1    3    3    0    0  0.39287413724E+02 -0.48587215041E+02 -0.31811942144E+01  0.62564673254E+02  0.51100000000E-03 0.  1.
         11    1    3    3    0    0 -0.39287413724E+02  0.48587215041E+02 -0.61039668564E+01  0.62781181529E+02  0.51100000000E-03 0. -1.
<mgrwt>
<rscale>  0 0.12500148E+03</rscale>
<asrwt>0</asrwt>
<pdfrwt beam="2">  1        4 0.10356232E-01 0.12500148E+03</pdfrwt>
<pdfrwt beam="1">  1       -4 0.89277457E-02 0.12500148E+03</pdfrwt>
<totfact> 0.10445007E+04</totfact>
</mgrwt>
</event>
<event>
 5    1  0.3296574E-054  0.1249990E+03  0.7818608E-02  0.1235071E+00
          4   -1    0    0  501    0  0.00000000000E+00  0.00000000000E+00  0.20127247990E+03  0.20127748897E+03  0.14200000000E+01 0.  1.
         -4   -1    0    0    0  501 -0.00000000000E+00 -0.00000000000E+00 -0.19376234727E+02  0.19428197862E+02  0.14200000000E+01 0. -1.
         25    2    1    2    0    0  0.00000000000E+00  0.00000000000E+00  0.18189624517E+03  0.22070568683E+03  0.12499902476E+03 0.  0.
        -11    1    3    3    0    0 -0.78704290846E+01  0.61984849324E+02  0.88374951959E+02  0.10823214557E+03  0.51100000000E-03 0. -1.
         11    1    3    3    0    0  0.78704290846E+01 -0.61984849324E+02  0.93521293212E+02  0.11247354126E+03  0.51100000000E-03 0.  1.
<mgrwt>
<rscale>  0 0.12499902E+03</rscale>
<asrwt>0</asrwt>
<pdfrwt beam="1">  1        4 0.30969380E-01 0.12499902E+03</pdfrwt>
<pdfrwt beam="2">  1       -4 0.29853416E-02 0.12499902E+03</pdfrwt>
<totfact> 0.86758696E+03</totfact>
</mgrwt>
</event>
<event>
 5    1  0.3296574E-054  0.1249996E+03  0.7818608E-02  0.1235070E+00
         -4   -1    0    0    0  501 -0.00000000000E+00  0.00000000000E+00  0.38900821601E+03  0.38901080772E+03  0.14200000000E+01 0.  1.
          4   -1    0    0  501    0  0.00000000000E+00 -0.00000000000E+00 -0.99886648719E+01  0.10089094406E+02  0.14200000000E+01 0. -1.
         25    2    1    2    0    0  0.00000000000E+00  0.00000000000E+00  0.37901955113E+03  0.39909990212E+03  0.12499964693E+03 0.  0.
        -11    1    3    3    0    0 -0.42660778086E+02  0.44462559539E+02  0.22289970325E+03  0.23125989470E+03  0.51100000000E-03 0.  1.
         11    1    3    3    0    0  0.42660778086E+02 -0.44462559539E+02  0.15611984789E+03  0.16784000743E+03  0.51100000000E-03 0. -1.
<mgrwt>
<rscale>  0 0.12499965E+03</rscale>
<asrwt>0</asrwt>
<pdfrwt beam="2">  1        4 0.15446425E-02 0.12499965E+03</pdfrwt>
<pdfrwt beam="1">  1       -4 0.59855338E-01 0.12499965E+03</pdfrwt>
<totfact> 0.64640931E+03</totfact>
</mgrwt>
</event>
<event>
 5    1  0.3296574E-054  0.1249995E+03  0.7818608E-02  0.1235070E+00
          4   -1    0    0  501    0  0.00000000000E+00  0.00000000000E+00  0.84041504643E+02  0.84053500240E+02  0.14200000000E+01 0. -1.
         -4   -1    0    0    0  501 -0.00000000000E+00 -0.00000000000E+00 -0.46453457540E+02  0.46475155916E+02  0.14200000000E+01 0.  1.
         25    2    1    2    0    0  0.00000000000E+00  0.00000000000E+00  0.37588047103E+02  0.13052865616E+03  0.12499947517E+03 0.  0.
        -11    1    3    3    0    0 -0.61793393280E+02  0.90510425795E+01  0.21324512817E+02  0.65993027450E+02  0.51100000000E-03 0.  1.
         11    1    3    3    0    0  0.61793393280E+02 -0.90510425795E+01  0.16263534286E+02  0.64535628706E+02  0.51100000000E-03 0. -1.
<mgrwt>
<rscale>  0 0.12499948E+03</rscale>
<asrwt>0</asrwt>
<pdfrwt beam="1">  1        4 0.12932054E-01 0.12499948E+03</pdfrwt>
<pdfrwt beam="2">  1       -4 0.71492777E-02 0.12499948E+03</pdfrwt>
<totfact> 0.10333327E+04</totfact>
</mgrwt>
</event>
<event>
 5    1  0.3296574E-054  0.1249992E+03  0.7818608E-02  0.1235071E+00
          4   -1    0    0  501    0  0.00000000000E+00  0.00000000000E+00  0.96944110983E+01  0.97978572425E+01  0.14200000000E+01 0. -1.
         -4   -1    0    0    0  501 -0.00000000000E+00 -0.00000000000E+00 -0.40069002835E+03  0.40069254451E+03  0.14200000000E+01 0.  1.
         25    2    1    2    0    0  0.00000000000E+00  0.00000000000E+00 -0.39099561726E+03  0.41049040175E+03  0.12499918885E+03 0.  0.
        -11    1    3    3    0    0  0.52246482634E+02  0.93609490803E+00 -0.30809583744E+03  0.31249578600E+03  0.51100000000E-03 0.  1.
         11    1    3    3    0    0 -0.52246482634E+02 -0.93609490803E+00 -0.82899779815E+02  0.97994615745E+02  0.51100000000E-03 0. -1.
<mgrwt>
<rscale>  0 0.12499919E+03</rscale>
<asrwt>0</asrwt>
<pdfrwt beam="1">  1        4 0.14995991E-02 0.12499919E+03</pdfrwt>
<pdfrwt beam="2">  1       -4 0.61652758E-01 0.12499919E+03</pdfrwt>
<totfact> 0.63546278E+03</totfact>
</mgrwt>
</event>
<event>
 5    1  0.3296574E-054  0.1249980E+03  0.7818608E-02  0.1235072E+00
          4   -1    0    0  501    0  0.00000000000E+00  0.00000000000E+00  0.60873966654E+02  0.60890526489E+02  0.14200000000E+01 0. -1.
         -4   -1    0    0    0  501 -0.00000000000E+00 -0.00000000000E+00 -0.64134304434E+02  0.64150022644E+02  0.14200000000E+01 0.  1.
         25    2    1    2    0    0  0.00000000000E+00  0.00000000000E+00 -0.32603377805E+01  0.12504054913E+03  0.12499803649E+03 0.  0.
        -11    1    3    3    0    0  0.20889976264E+02 -0.58074840613E+02 -0.11484867552E+02  0.62777228384E+02  0.51100000000E-03 0.  1.
         11    1    3    3    0    0 -0.20889976264E+02  0.58074840613E+02  0.82245297718E+01  0.62263320750E+02  0.51100000000E-03 0. -1.
<mgrwt>
<rscale>  0 0.12499804E+03</rscale>
<asrwt>0</asrwt>
<pdfrwt beam="1">  1        4 0.93677086E-02 0.12499804E+03</pdfrwt>
<pdfrwt beam="2">  1       -4 0.98692990E-02 0.12499804E+03</pdfrwt>
<totfact> 0.10452446E+04</totfact>
</mgrwt>
</event>
<event>
 4    1  0.3296574E-054  0.1250606E+03  0.7818608E-02  0.1234975E+00
          4   -1    0    0  501    0  0.00000000000E+00  0.00000000000E+00  0.34135701092E+02  0.34165223386E+02  0.14200000000E+01 0.  1.
         -4   -1    0    0    0  501 -0.00000000000E+00 -0.00000000000E+00 -0.11446046461E+03  0.11446927255E+03  0.14200000000E+01 0. -1.
        -11    1    1    2    0    0  0.55684008274E+02 -0.11375513937E+02 -0.71152970798E+02  0.91065121471E+02  0.51100000000E-03 0. -1.
         11    1    1    2    0    0 -0.55684008274E+02  0.11375513937E+02 -0.91717927224E+01  0.57569374470E+02  0.51100000000E-03 0.  1.
<mgrwt>
<rscale>  0 0.12506057E+03</rscale>
<asrwt>0</asrwt>
<pdfrwt beam="1">  1        4 0.52545949E-02 0.12506057E+03</pdfrwt>
<pdfrwt beam="2">  1       -4 0.17612251E-01 0.12506057E+03</pdfrwt>
<totfact> 0.99440955E+03</totfact>
</mgrwt>
</event>
<event>
 5    1  0.3296574E-054  0.1250002E+03  0.7818608E-02  0.1235069E+00
          4   -1    0    0  501    0  0.00000000000E+00  0.00000000000E+00  0.23788209935E+02  0.23830554587E+02  0.14200000000E+01 0. -1.
         -4   -1    0    0    0  501 -0.00000000000E+00 -0.00000000000E+00 -0.16401861894E+03  0.16402476569E+03  0.14200000000E+01 0.  1.
         25    2    1    2    0    0  0.00000000000E+00  0.00000000000E+00 -0.14023040901E+03  0.18785532028E+03  0.12500021498E+03 0.  0.
        -11    1    3    3    0    0 -0.41711078784E+02 -0.45231851131E+02 -0.86614237498E+02  0.10624387318E+03  0.51100000000E-03 0.  1.
         11    1    3    3    0    0  0.41711078784E+02  0.45231851131E+02 -0.53616171507E+02  0.81611447098E+02  0.51100000000E-03 0. -1.
<mgrwt>
<rscale>  0 0.12500021E+03</rscale>
<asrwt>0</asrwt>
<pdfrwt beam="1">  1        4 0.36634548E-02 0.12500021E+03</pdfrwt>
<pdfrwt beam="2">  1       -4 0.25237363E-01 0.12500021E+03</pdfrwt>
<totfact> 0.92221382E+03</totfact>
</mgrwt>
</event>
<event>
 5    1  0.3296574E-054  0.1249973E+03  0.7818608E-02  0.1235073E+00
          4   -1    0    0  501    0  0.00000000000E+00  0.00000000000E+00  0.12330409075E+02  0.12411905090E+02  0.14200000000E+01 0.  1.
         -4   -1    0    0    0  501 -0.00000000000E+00 -0.00000000000E+00 -0.31565797937E+03  0.31566117332E+03  0.14200000000E+01 0. -1.
         25    2    1    2    0    0  0.00000000000E+00  0.00000000000E+00 -0.30332757030E+03  0.32807307841E+03  0.12499731947E+03 0.  0.
        -11    1    3    3    0    0  0.11092703400E+01  0.62487043514E+02 -0.15042886250E+03  0.16289476284E+03  0.51100000000E-03 0. -1.
         11    1    3    3    0    0 -0.11092703400E+01 -0.62487043514E+02 -0.15289870780E+03  0.16517831557E+03  0.51100000000E-03 0.  1.
<mgrwt>
<rscale>  0 0.12499732E+03</rscale>
<asrwt>0</asrwt>
<pdfrwt beam="1">  1        4 0.19035009E-02 0.12499732E+03</pdfrwt>
<pdfrwt beam="2">  1       -4 0.48569275E-01 0.12499732E+03</pdfrwt>
<totfact> 0.72210409E+03</totfact>
</mgrwt>
</event>
<event>
 5    1  0.3296574E-054  0.1250001E+03  0.7818608E-02  0.1235069E+00
         -4   -1    0    0    0  501 -0.00000000000E+00  0.00000000000E+00  0.28661756694E+02  0.28696910928E+02  0.14200000000E+01 0.  1.
          4   -1    0    0  501    0  0.00000000000E+00 -0.00000000000E+00 -0.13616580012E+03  0.13617320413E+03  0.14200000000E+01 0. -1.
         25    2    1    2    0    0  0.00000000000E+00  0.00000000000E+00 -0.10750404343E+03  0.16487011506E+03  0.12500014194E+03 0.  0.
        -11    1    3    3    0    0 -0.58960140897E+02 -0.20203349505E+02 -0.47595811227E+02  0.78420882375E+02  0.51100000000E-03 0.  1.
         11    1    3    3    0    0  0.58960140897E+02  0.20203349505E+02 -0.59908232204E+02  0.86449232685E+02  0.51100000000E-03 0. -1.
<mgrwt>
<rscale>  0 0.12500014E+03</rscale>
<asrwt>0</asrwt>
<pdfrwt beam="2">  1        4 0.20951858E-01 0.12500014E+03</pdfrwt>
<pdfrwt beam="1">  1       -4 0.44127748E-02 0.12500014E+03</pdfrwt>
<totfact> 0.96411689E+03</totfact>
</mgrwt>
</event>
<event>
 5    1  0.3296574E-054  0.1250029E+03  0.7818608E-02  0.1235065E+00
         -4   -1    0    0    0  501 -0.00000000000E+00  0.00000000000E+00  0.11847376064E+02  0.11932171621E+02  0.14200000000E+01 0.  1.
          4   -1    0    0  501    0  0.00000000000E+00 -0.00000000000E+00 -0.32846764411E+03  0.32847071350E+03  0.14200000000E+01 0. -1.
         25    2    1    2    0    0  0.00000000000E+00  0.00000000000E+00 -0.31662026805E+03  0.34040288512E+03  0.12500292021E+03 0.  0.
        -11    1    3    3    0    0  0.17870706105E+02  0.59816897084E+02 -0.15013648048E+03  0.16259885020E+03  0.51100000000E-03 0.  1.
         11    1    3    3    0    0 -0.17870706105E+02 -0.59816897084E+02 -0.16648378756E+03  0.17780403492E+03  0.51100000000E-03 0. -1.
<mgrwt>
<rscale>  0 0.12500292E+03</rscale>
<asrwt>0</asrwt>
<pdfrwt beam="2">  1        4 0.50540236E-01 0.12500292E+03</pdfrwt>
<pdfrwt beam="1">  1       -4 0.18294323E-02 0.12500292E+03</pdfrwt>
<totfact> 0.70788848E+03</totfact>
</mgrwt>
</event>
<event>
 5    1  0.3296574E-054  0.1250004E+03  0.7818608E-02  0.1235069E+00
          4   -1    0    0  501    0  0.00000000000E+00  0.00000000000E+00  0.29342627401E+03  0.29342970995E+03  0.14200000000E+01 0.  1.
         -4   -1    0    0    0  501 -0.00000000000E+00 -0.00000000000E+00 -0.13271246116E+02  0.13346998669E+02  0.14200000000E+01 0. -1.
         25    2    1    2    0    0  0.00000000000E+00  0.00000000000E+00  0.28015502789E+03  0.30677670862E+03  0.12500043718E+03 0.  0.
        -11    1    3    3    0    0  0.56832415004E+02  0.22806471379E+02  0.17075201368E+03  0.18140096115E+03  0.51100000000E-03 0. -1.
         11    1    3    3    0    0 -0.56832415004E+02 -0.22806471379E+02  0.10940301422E+03  0.12537574746E+03  0.51100000000E-03 0.  1.
<mgrwt>
<rscale>  0 0.12500044E+03</rscale>
<asrwt>0</asrwt>
<pdfrwt beam="1">  1        4 0.45148596E-01 0.12500044E+03</pdfrwt>
<pdfrwt beam="2">  1       -4 0.20478216E-02 0.12500044E+03</pdfrwt>
<totfact> 0.74755841E+03</totfact>
</mgrwt>
</event>
<event>
 5    1  0.3296574E-054  0.1250029E+03  0.7818608E-02  0.1235065E+00
         -4   -1    0    0    0  501 -0.00000000000E+00  0.00000000000E+00  0.57969894865E+02  0.57987284043E+02  0.14200000000E+01 0.  1.
          4   -1    0    0  501    0  0.00000000000E+00 -0.00000000000E+00 -0.67352264312E+02  0.67367231708E+02  0.14200000000E+01 0. -1.
         25    2    1    2    0    0  0.00000000000E+00  0.00000000000E+00 -0.93823694474E+01  0.12535451575E+03  0.12500290302E+03 0.  0.
        -11    1    3    3    0    0  0.52696850602E+02 -0.48129918104E+01 -0.38045959043E+02  0.65173752027E+02  0.51100000000E-03 0.  1.
         11    1    3    3    0    0 -0.52696850602E+02  0.48129918104E+01  0.28663589595E+02  0.60180763723E+02  0.51100000000E-03 0. -1.
<mgrwt>
<rscale>  0 0.12500290E+03</rscale>
<asrwt>0</asrwt>
<pdfrwt beam="2">  1        4 0.10364376E-01 0.12500290E+03</pdfrwt>
<pdfrwt beam="1">  1       -4 0.89209343E-02 0.12500290E+03</pdfrwt>
<totfact> 0.10444482E+04</totfact>
</mgrwt>
</event>
<event>
 5    1  0.3296574E-054  0.1249996E+03  0.7818608E-02  0.1235070E+00
         -4   -1    0    0    0  501 -0.00000000000E+00  0.00000000000E+00  0.22875522308E+03  0.22875963037E+03  0.14200000000E+01 0.  1.
          4   -1    0    0  501    0  0.00000000000E+00 -0.00000000000E+00 -0.17041916238E+02  0.17100973922E+02  0.14200000000E+01 0. -1.
         25    2    1    2    0    0  0.00000000000E+00  0.00000000000E+00  0.21171330684E+03  0.24586060429E+03  0.12499964979E+03 0.  0.
        -11    1    3    3    0    0 -0.51901843558E+02  0.34698913674E+02  0.10015194681E+03  0.11801791569E+03  0.51100000000E-03 0.  1.
         11    1    3    3    0    0  0.51901843558E+02 -0.34698913674E+02  0.11156136004E+03  0.12784268860E+03  0.51100000000E-03 0. -1.
<mgrwt>
<rscale>  0 0.12499965E+03</rscale>
<asrwt>0</asrwt>
<pdfrwt beam="2">  1        4 0.26267154E-02 0.12499965E+03</pdfrwt>
<pdfrwt beam="1">  1       -4 0.35197990E-01 0.12499965E+03</pdfrwt>
<totfact> 0.82932853E+03</totfact>
</mgrwt>
</event>
<event>
 5    1  0.3296574E-054  0.1250002E+03  0.7818608E-02  0.1235069E+00
          4   -1    0    0  501    0  0.00000000000E+00  0.00000000000E+00  0.28677995195E+02  0.28713129548E+02  0.14200000000E+01 0.  1.
         -4   -1    0    0    0  501 -0.00000000000E+00 -0.00000000000E+00 -0.13608897570E+03  0.13609638388E+03  0.14200000000E+01 0. -1.
         25    2    1    2    0    0  0.00000000000E+00  0.00000000000E+00 -0.10741098050E+03  0.16480951343E+03  0.12500022794E+03 0.  0.
        -11    1    3    3    0    0 -0.44258867928E+02  0.42199027363E+02 -0.36684462219E+02  0.71311675546E+02  0.51100000000E-03 0. -1.
         11    1    3    3    0    0  0.44258867928E+02 -0.42199027363E+02 -0.70726518283E+02  0.93497837886E+02  0.51100000000E-03 0.  1.
<mgrwt>
<rscale>  0 0.12500023E+03</rscale>
<asrwt>0</asrwt>
<pdfrwt beam="1">  1        4 0.44152719E-02 0.12500023E+03</pdfrwt>
<pdfrwt beam="2">  1       -4 0.20940038E-01 0.12500023E+03</pdfrwt>
<totfact> 0.96422986E+03</totfact>
</mgrwt>
</event>
<event>
 5    1  0.3296574E-054  0.1250103E+03  0.7818608E-02  0.1235053E+00
          4   -1    0    0  501    0  0.00000000000E+00  0.00000000000E+00  0.10738241899E+02  0.10831723736E+02  0.14200000000E+01 0. -1.
         -4   -1    0    0    0  501 -0.00000000000E+00 -0.00000000000E+00 -0.36215822663E+03  0.36216101048E+03  0.14200000000E+01 0.  1.
         25    2    1    2    0    0  0.00000000000E+00  0.00000000000E+00 -0.35141998473E+03  0.37299273422E+03  0.12501029603E+03 0.  0.
        -11    1    3    3    0    0  0.36623744171E+02 -0.49580720409E+02 -0.20662359747E+03  0.21562202463E+03  0.51100000000E-03 0.  1.
         11    1    3    3    0    0 -0.36623744171E+02  0.49580720409E+02 -0.14479638726E+03  0.15737070959E+03  0.51100000000E-03 0. -1.
<mgrwt>
<rscale>  0 0.12501030E+03</rscale>
<asrwt>0</asrwt>
<pdfrwt beam="1">  1        4 0.16594425E-02 0.12501030E+03</pdfrwt>
<pdfrwt beam="2">  1       -4 0.55724046E-01 0.12501030E+03</pdfrwt>
<totfact> 0.67251696E+03</totfact>
</mgrwt>
</event>
<event>
 5    1  0.3296574E-054  0.1249981E+03  0.7818608E-02  0.1235072E+00
          4   -1    0    0  501    0  0.00000000000E+00  0.00000000000E+00  0.13838332636E+02  0.13910997453E+02  0.14200000000E+01 0. -1.
         -4   -1    0    0    0  501 -0.00000000000E+00 -0.00000000000E+00 -0.28145529911E+03  0.28145888119E+03  0.14200000000E+01 0.  1.
         25    2    1    2    0    0  0.00000000000E+00  0.00000000000E+00 -0.26761696648E+03  0.29536987864E+03  0.12499809783E+03 0.  0.
        -11    1    3    3    0    0  0.58827793270E+02  0.11143556585E+02 -0.17616104042E+03  0.18605805620E+03  0.51100000000E-03 0.  1.
         11    1    3    3    0    0 -0.58827793270E+02 -0.11143556585E+02 -0.91455926063E+02  0.10931182245E+03  0.51100000000E-03 0. -1.
<mgrwt>
<rscale>  0 0.12499810E+03</rscale>
<asrwt>0</asrwt>
<pdfrwt beam="1">  1        4 0.21348396E-02 0.12499810E+03</pdfrwt>
<pdfrwt beam="2">  1       -4 0.43306676E-01 0.12499810E+03</pdfrwt>
<totfact> 0.76186547E+03</totfact>
</mgrwt>
</event>
<event>
 5    1  0.3296574E-054  0.1250001E+03  0.7818608E-02  0.1235069E+00
         -4   -1    0    0    0  501 -0.00000000000E+00  0.00000000000E+00  0.26867544765E+02  0.26905043425E+02  0.14200000000E+01 0.  1.
          4   -1    0    0  501    0  0.00000000000E+00 -0.00000000000E+00 -0.14524696674E+03  0.14525390785E+03  0.14200000000E+01 0. -1.
         25    2    1    2    0    0  0.00000000000E+00  0.00000000000E+00 -0.11837942197E+03  0.17215895128E+03  0.12500006783E+03 0.  0.
        -11    1    3    3    0    0 -0.43726815667E+02 -0.32553951734E+02 -0.17088001411E+02  0.57129624315E+02  0.51100000000E-03 0.  1.
         11    1    3    3    0    0  0.43726815667E+02  0.32553951734E+02 -0.10129142056E+03  0.11502932696E+03  0.51100000000E-03 0. -1.
<mgrwt>
<rscale>  0 0.12500007E+03</rscale>
<asrwt>0</asrwt>
<pdfrwt beam="2">  1        4 0.22349105E-01 0.12500007E+03</pdfrwt>
<pdfrwt beam="1">  1       -4 0.41368870E-02 0.12500007E+03</pdfrwt>
<totfact> 0.95047618E+03</totfact>
</mgrwt>
</event>
<event>
 5    1  0.3296574E-054  0.1250081E+03  0.7818608E-02  0.1235057E+00
          4   -1    0    0  501    0  0.00000000000E+00  0.00000000000E+00  0.26478421264E+02  0.26516470214E+02  0.14200000000E+01 0. -1.
         -4   -1    0    0    0  501 -0.00000000000E+00 -0.00000000000E+00 -0.14739754553E+03  0.14740438538E+03  0.14200000000E+01 0.  1.
         25    2    1    2    0    0  0.00000000000E+00  0.00000000000E+00 -0.12091912427E+03  0.17392085559E+03  0.12500811732E+03 0.  0.
        -11    1    3    3    0    0 -0.55219230621E+02 -0.28289150704E+02 -0.49926407161E+02  0.79637212471E+02  0.51100000000E-03 0.  1.
         11    1    3    3    0    0  0.55219230621E+02  0.28289150704E+02 -0.70992717108E+02  0.94283643123E+02  0.51100000000E-03 0. -1.
<mgrwt>
<rscale>  0 0.12500812E+03</rscale>
<asrwt>0</asrwt>
<pdfrwt beam="1">  1        4 0.40770563E-02 0.12500812E+03</pdfrwt>
<pdfrwt beam="2">  1       -4 0.22679998E-01 0.12500812E+03</pdfrwt>
<totfact> 0.94705607E+03</totfact>
</mgrwt>
</event>
<event>
 5    1  0.3296574E-054  0.1250083E+03  0.7818608E-02  0.1235056E+00
         -4   -1    0    0    0  501 -0.00000000000E+00  0.00000000000E+00  0.15750329585E+02  0.15814211395E+02  0.14200000000E+01 0.  1.
          4   -1    0    0  501    0  0.00000000000E+00 -0.00000000000E+00 -0.24747578266E+03  0.24747985656E+03  0.14200000000E+01 0. -1.
         25    2    1    2    0    0  0.00000000000E+00  0.00000000000E+00 -0.23172545308E+03  0.26329406796E+03  0.12500832219E+03 0.  0.
        -11    1    3    3    0    0  0.17384199954E+01 -0.62005634206E+02 -0.99677834487E+02  0.11740268935E+03  0.51100000000E-03 0.  1.
         11    1    3    3    0    0 -0.17384199954E+01  0.62005634206E+02 -0.13204761859E+03  0.14589137861E+03  0.51100000000E-03 0. -1.
<mgrwt>
<rscale>  0 0.12500832E+03</rscale>
<asrwt>0</asrwt>
<pdfrwt beam="2">  1        4 0.38078422E-01 0.12500832E+03</pdfrwt>
<pdfrwt beam="1">  1       -4 0.24283552E-02 0.12500832E+03</pdfrwt>
<totfact> 0.80431100E+03</totfact>
</mgrwt>
</event>
<event>
 5    1  0.3296574E-054  0.1250015E+03  0.7818608E-02  0.1235067E+00
          4   -1    0    0  501    0  0.00000000000E+00  0.00000000000E+00  0.31620055636E+02  0.31651924403E+02  0.14200000000E+01 0.  1.
         -4   -1    0    0    0  501 -0.00000000000E+00 -0.00000000000E+00 -0.12344182453E+03  0.12344999167E+03  0.14200000000E+01 0. -1.
         25    2    1    2    0    0  0.00000000000E+00  0.00000000000E+00 -0.91821768897E+02  0.15510191608E+03  0.12500146850E+03 0.  0.
        -11    1    3    3    0    0  0.52125761325E+02 -0.34178081405E+02 -0.40210550807E+02  0.74176307799E+02  0.51100000000E-03 0. -1.
         11    1    3    3    0    0 -0.52125761325E+02  0.34178081405E+02 -0.51611218090E+02  0.80925608278E+02  0.51100000000E-03 0.  1.
<mgrwt>
<rscale>  0 0.12500147E+03</rscale>
<asrwt>0</asrwt>
<pdfrwt beam="1">  1        4 0.48677037E-02 0.12500147E+03</pdfrwt>
<pdfrwt beam="2">  1       -4 0.18994129E-01 0.12500147E+03</pdfrwt>
<totfact> 0.98292249E+03</totfact>
</mgrwt>
</event>
<event>
 5    1  0.3296574E-054  0.1250040E+03  0.7818608E-02  0.1235063E+00
         -4   -1    0    0    0  501 -0.00000000000E+00  0.00000000000E+00  0.13488734549E+02  0.13563272457E+02  0.14200000000E+01 0.  1.
          4   -1    0    0  501    0  0.00000000000E+00 -0.00000000000E+00 -0.28873770156E+03  0.28874119329E+03  0.14200000000E+01 0. -1.
         25    2    1    2    0    0  0.00000000000E+00  0.00000000000E+00 -0.27524896701E+03  0.30230446574E+03  0.12500398461E+03 0.  0.
        -11    1    3    3    0    0  0.35817558941E+02 -0.40080081268E+02 -0.60494817994E+02  0.80925480829E+02  0.51100000000E-03 0.  1.
         11    1    3    3    0    0 -0.35817558941E+02  0.40080081268E+02 -0.21475414901E+03  0.22137898492E+03  0.51100000000E-03 0. -1.
<mgrwt>
<rscale>  0 0.12500398E+03</rscale>
<asrwt>0</asrwt>
<pdfrwt beam="2">  1        4 0.44427183E-01 0.12500398E+03</pdfrwt>
<pdfrwt beam="1">  1       -4 0.20811924E-02 0.12500398E+03</pdfrwt>
<totfact> 0.75304019E+03</totfact>
</mgrwt>
</event>
<event>
 5    1  0.3296574E-054  0.1250007E+03  0.7818608E-02  0.1235068E+00
         -4   -1    0    0    0  501 -0.00000000000E+00  0.00000000000E+00  0.20492140281E+03  0.20492632269E+03  0.14200000000E+01 0. -1.
          4   -1    0    0  501    0  0.00000000000E+00 -0.00000000000E+00 -0.19030806319E+02  0.19083710047E+02  0.14200000000E+01 0.  1.
         25    2    1    2    0    0  0.00000000000E+00  0.00000000000E+00  0.18589059649E+03  0.22401003274E+03  0.12500072361E+03 0.  0.
        -11    1    3    3    0    0 -0.60860779211E+02  0.73766191353E+01  0.11473544360E+03  0.13008716683E+03  0.51100000000E-03 0. -1.
         11    1    3    3    0    0  0.60860779211E+02 -0.73766191353E+01  0.71155152892E+02  0.93922865903E+02  0.51100000000E-03 0.  1.
<mgrwt>
<rscale>  0 0.12500072E+03</rscale>
<asrwt>0</asrwt>
<pdfrwt beam="2">  1        4 0.29322643E-02 0.12500072E+03</pdfrwt>
<pdfrwt beam="1">  1       -4 0.31530818E-01 0.12500072E+03</pdfrwt>
<totfact> 0.86236370E+03</totfact>
</mgrwt>
</event>
<event>
 5    1  0.3296574E-054  0.1250017E+03  0.7818608E-02  0.1235067E+00
         -4   -1    0    0    0  501 -0.00000000000E+00  0.00000000000E+00  0.16110333010E+02  0.16172792884E+02  0.14200000000E+01 0.  1.
          4   -1    0    0  501    0  0.00000000000E+00 -0.00000000000E+00 -0.24194133156E+03  0.24194549865E+03  0.14200000000E+01 0. -1.
         25    2    1    2    0    0  0.00000000000E+00  0.00000000000E+00 -0.22583099855E+03  0.25811829154E+03  0.12500165006E+03 0.  0.
        -11    1    3    3    0    0 -0.53277178375E+02 -0.18839596086E+02 -0.57779259393E+02  0.80819743458E+02  0.51100000000E-03 0.  1.
         11    1    3    3    0    0  0.53277178375E+02  0.18839596086E+02 -0.16805173916E+03  0.17729854808E+03  0.51100000000E-03 0. -1.
<mgrwt>
<rscale>  0 0.12500165E+03</rscale>
<asrwt>0</asrwt>
<pdfrwt beam="2">  1        4 0.37226866E-01 0.12500165E+03</pdfrwt>
<pdfrwt beam="1">  1       -4 0.24836381E-02 0.12500165E+03</pdfrwt>
<totfact> 0.81167878E+03</totfact>
</mgrwt>
</event>
<event>
 5    1  0.3296574E-054  0.1249992E+03  0.7818608E-02  0.1235071E+00
          4   -1    0    0  501    0  0.00000000000E+00  0.00000000000E+00  0.20592253673E+02  0.20641155766E+02  0.14200000000E+01 0. -1.
         -4   -1    0    0    0  501 -0.00000000000E+00 -0.00000000000E+00 -0.18941605853E+03  0.18942138113E+03  0.14200000000E+01 0.  1.
         25    2    1    2    0    0  0.00000000000E+00  0.00000000000E+00 -0.16882380486E+03  0.21006253689E+03  0.12499916928E+03 0.  0.
        -11    1    3    3    0    0 -0.36637769759E+02  0.34190214442E+02 -0.14717627539E+03  0.15547396237E+03  0.51100000000E-03 0.  1.
         11    1    3    3    0    0  0.36637769759E+02 -0.34190214442E+02 -0.21647529464E+02  0.54588574525E+02  0.51100000000E-03 0. -1.
<mgrwt>
<rscale>  0 0.12499917E+03</rscale>
<asrwt>0</asrwt>
<pdfrwt beam="1">  1        4 0.31722103E-02 0.12499917E+03</pdfrwt>
<pdfrwt beam="2">  1       -4 0.29145102E-01 0.12499917E+03</pdfrwt>
<totfact> 0.88467312E+03</totfact>
</mgrwt>
</event>
<event>
 5    1  0.3296574E-054  0.1249961E+03  0.7818608E-02  0.1235075E+00
          4   -1    0    0  501    0  0.00000000000E+00  0.00000000000E+00  0.29701154825E+02  0.29735080258E+02  0.14200000000E+01 0. -1.
         -4   -1    0    0    0  501 -0.00000000000E+00 -0.00000000000E+00 -0.13139732741E+03  0.13140500009E+03  0.14200000000E+01 0.  1.
         25    2    1    2    0    0  0.00000000000E+00  0.00000000000E+00 -0.10169617258E+03  0.16114008035E+03  0.12499605585E+03 0.  0.
        -11    1    3    3    0    0 -0.27057085761E+02 -0.54587020884E+02 -0.68812111250E+02  0.91907210782E+02  0.51100000000E-03 0.  1.
         11    1    3    3    0    0  0.27057085761E+02  0.54587020884E+02 -0.32884061330E+02  0.69232869568E+02  0.51100000000E-03 0. -1.
<mgrwt>
<rscale>  0 0.12499606E+03</rscale>
<asrwt>0</asrwt>
<pdfrwt beam="1">  1        4 0.45726084E-02 0.12499606E+03</pdfrwt>
<pdfrwt beam="2">  1       -4 0.20218173E-01 0.12499606E+03</pdfrwt>
<totfact> 0.97132046E+03</totfact>
</mgrwt>
</event>
<event>
 5    1  0.3296574E-054  0.1250008E+03  0.7818608E-02  0.1235068E+00
         -4   -1    0    0    0  501 -0.00000000000E+00  0.00000000000E+00  0.38740951667E+02  0.38766967074E+02  0.14200000000E+01 0.  1.
          4   -1    0    0  501    0  0.00000000000E+00 -0.00000000000E+00 -0.10076641710E+03  0.10077642192E+03  0.14200000000E+01 0. -1.
         25    2    1    2    0    0  0.00000000000E+00  0.00000000000E+00 -0.62025465435E+02  0.13954338900E+03  0.12500079620E+03 0.  0.
        -11    1    3    3    0    0 -0.28022653181E+02  0.35920339140E+02  0.16752531388E+02  0.48540572343E+02  0.51100000000E-03 0.  1.
         11    1    3    3    0    0  0.28022653181E+02 -0.35920339140E+02 -0.78777996823E+02  0.91002816654E+02  0.51100000000E-03 0. -1.
<mgrwt>
<rscale>  0 0.12500080E+03</rscale>
<asrwt>0</asrwt>
<pdfrwt beam="2">  1        4 0.15505296E-01 0.12500080E+03</pdfrwt>
<pdfrwt beam="1">  1       -4 0.59629173E-02 0.12500080E+03</pdfrwt>
<totfact> 0.10142876E+04</totfact>
</mgrwt>
</event>
<event>
 5    1  0.3296574E-054  0.1249979E+03  0.7818608E-02  0.1235073E+00
          4   -1    0    0  501    0  0.00000000000E+00  0.00000000000E+00  0.44965031183E+02  0.44987447463E+02  0.14200000000E+01 0. -1.
         -4   -1    0    0    0  501 -0.00000000000E+00 -0.00000000000E+00 -0.86820304063E+02  0.86831915777E+02  0.14200000000E+01 0.  1.
         25    2    1    2    0    0  0.00000000000E+00  0.00000000000E+00 -0.41855272880E+02  0.13181936324E+03  0.12499792261E+03 0.  0.
        -11    1    3    3    0    0 -0.35228451854E+02 -0.38014978185E+02 -0.57761328604E+02  0.77605112389E+02  0.51100000000E-03 0.  1.
         11    1    3    3    0    0  0.35228451854E+02  0.38014978185E+02  0.15906055724E+02  0.54214250852E+02  0.51100000000E-03 0. -1.
<mgrwt>
<rscale>  0 0.12499792E+03</rscale>
<asrwt>0</asrwt>
<pdfrwt beam="1">  1        4 0.69203147E-02 0.12499792E+03</pdfrwt>
<pdfrwt beam="2">  1       -4 0.13359587E-01 0.12499792E+03</pdfrwt>
<totfact> 0.10306038E+04</totfact>
</mgrwt>
</event>
<event>
 5    1  0.3296574E-054  0.1249916E+03  0.7818608E-02  0.1235082E+00
         -4   -1    0    0    0  501 -0.00000000000E+00  0.00000000000E+00  0.27016941774E+02  0.27054233362E+02  0.14200000000E+01 0. -1.
          4   -1    0    0  501    0  0.00000000000E+00 -0.00000000000E+00 -0.14442534203E+03  0.14443232263E+03  0.14200000000E+01 0.  1.
         25    2    1    2    0    0  0.00000000000E+00  0.00000000000E+00 -0.11740840026E+03  0.17148655600E+03  0.12499162546E+03 0.  0.
        -11    1    3    3    0    0 -0.33306096921E+02  0.41069497907E+02 -0.12999884411E+02  0.54451783675E+02  0.51100000000E-03 0. -1.
         11    1    3    3    0    0  0.33306096921E+02 -0.41069497907E+02 -0.10440851585E+03  0.11703477232E+03  0.51100000000E-03 0.  1.
<mgrwt>
<rscale>  0 0.12499163E+03</rscale>
<asrwt>0</asrwt>
<pdfrwt beam="2">  1        4 0.22222688E-01 0.12499163E+03</pdfrwt>
<pdfrwt beam="1">  1       -4 0.41598582E-02 0.12499163E+03</pdfrwt>
<totfact> 0.95190175E+03</totfact>
</mgrwt>
</event>
<event>
 5    1  0.3296574E-054  0.1250028E+03  0.7818608E-02  0.1235065E+00
         -4   -1    0    0    0  501 -0.00000000000E+00  0.00000000000E+00  0.19999254962E+03  0.19999759074E+03  0.14200000000E+01 0.  1.
          4   -1    0    0  501    0  0.00000000000E+00 -0.00000000000E+00 -0.19501759994E+02  0.19553389549E+02  0.14200000000E+01 0. -1.
         25    2    1    2    0    0  0.00000000000E+00  0.00000000000E+00  0.18049078963E+03  0.21955098029E+03  0.12500283120E+03 0.  0.
        -11    1    3    3    0    0 -0.47302856926E+02  0.33885311792E+02  0.13032186252E+03  0.14272197616E+03  0.51100000000E-03 0.  1.
         11    1    3    3    0    0  0.47302856926E+02 -0.33885311792E+02  0.50168927110E+02  0.76829004134E+02  0.51100000000E-03 0. -1.
<mgrwt>
<rscale>  0 0.12500283E+03</rscale>
<asrwt>0</asrwt>
<pdfrwt beam="2">  1        4 0.30046300E-02 0.12500283E+03</pdfrwt>
<pdfrwt beam="1">  1       -4 0.30772445E-01 0.12500283E+03</pdfrwt>
<totfact> 0.86933952E+03</totfact>
</mgrwt>
</event>
<event>
 5    1  0.3296574E-054  0.1249988E+03  0.7818608E-02  0.1235071E+00
          4   -1    0    0  501    0  0.00000000000E+00  0.00000000000E+00  0.41775017455E+03  0.41775258795E+03  0.14200000000E+01 0. -1.
         -4   -1    0    0    0  501 -0.00000000000E+00 -0.00000000000E+00 -0.92941350711E+01  0.94019863178E+01  0.14200000000E+01 0.  1.
         25    2    1    2    0    0  0.00000000000E+00  0.00000000000E+00  0.40845603948E+03  0.42715457427E+03  0.12499877651E+03 0.  0.
        -11    1    3    3    0    0 -0.15366502098E+02 -0.60020549376E+02  0.23231993288E+03  0.24043948708E+03  0.51100000000E-03 0.  1.
         11    1    3    3    0    0  0.15366502098E+02  0.60020549376E+02  0.17613610660E+03  0.18671508719E+03  0.51100000000E-03 0. -1.
<mgrwt>
<rscale>  0 0.12499878E+03</rscale>
<asrwt>0</asrwt>
<pdfrwt beam="1">  1        4 0.64277740E-01 0.12499878E+03</pdfrwt>
<pdfrwt beam="2">  1       -4 0.14383488E-02 0.12499878E+03</pdfrwt>
<totfact> 0.61996432E+03</totfact>
</mgrwt>
</event>
<event>
 5    1  0.3296574E-054  0.1249961E+03  0.7818608E-02  0.1235075E+00
          4   -1    0    0  501    0  0.00000000000E+00  0.00000000000E+00  0.11925888173E+02  0.12010129421E+02  0.14200000000E+01 0. -1.
         -4   -1    0    0    0  501 -0.00000000000E+00 -0.00000000000E+00 -0.32628494963E+03  0.32628803955E+03  0.14200000000E+01 0.  1.
         25    2    1    2    0    0  0.00000000000E+00  0.00000000000E+00 -0.31435906145E+03  0.33829816897E+03  0.12499612638E+03 0.  0.
        -11    1    3    3    0    0  0.45689859839E+02  0.42568312575E+02 -0.16401751761E+03  0.17550319259E+03  0.51100000000E-03 0.  1.
         11    1    3    3    0    0 -0.45689859839E+02 -0.42568312575E+02 -0.15034154385E+03  0.16279497638E+03  0.51100000000E-03 0. -1.
<mgrwt>
<rscale>  0 0.12499613E+03</rscale>
<asrwt>0</asrwt>
<pdfrwt beam="1">  1        4 0.18414701E-02 0.12499613E+03</pdfrwt>
<pdfrwt beam="2">  1       -4 0.50204396E-01 0.12499613E+03</pdfrwt>
<totfact> 0.71037476E+03</totfact>
</mgrwt>
</event>
<event>
 5    1  0.3296574E-054  0.1250028E+03  0.7818608E-02  0.1235065E+00
         -4   -1    0    0    0  501 -0.00000000000E+00  0.00000000000E+00  0.68878324047E+02  0.68892959898E+02  0.14200000000E+01 0.  1.
          4   -1    0    0  501    0  0.00000000000E+00 -0.00000000000E+00 -0.56685292060E+02  0.56703075189E+02  0.14200000000E+01 0. -1.
         25    2    1    2    0    0  0.00000000000E+00  0.00000000000E+00  0.12193031987E+02  0.12559603509E+03  0.12500277597E+03 0.  0.
        -11    1    3    3    0    0  0.21518319456E+02  0.56171209606E+02  0.23152967032E+02  0.64453880748E+02  0.51100000000E-03 0.  1.
         11    1    3    3    0    0 -0.21518319456E+02 -0.56171209606E+02 -0.10959935044E+02  0.61142154339E+02  0.51100000000E-03 0. -1.
<mgrwt>
<rscale>  0 0.12500278E+03</rscale>
<asrwt>0</asrwt>
<pdfrwt beam="2">  1        4 0.87233080E-02 0.12500278E+03</pdfrwt>
<pdfrwt beam="1">  1       -4 0.10599159E-01 0.12500278E+03</pdfrwt>
<totfact> 0.10439181E+04</totfact>
</mgrwt>
</event>
<event>
 5    1  0.3296574E-054  0.1249996E+03  0.7818608E-02  0.1235070E+00
          4   -1    0    0  501    0  0.00000000000E+00  0.00000000000E+00  0.44115349890E+03  0.44115578426E+03  0.14200000000E+01 0. -1.
         -4   -1    0    0    0  501 -0.00000000000E+00 -0.00000000000E+00 -0.87953107066E+01  0.89092025695E+01  0.14200000000E+01 0.  1.
         25    2    1    2    0    0  0.00000000000E+00  0.00000000000E+00  0.43235818819E+03  0.45006498683E+03  0.12499955791E+03 0.  0.
        -11    1    3    3    0    0  0.23142780754E+02  0.55352832820E+02  0.27923448168E+03  0.28560710804E+03  0.51100000000E-03 0.  1.
         11    1    3    3    0    0 -0.23142780754E+02 -0.55352832820E+02  0.15312370651E+03  0.16445787880E+03  0.51100000000E-03 0. -1.
<mgrwt>
<rscale>  0 0.12499956E+03</rscale>
<asrwt>0</asrwt>
<pdfrwt beam="1">  1        4 0.67878706E-01 0.12499956E+03</pdfrwt>
<pdfrwt beam="2">  1       -4 0.13620614E-02 0.12499956E+03</pdfrwt>
<totfact> 0.59958747E+03</totfact>
</mgrwt>
</event>
<event>
 5    1  0.3296574E-054  0.1249980E+03  0.7818608E-02  0.1235072E+00
          4   -1    0    0  501    0  0.00000000000E+00  0.00000000000E+00  0.36994952045E+02  0.37022194382E+02  0.14200000000E+01 0.  1.
         -4   -1    0    0    0  501 -0.00000000000E+00 -0.00000000000E+00 -0.10551454630E+03  0.10552410095E+03  0.14200000000E+01 0. -1.
         25    2    1    2    0    0  0.00000000000E+00  0.00000000000E+00 -0.68519594256E+02  0.14254629533E+03  0.12499804605E+03 0.  0.
        -11    1    3    3    0    0  0.61368606469E+02  0.48344295828E+00 -0.20776747759E+02  0.64792073781E+02  0.51100000000E-03 0. -1.
         11    1    3    3    0    0 -0.61368606469E+02 -0.48344295828E+00 -0.47742846497E+02  0.77754221551E+02  0.51100000000E-03 0.  1.
<mgrwt>
<rscale>  0 0.12499805E+03</rscale>
<asrwt>0</asrwt>
<pdfrwt beam="1">  1        4 0.56943616E-02 0.12499805E+03</pdfrwt>
<pdfrwt beam="2">  1       -4 0.16235838E-01 0.12499805E+03</pdfrwt>
<totfact> 0.10081526E+04</totfact>
</mgrwt>
</event>
<event>
 5    1  0.3296574E-054  0.1249984E+03  0.7818608E-02  0.1235072E+00
          4   -1    0    0  501    0  0.00000000000E+00  0.00000000000E+00  0.90902871138E+02  0.90913961420E+02  0.14200000000E+01 0. -1.
         -4   -1    0    0    0  501 -0.00000000000E+00 -0.00000000000E+00 -0.42945108492E+02  0.42968578559E+02  0.14200000000E+01 0.  1.
         25    2    1    2    0    0  0.00000000000E+00  0.00000000000E+00  0.47957762645E+02  0.13388253998E+03  0.12499835004E+03 0.  0.
        -11    1    3    3    0    0  0.21361251694E+02  0.42611140366E+02 -0.19318692852E+02  0.51431743612E+02  0.51100000000E-03 0.  1.
         11    1    3    3    0    0 -0.21361251694E+02 -0.42611140366E+02  0.67276455497E+02  0.82450796368E+02  0.51100000000E-03 0. -1.
<mgrwt>
<rscale>  0 0.12499835E+03</rscale>
<asrwt>0</asrwt>
<pdfrwt beam="1">  1        4 0.13987716E-01 0.12499835E+03</pdfrwt>
<pdfrwt beam="2">  1       -4 0.66095983E-02 0.12499835E+03</pdfrwt>
<totfact> 0.10262060E+04</totfact>
</mgrwt>
</event>
<event>
 5    1  0.3296574E-054  0.1249955E+03  0.7818608E-02  0.1235076E+00
          4   -1    0    0  501    0  0.00000000000E+00  0.00000000000E+00  0.28357300120E+02  0.28392831315E+02  0.14200000000E+01 0. -1.
         -4   -1    0    0    0  501 -0.00000000000E+00 -0.00000000000E+00 -0.13761585450E+03  0.13762318050E+03  0.14200000000E+01 0.  1.
         25    2    1    2    0    0  0.00000000000E+00  0.00000000000E+00 -0.10925855438E+03  0.16601601181E+03  0.12499553781E+03 0.  0.
        -11    1    3    3    0    0 -0.58595768335E+02  0.18585967613E+02 -0.39657442190E+02  0.73154733136E+02  0.51100000000E-03 0. -1.
         11    1    3    3    0    0  0.58595768335E+02 -0.18585967613E+02 -0.69601112194E+02  0.92861278679E+02  0.51100000000E-03 0.  1.
<mgrwt>
<rscale>  0 0.12499554E+03</rscale>
<asrwt>0</asrwt>
<pdfrwt beam="1">  1        4 0.43659583E-02 0.12499554E+03</pdfrwt>
<pdfrwt beam="2">  1       -4 0.21174966E-01 0.12499554E+03</pdfrwt>
<totfact> 0.96204964E+03</totfact>
</mgrwt>
</event>
<event>
 5    1  0.3296574E-054  0.1250014E+03  0.7818608E-02  0.1235067E+00
          4   -1    0    0  501    0  0.00000000000E+00  0.00000000000E+00  0.92292352195E+01  0.93378360843E+01  0.14200000000E+01 0. -1.
         -4   -1    0    0    0  501 -0.00000000000E+00 -0.00000000000E+00 -0.42067114126E+03  0.42067353790E+03  0.14200000000E+01 0.  1.
         25    2    1    2    0    0  0.00000000000E+00  0.00000000000E+00 -0.41144190604E+03  0.43001137398E+03  0.12500135883E+03 0.  0.
        -11    1    3    3    0    0  0.56793399331E+02 -0.24589468866E+02 -0.23575061913E+03  0.24373856201E+03  0.51100000000E-03 0.  1.
         11    1    3    3    0    0 -0.56793399331E+02  0.24589468866E+02 -0.17569128690E+03  0.18627281198E+03  0.51100000000E-03 0. -1.
<mgrwt>
<rscale>  0 0.12500136E+03</rscale>
<asrwt>0</asrwt>
<pdfrwt beam="1">  1        4 0.14284209E-02 0.12500136E+03</pdfrwt>
<pdfrwt beam="2">  1       -4 0.64727160E-01 0.12500136E+03</pdfrwt>
<totfact> 0.61733118E+03</totfact>
</mgrwt>
</event>
<event>
 5    1  0.3296574E-054  0.1250008E+03  0.7818608E-02  0.1235068E+00
          4   -1    0    0  501    0  0.00000000000E+00  0.00000000000E+00  0.13468900821E+03  0.13469649339E+03  0.14200000000E+01 0. -1.
         -4   -1    0    0    0  501 -0.00000000000E+00 -0.00000000000E+00 -0.28976688936E+02  0.29011461557E+02  0.14200000000E+01 0.  1.
         25    2    1    2    0    0  0.00000000000E+00  0.00000000000E+00  0.10571231927E+03  0.16370795495E+03  0.12500080027E+03 0.  0.
        -11    1    3    3    0    0 -0.59492565463E+02 -0.18131677832E+02  0.44764129478E+02  0.76628652439E+02  0.51100000000E-03 0.  1.
         11    1    3    3    0    0  0.59492565463E+02  0.18131677832E+02  0.60948189795E+02  0.87079302512E+02  0.51100000000E-03 0. -1.
<mgrwt>
<rscale>  0 0.12500080E+03</rscale>
<asrwt>0</asrwt>
<pdfrwt beam="1">  1        4 0.20724637E-01 0.12500080E+03</pdfrwt>
<pdfrwt beam="2">  1       -4 0.44612027E-02 0.12500080E+03</pdfrwt>
<totfact> 0.96630908E+03</totfact>
</mgrwt>
</event>
<event>
 5    1  0.3296574E-054  0.1250022E+03  0.7818608E-02  0.1235066E+00
         -4   -1    0    0    0  501 -0.00000000000E+00  0.00000000000E+00  0.77952453002E+02  0.77965385455E+02  0.14200000000E+01 0.  1.
          4   -1    0    0  501    0  0.00000000000E+00 -0.00000000000E+00 -0.50085277362E+02  0.50105402987E+02  0.14200000000E+01 0. -1.
         25    2    1    2    0    0  0.00000000000E+00  0.00000000000E+00  0.27867175640E+02  0.12807078844E+03  0.12500218948E+03 0.  0.
        -11    1    3    3    0    0 -0.16234920939E+02  0.48197416617E+02  0.51154785636E+02  0.72134428120E+02  0.51100000000E-03 0.  1.
         11    1    3    3    0    0  0.16234920939E+02 -0.48197416617E+02 -0.23287609996E+02  0.55936360322E+02  0.51100000000E-03 0. -1.
<mgrwt>
<rscale>  0 0.12500219E+03</rscale>
<asrwt>0</asrwt>
<pdfrwt beam="2">  1        4 0.77079702E-02 0.12500219E+03</pdfrwt>
<pdfrwt beam="1">  1       -4 0.11995228E-01 0.12500219E+03</pdfrwt>
<totfact> 0.10385446E+04</totfact>
</mgrwt>
</event>
<event>
 5    1  0.3296574E-054  0.1249942E+03  0.7818608E-02  0.1235078E+00
          4   -1    0    0  501    0  0.00000000000E+00  0.00000000000E+00  0.32258568253E+02  0.32289806840E+02  0.14200000000E+01 0.  1.
         -4   -1    0    0    0  501 -0.00000000000E+00 -0.00000000000E+00 -0.12098652601E+03  0.12099485888E+03  0.14200000000E+01 0. -1.
         25    2    1    2    0    0  0.00000000000E+00  0.00000000000E+00 -0.88727957754E+02  0.15328466572E+03  0.12499415289E+03 0.  0.
        -11    1    3    3    0    0 -0.22153412160E+02  0.44568395709E+02 -0.90718278384E+02  0.10347425573E+03  0.51100000000E-03 0. -1.
         11    1    3    3    0    0  0.22153412160E+02 -0.44568395709E+02  0.19903206300E+01  0.49810409985E+02  0.51100000000E-03 0.  1.
<mgrwt>
<rscale>  0 0.12499415E+03</rscale>
<asrwt>0</asrwt>
<pdfrwt beam="1">  1        4 0.49659007E-02 0.12499415E+03</pdfrwt>
<pdfrwt beam="2">  1       -4 0.18616355E-01 0.12499415E+03</pdfrwt>
<totfact> 0.98665911E+03</totfact>
</mgrwt>
</event>
<event>
 5    1  0.3296574E-054  0.1249992E+03  0.7818608E-02  0.1235070E+00
         -4   -1    0    0    0  501 -0.00000000000E+00  0.00000000000E+00  0.37100346967E+03  0.37100618715E+03  0.14200000000E+01 0.  1.
          4   -1    0    0  501    0  0.00000000000E+00 -0.00000000000E+00 -0.10478098831E+02  0.10573880797E+02  0.14200000000E+01 0. -1.
         25    2    1    2    0    0  0.00000000000E+00  0.00000000000E+00  0.36052537084E+03  0.38158006795E+03  0.12499922096E+03 0.  0.
        -11    1    3    3    0    0 -0.46749871964E+02 -0.40803748529E+02  0.20304642579E+03  0.21231662075E+03  0.51100000000E-03 0.  1.
         11    1    3    3    0    0  0.46749871964E+02  0.40803748529E+02  0.15747894505E+03  0.16926344720E+03  0.51100000000E-03 0. -1.
<mgrwt>
<rscale>  0 0.12499922E+03</rscale>
<asrwt>0</asrwt>
<pdfrwt beam="2">  1        4 0.16195925E-02 0.12499922E+03</pdfrwt>
<pdfrwt beam="1">  1       -4 0.57085019E-01 0.12499922E+03</pdfrwt>
<totfact> 0.66385748E+03</totfact>
</mgrwt>
</event>
<event>
 5    1  0.4320223E-054  0.1250007E+03  0.7818608E-02  0.1235068E+00
         -4   -1    0    0    0  501 -0.00000000000E+00  0.00000000000E+00  0.15070504063E+03  0.15071173037E+03  0.14200000000E+01 0.  1.
          4   -1    0    0  501    0  0.00000000000E+00 -0.00000000000E+00 -0.25893414153E+02  0.25932321464E+02  0.14200000000E+01 0. -1.
         25    2    1    2    0    0  0.00000000000E+00  0.00000000000E+00  0.12481162647E+03  0.17664405183E+03  0.12500071578E+03 0.  0.
        -11    1    3    3    0    0  0.34127282690E+02  0.45286831811E+02  0.99545605951E+02  0.11456393946E+03  0.51100000000E-03 0.  1.
         11    1    3    3    0    0 -0.34127282690E+02 -0.45286831811E+02  0.25266020522E+02  0.62080112375E+02  0.51100000000E-03 0. -1.
<mgrwt>
<rscale>  0 0.12500072E+03</rscale>
<asrwt>0</asrwt>
<pdfrwt beam="2">  1        4 0.39871096E-02 0.12500072E+03</pdfrwt>
<pdfrwt beam="1">  1       -4 0.23188898E-01 0.12500072E+03</pdfrwt>
<totfact> 0.94223083E+03</totfact>
</mgrwt>
</event>
<event>
 5    1  0.3296574E-054  0.1249991E+03  0.7818608E-02  0.1235071E+00
         -4   -1    0    0    0  501 -0.00000000000E+00  0.00000000000E+00  0.50649682120E+02  0.50669583567E+02  0.14200000000E+01 0.  1.
          4   -1    0    0  501    0  0.00000000000E+00 -0.00000000000E+00 -0.77080138210E+02  0.77093216994E+02  0.14200000000E+01 0. -1.
         25    2    1    2    0    0  0.00000000000E+00  0.00000000000E+00 -0.26430456090E+02  0.12776280056E+03  0.12499905679E+03 0.  0.
        -11    1    3    3    0    0 -0.59372030869E+02 -0.19155519515E+02 -0.17069419743E+02  0.64678721911E+02  0.51100000000E-03 0.  1.
         11    1    3    3    0    0  0.59372030869E+02  0.19155519515E+02 -0.93610363464E+01  0.63084078650E+02  0.51100000000E-03 0. -1.
<mgrwt>
<rscale>  0 0.12499906E+03</rscale>
<asrwt>0</asrwt>
<pdfrwt beam="2">  1        4 0.11861020E-01 0.12499906E+03</pdfrwt>
<pdfrwt beam="1">  1       -4 0.77947958E-02 0.12499906E+03</pdfrwt>
<totfact> 0.10392835E+04</totfact>
</mgrwt>
</event>
<event>
 5    1  0.3296574E-054  0.1250071E+03  0.7818608E-02  0.1235058E+00
         -4   -1    0    0    0  501 -0.00000000000E+00  0.00000000000E+00  0.37621890636E+03  0.37622158618E+03  0.14200000000E+01 0. -1.
          4   -1    0    0  501    0  0.00000000000E+00 -0.00000000000E+00 -0.10332828472E+02  0.10429944594E+02  0.14200000000E+01 0.  1.
         25    2    1    2    0    0  0.00000000000E+00  0.00000000000E+00  0.36588607789E+03  0.38665153077E+03  0.12500713681E+03 0.  0.
        -11    1    3    3    0    0  0.23100662664E+02 -0.51013474985E+02  0.26880923040E+03  0.27458043921E+03  0.51100000000E-03 0. -1.
         11    1    3    3    0    0 -0.23100662664E+02  0.51013474985E+02  0.97076847486E+02  0.11207109156E+03  0.51100000000E-03 0.  1.
<mgrwt>
<rscale>  0 0.12500714E+03</rscale>
<asrwt>0</asrwt>
<pdfrwt beam="2">  1        4 0.15973426E-02 0.12500714E+03</pdfrwt>
<pdfrwt beam="1">  1       -4 0.57887506E-01 0.12500714E+03</pdfrwt>
<totfact> 0.65861701E+03</totfact>
</mgrwt>
</event>
<event>
 5    1  0.3296574E-054  0.1250240E+03  0.7818608E-02  0.1235032E+00
          4   -1    0    0  501    0  0.00000000000E+00  0.00000000000E+00  0.82514469080E+01  0.83727400578E+01  0.14200000000E+01 0.  1.
         -4   -1    0    0    0  501 -0.00000000000E+00 -0.00000000000E+00 -0.47000607522E+03  0.47000822030E+03  0.14200000000E+01 0. -1.
         25    2    1    2    0    0  0.00000000000E+00  0.00000000000E+00 -0.46175462832E+03  0.47838096036E+03  0.12502402353E+03 0.  0.
        -11    1    3    3    0    0  0.49360861958E+02 -0.33875306730E+02 -0.16203340441E+03  0.17273926955E+03  0.51100000000E-03 0. -1.
         11    1    3    3    0    0 -0.49360861958E+02  0.33875306730E+02 -0.29972122390E+03  0.30564169080E+03  0.51100000000E-03 0.  1.
<mgrwt>
<rscale>  0 0.12502402E+03</rscale>
<asrwt>0</asrwt>
<pdfrwt beam="1">  1        4 0.12789490E-02 0.12502402E+03</pdfrwt>
<pdfrwt beam="2">  1       -4 0.72318101E-01 0.12502402E+03</pdfrwt>
<totfact> 0.57551221E+03</totfact>
</mgrwt>
</event>
<event>
 5    1  0.3296574E-054  0.1250012E+03  0.7818608E-02  0.1235067E+00
          4   -1    0    0  501    0  0.00000000000E+00  0.00000000000E+00  0.24565439227E+03  0.24565849637E+03  0.14200000000E+01 0. -1.
         -4   -1    0    0    0  501 -0.00000000000E+00 -0.00000000000E+00 -0.15865752127E+02  0.15929171057E+02  0.14200000000E+01 0.  1.
         25    2    1    2    0    0  0.00000000000E+00  0.00000000000E+00  0.22978864014E+03  0.26158766743E+03  0.12500115445E+03 0.  0.
        -11    1    3    3    0    0 -0.33860187303E+02  0.40692764203E+02  0.45364702428E+02  0.69716350803E+02  0.51100000000E-03 0.  1.
         11    1    3    3    0    0  0.33860187303E+02 -0.40692764203E+02  0.18442393771E+03  0.19187131662E+03  0.51100000000E-03 0. -1.
<mgrwt>
<rscale>  0 0.12500115E+03</rscale>
<asrwt>0</asrwt>
<pdfrwt beam="1">  1        4 0.37798177E-01 0.12500115E+03</pdfrwt>
<pdfrwt beam="2">  1       -4 0.24460791E-02 0.12500115E+03</pdfrwt>
<totfact> 0.80681696E+03</totfact>
</mgrwt>
</event>
<event>
 5    1  0.3296574E-054  0.1250015E+03  0.7818608E-02  0.1235067E+00
         -4   -1    0    0    0  501 -0.00000000000E+00  0.00000000000E+00  0.93718496808E+01  0.94788167215E+01  0.14200000000E+01 0.  1.
          4   -1    0    0  501    0  0.00000000000E+00 -0.00000000000E+00 -0.41434306727E+03  0.41434550052E+03  0.14200000000E+01 0. -1.
         25    2    1    2    0    0  0.00000000000E+00  0.00000000000E+00 -0.40497121759E+03  0.42382431724E+03  0.12500145920E+03 0.  0.
        -11    1    3    3    0    0  0.45737931400E+02 -0.42164046454E+02 -0.22299104450E+03  0.23150544509E+03  0.51100000000E-03 0.  1.
         11    1    3    3    0    0 -0.45737931400E+02  0.42164046454E+02 -0.18198017310E+03  0.19231887214E+03  0.51100000000E-03 0. -1.
<mgrwt>
<rscale>  0 0.12500146E+03</rscale>
<asrwt>0</asrwt>
<pdfrwt beam="2">  1        4 0.63753489E-01 0.12500146E+03</pdfrwt>
<pdfrwt beam="1">  1       -4 0.14502388E-02 0.12500146E+03</pdfrwt>
<totfact> 0.62297798E+03</totfact>
</mgrwt>
</event>
<event>
 5    1  0.3296574E-054  0.1249994E+03  0.7818608E-02  0.1235070E+00
         -4   -1    0    0    0  501 -0.00000000000E+00  0.00000000000E+00  0.12704825543E+02  0.12783934922E+02  0.14200000000E+01 0.  1.
          4   -1    0    0  501    0  0.00000000000E+00 -0.00000000000E+00 -0.30642387294E+03  0.30642716314E+03  0.14200000000E+01 0. -1.
         25    2    1    2    0    0  0.00000000000E+00  0.00000000000E+00 -0.29371904740E+03  0.31921109806E+03  0.12499938528E+03 0.  0.
        -11    1    3    3    0    0 -0.60701018217E+02  0.13593544742E+02 -0.13136516130E+03  0.14534855925E+03  0.51100000000E-03 0.  1.
         11    1    3    3    0    0  0.60701018217E+02 -0.13593544742E+02 -0.16235388609E+03  0.17386253881E+03  0.51100000000E-03 0. -1.
<mgrwt>
<rscale>  0 0.12499939E+03</rscale>
<asrwt>0</asrwt>
<pdfrwt beam="2">  1        4 0.47148467E-01 0.12499939E+03</pdfrwt>
<pdfrwt beam="1">  1       -4 0.19609272E-02 0.12499939E+03</pdfrwt>
<totfact> 0.73251053E+03</totfact>
</mgrwt>
</event>
<event>
 5    1  0.3296574E-054  0.1250021E+03  0.7818608E-02  0.1235066E+00
         -4   -1    0    0    0  501 -0.00000000000E+00  0.00000000000E+00  0.67162552047E+02  0.67177561711E+02  0.14200000000E+01 0.  1.
          4   -1    0    0  501    0  0.00000000000E+00 -0.00000000000E+00 -0.58132887212E+02  0.58150227649E+02  0.14200000000E+01 0. -1.
         25    2    1    2    0    0  0.00000000000E+00  0.00000000000E+00  0.90296648350E+01  0.12532778936E+03  0.12500207974E+03 0.  0.
        -11    1    3    3    0    0  0.26268409238E+02  0.41873882941E+02  0.42862742818E+02  0.65426799697E+02  0.51100000000E-03 0.  1.
         11    1    3    3    0    0 -0.26268409238E+02 -0.41873882941E+02 -0.33833077983E+02  0.59900989663E+02  0.51100000000E-03 0. -1.
<mgrwt>
<rscale>  0 0.12500208E+03</rscale>
<asrwt>0</asrwt>
<pdfrwt beam="2">  1        4 0.89460096E-02 0.12500208E+03</pdfrwt>
<pdfrwt beam="1">  1       -4 0.10335189E-01 0.12500208E+03</pdfrwt>
<totfact> 0.10445256E+04</totfact>
</mgrwt>
</event>
<event>
 5    1  0.3296574E-054  0.1249974E+03  0.7818608E-02  0.1235073E+00
         -4   -1    0    0    0  501 -0.00000000000E+00  0.00000000000E+00  0.16100592249E+03  0.16101218425E+03  0.14200000000E+01 0. -1.
          4   -1    0    0  501    0  0.00000000000E+00 -0.00000000000E+00 -0.24232987576E+02  0.24274556368E+02  0.14200000000E+01 0.  1.
         25    2    1    2    0    0  0.00000000000E+00  0.00000000000E+00  0.13677293491E+03  0.18528674062E+03  0.12499736207E+03 0.  0.
        -11    1    3    3    0    0  0.42965123716E+02  0.37879495404E+02  0.10545132983E+03  0.12000350407E+03  0.51100000000E-03 0. -1.
         11    1    3    3    0    0 -0.42965123716E+02 -0.37879495404E+02  0.31321605087E+02  0.65283236542E+02  0.51100000000E-03 0.  1.
<mgrwt>
<rscale>  0 0.12499736E+03</rscale>
<asrwt>0</asrwt>
<pdfrwt beam="2">  1        4 0.37318312E-02 0.12499736E+03</pdfrwt>
<pdfrwt beam="1">  1       -4 0.24773821E-01 0.12499736E+03</pdfrwt>
<totfact> 0.92679414E+03</totfact>
</mgrwt>
</event>
<event>
 5    1  0.3296574E-054  0.1250017E+03  0.7818608E-02  0.1235067E+00
         -4   -1    0    0    0  501 -0.00000000000E+00  0.00000000000E+00  0.17590550227E+03  0.17591123367E+03  0.14200000000E+01 0.  1.
          4   -1    0    0  501    0  0.00000000000E+00 -0.00000000000E+00 -0.22178318688E+02  0.22223731006E+02  0.14200000000E+01 0. -1.
         25    2    1    2    0    0  0.00000000000E+00  0.00000000000E+00  0.15372718359E+03  0.19813496467E+03  0.12500166900E+03 0.  0.
        -11    1    3    3    0    0  0.58980074067E+02 -0.17572809251E+02  0.94147385333E+02  0.11247747742E+03  0.51100000000E-03 0.  1.
         11    1    3    3    0    0 -0.58980074067E+02  0.17572809251E+02  0.59579798253E+02  0.85657487251E+02  0.51100000000E-03 0. -1.
<mgrwt>
<rscale>  0 0.12500167E+03</rscale>
<asrwt>0</asrwt>
<pdfrwt beam="2">  1        4 0.34159832E-02 0.12500167E+03</pdfrwt>
<pdfrwt beam="1">  1       -4 0.27066319E-01 0.12500167E+03</pdfrwt>
<totfact> 0.90447428E+03</totfact>
</mgrwt>
</event>
<event>
 5    1  0.3296574E-054  0.1250373E+03  0.7818608E-02  0.1235011E+00
          4   -1    0    0  501    0  0.00000000000E+00  0.00000000000E+00  0.54796509202E+02  0.54814905097E+02  0.14200000000E+01 0. -1.
         -4   -1    0    0    0  501 -0.00000000000E+00 -0.00000000000E+00 -0.71291623165E+02  0.71305763677E+02  0.14200000000E+01 0.  1.
         25    2    1    2    0    0  0.00000000000E+00  0.00000000000E+00 -0.16495113963E+02  0.12612066877E+03  0.12503733165E+03 0.  0.
        -11    1    3    3    0    0 -0.16936879811E+02 -0.20130368274E+02 -0.65453076949E+02  0.70542149860E+02  0.51100000000E-03 0.  1.
         11    1    3    3    0    0  0.16936879811E+02  0.20130368274E+02  0.48957962986E+02  0.55578518913E+02  0.51100000000E-03 0. -1.
<mgrwt>
<rscale>  0 0.12503733E+03</rscale>
<asrwt>0</asrwt>
<pdfrwt beam="1">  1        4 0.84327350E-02 0.12503733E+03</pdfrwt>
<pdfrwt beam="2">  1       -4 0.10970445E-01 0.12503733E+03</pdfrwt>
<totfact> 0.10419533E+04</totfact>
</mgrwt>
</event>
<event>
 5    1  0.3296574E-054  0.1249991E+03  0.7818608E-02  0.1235071E+00
          4   -1    0    0  501    0  0.00000000000E+00  0.00000000000E+00  0.20053937714E+02  0.20104149269E+02  0.14200000000E+01 0. -1.
         -4   -1    0    0    0  501 -0.00000000000E+00 -0.00000000000E+00 -0.19448796086E+03  0.19449314466E+03  0.14200000000E+01 0.  1.
         25    2    1    2    0    0  0.00000000000E+00  0.00000000000E+00 -0.17443402315E+03  0.21459729393E+03  0.12499908052E+03 0.  0.
        -11    1    3    3    0    0  0.15241642039E+02 -0.57071787407E+02 -0.12226209265E+03  0.13578481457E+03  0.51100000000E-03 0.  1.
         11    1    3    3    0    0 -0.15241642039E+02  0.57071787407E+02 -0.52171930500E+02  0.78812479356E+02  0.51100000000E-03 0. -1.
<mgrwt>
<rscale>  0 0.12499908E+03</rscale>
<asrwt>0</asrwt>
<pdfrwt beam="1">  1        4 0.30894825E-02 0.12499908E+03</pdfrwt>
<pdfrwt beam="2">  1       -4 0.29925485E-01 0.12499908E+03</pdfrwt>
<totfact> 0.87732347E+03</totfact>
</mgrwt>
</event>
<event>
 5    1  0.3296574E-054  0.1249895E+03  0.7818608E-02  0.1235086E+00
         -4   -1    0    0    0  501 -0.00000000000E+00  0.00000000000E+00  0.23853735697E+03  0.23854158353E+03  0.14200000000E+01 0. -1.
          4   -1    0    0  501    0  0.00000000000E+00 -0.00000000000E+00 -0.16337930240E+02  0.16399523302E+02  0.14200000000E+01 0.  1.
         25    2    1    2    0    0  0.00000000000E+00  0.00000000000E+00  0.22219942673E+03  0.25494110683E+03  0.12498953041E+03 0.  0.
        -11    1    3    3    0    0  0.29874592074E+02 -0.51284783822E+02  0.15101613995E+03  0.16226057694E+03  0.51100000000E-03 0. -1.
         11    1    3    3    0    0 -0.29874592074E+02  0.51284783822E+02  0.71183286783E+02  0.92680529890E+02  0.51100000000E-03 0.  1.
<mgrwt>
<rscale>  0 0.12498953E+03</rscale>
<asrwt>0</asrwt>
<pdfrwt beam="2">  1        4 0.25185908E-02 0.12498953E+03</pdfrwt>
<pdfrwt beam="1">  1       -4 0.36703117E-01 0.12498953E+03</pdfrwt>
<totfact> 0.81640320E+03</totfact>
</mgrwt>
</event>
<event>
 5    1  0.3296574E-054  0.1249956E+03  0.7818608E-02  0.1235076E+00
         -4   -1    0    0    0  501 -0.00000000000E+00  0.00000000000E+00  0.10156982419E+03  0.10157974988E+03  0.14200000000E+01 0.  1.
          4   -1    0    0  501    0  0.00000000000E+00 -0.00000000000E+00 -0.38431158677E+02  0.38457383651E+02  0.14200000000E+01 0. -1.
         25    2    1    2    0    0  0.00000000000E+00  0.00000000000E+00  0.63138665510E+02  0.14003713353E+03  0.12499563066E+03 0.  0.
        -11    1    3    3    0    0 -0.21027521589E+02  0.39861645487E+02  0.80079625962E+02  0.91890445312E+02  0.51100000000E-03 0.  1.
         11    1    3    3    0    0  0.21027521589E+02 -0.39861645487E+02 -0.16940960452E+02  0.48146688218E+02  0.51100000000E-03 0. -1.
<mgrwt>
<rscale>  0 0.12499563E+03</rscale>
<asrwt>0</asrwt>
<pdfrwt beam="2">  1        4 0.59152669E-02 0.12499563E+03</pdfrwt>
<pdfrwt beam="1">  1       -4 0.15628907E-01 0.12499563E+03</pdfrwt>
<totfact> 0.10133814E+04</totfact>
</mgrwt>
</event>
<event>
 5    1  0.3296574E-054  0.1250051E+03  0.7818608E-02  0.1235061E+00
          4   -1    0    0  501    0  0.00000000000E+00  0.00000000000E+00  0.13217881836E+02  0.13293938477E+02  0.14200000000E+01 0. -1.
         -4   -1    0    0    0  501 -0.00000000000E+00 -0.00000000000E+00 -0.29462615256E+03  0.29462957450E+03  0.14200000000E+01 0.  1.
         25    2    1    2    0    0  0.00000000000E+00  0.00000000000E+00 -0.28140827072E+03  0.30792351298E+03  0.12500509995E+03 0.  0.
        -11    1    3    3    0    0  0.37764827025E+02  0.47293608407E+02 -0.17915835054E+03  0.18910468562E+03  0.51100000000E-03 0.  1.
         11    1    3    3    0    0 -0.37764827025E+02 -0.47293608407E+02 -0.10224992018E+03  0.11881882736E+03  0.51100000000E-03 0. -1.
<mgrwt>
<rscale>  0 0.12500510E+03</rscale>
<asrwt>0</asrwt>
<pdfrwt beam="1">  1        4 0.20396342E-02 0.12500510E+03</pdfrwt>
<pdfrwt beam="2">  1       -4 0.45333209E-01 0.12500510E+03</pdfrwt>
<totfact> 0.74607116E+03</totfact>
</mgrwt>
</event>
<event>
 5    1  0.3296574E-054  0.1249987E+03  0.7818608E-02  0.1235071E+00
         -4   -1    0    0    0  501 -0.00000000000E+00  0.00000000000E+00  0.74777411736E+01  0.76113739271E+01  0.14200000000E+01 0.  1.
          4   -1    0    0  501    0  0.00000000000E+00 -0.00000000000E+00 -0.51761198692E+03  0.51761393470E+03  0.14200000000E+01 0. -1.
         25    2    1    2    0    0  0.00000000000E+00  0.00000000000E+00 -0.51013424574E+03  0.52522530863E+03  0.12499870458E+03 0.  0.
        -11    1    3    3    0    0  0.45342898253E+02  0.42987043735E+02 -0.26144602518E+03  0.26880827448E+03  0.51100000000E-03 0.  1.
         11    1    3    3    0    0 -0.45342898253E+02 -0.42987043735E+02 -0.24868822057E+03  0.25641703415E+03  0.51100000000E-03 0. -1.
<mgrwt>
<rscale>  0 0.12499870E+03</rscale>
<asrwt>0</asrwt>
<pdfrwt beam="2">  1        4 0.79643015E-01 0.12499870E+03</pdfrwt>
<pdfrwt beam="1">  1       -4 0.11608514E-02 0.12499870E+03</pdfrwt>
<totfact> 0.53960515E+03</totfact>
</mgrwt>
</event>
<event>
 5    1  0.3296574E-054  0.1250029E+03  0.7818608E-02  0.1235065E+00
         -4   -1    0    0    0  501 -0.00000000000E+00  0.00000000000E+00  0.16676223121E+03  0.16676827683E+03  0.14200000000E+01 0.  1.
          4   -1    0    0  501    0  0.00000000000E+00 -0.00000000000E+00 -0.23397161658E+02  0.23440212748E+02  0.14200000000E+01 0. -1.
         25    2    1    2    0    0  0.00000000000E+00  0.00000000000E+00  0.14336506955E+03  0.19020848958E+03  0.12500290533E+03 0.  0.
        -11    1    3    3    0    0 -0.50374482341E+02  0.12201171155E+02  0.12483032019E+03  0.13516310846E+03  0.51100000000E-03 0.  1.
         11    1    3    3    0    0  0.50374482341E+02 -0.12201171155E+02  0.18534749357E+02  0.55045381121E+02  0.51100000000E-03 0. -1.
<mgrwt>
<rscale>  0 0.12500291E+03</rscale>
<asrwt>0</asrwt>
<pdfrwt beam="2">  1        4 0.36033400E-02 0.12500291E+03</pdfrwt>
<pdfrwt beam="1">  1       -4 0.25659504E-01 0.12500291E+03</pdfrwt>
<totfact> 0.91805076E+03</totfact>
</mgrwt>
</event>
<event>
 5    1  0.3296574E-054  0.1250008E+03  0.7818608E-02  0.1235068E+00
         -4   -1    0    0    0  501 -0.00000000000E+00  0.00000000000E+00  0.85267234061E+01  0.86441547906E+01  0.14200000000E+01 0.  1.
          4   -1    0    0  501    0  0.00000000000E+00 -0.00000000000E+00 -0.45487241252E+03  0.45487462896E+03  0.14200000000E+01 0. -1.
         25    2    1    2    0    0  0.00000000000E+00  0.00000000000E+00 -0.44634568911E+03  0.46351878375E+03  0.12500075479E+03 0.  0.
        -11    1    3    3    0    0  0.25744023398E+02 -0.56630586892E+02 -0.24558143351E+03  0.25333775597E+03  0.51100000000E-03 0.  1.
         11    1    3    3    0    0 -0.25744023398E+02  0.56630586892E+02 -0.20076425559E+03  0.21018102778E+03  0.51100000000E-03 0. -1.
<mgrwt>
<rscale>  0 0.12500075E+03</rscale>
<asrwt>0</asrwt>
<pdfrwt beam="2">  1        4 0.69989556E-01 0.12500075E+03</pdfrwt>
<pdfrwt beam="1">  1       -4 0.13210076E-02 0.12500075E+03</pdfrwt>
<totfact> 0.58809327E+03</totfact>
</mgrwt>
</event>
<event>
 5    1  0.3296574E-054  0.1250021E+03  0.7818608E-02  0.1235066E+00
          4   -1    0    0  501    0  0.00000000000E+00  0.00000000000E+00  0.22895580626E+03  0.22896020969E+03  0.14200000000E+01 0. -1.
         -4   -1    0    0    0  501 -0.00000000000E+00 -0.00000000000E+00 -0.17027609773E+02  0.17086716905E+02  0.14200000000E+01 0.  1.
         25    2    1    2    0    0  0.00000000000E+00  0.00000000000E+00  0.21192819649E+03  0.24604692660E+03  0.12500211846E+03 0.  0.
        -11    1    3    3    0    0 -0.43815944062E+02  0.37864463052E+02  0.59683864561E+02  0.83160797288E+02  0.51100000000E-03 0.  1.
         11    1    3    3    0    0  0.43815944062E+02 -0.37864463052E+02  0.15224433193E+03  0.16288612931E+03  0.51100000000E-03 0. -1.
<mgrwt>
<rscale>  0 0.12500212E+03</rscale>
<asrwt>0</asrwt>
<pdfrwt beam="1">  1        4 0.35228854E-01 0.12500212E+03</pdfrwt>
<pdfrwt beam="2">  1       -4 0.26245178E-02 0.12500212E+03</pdfrwt>
<totfact> 0.82901035E+03</totfact>
</mgrwt>
</event>
<event>
 5    1  0.3296574E-054  0.1249990E+03  0.7818608E-02  0.1235071E+00
         -4   -1    0    0    0  501 -0.00000000000E+00  0.00000000000E+00  0.10025926029E+03  0.10026931571E+03  0.14200000000E+01 0.  1.
          4   -1    0    0  501    0  0.00000000000E+00 -0.00000000000E+00 -0.38935942584E+02  0.38961827792E+02  0.14200000000E+01 0. -1.
         25    2    1    2    0    0  0.00000000000E+00  0.00000000000E+00  0.61323317705E+02  0.13923114351E+03  0.12499904811E+03 0.  0.
        -11    1    3    3    0    0 -0.14380549737E+01 -0.60306842303E+02  0.48869305817E+02  0.77634993926E+02  0.51100000000E-03 0.  1.
         11    1    3    3    0    0  0.14380549737E+01  0.60306842303E+02  0.12454011888E+02  0.61596149580E+02  0.51100000000E-03 0. -1.
<mgrwt>
<rscale>  0 0.12499905E+03</rscale>
<asrwt>0</asrwt>
<pdfrwt beam="2">  1        4 0.59929096E-02 0.12499905E+03</pdfrwt>
<pdfrwt beam="1">  1       -4 0.15427266E-01 0.12499905E+03</pdfrwt>
<totfact> 0.10149763E+04</totfact>
</mgrwt>
</event>
<event>
 5    1  0.3296574E-054  0.1249974E+03  0.7818608E-02  0.1235073E+00
          4   -1    0    0  501    0  0.00000000000E+00  0.00000000000E+00  0.64551955072E+02  0.64567571610E+02  0.14200000000E+01 0. -1.
         -4   -1    0    0    0  501 -0.00000000000E+00 -0.00000000000E+00 -0.60479529592E+02  0.60496197399E+02  0.14200000000E+01 0.  1.
         25    2    1    2    0    0  0.00000000000E+00  0.00000000000E+00  0.40724254802E+01  0.12506376901E+03  0.12499744665E+03 0.  0.
        -11    1    3    3    0    0 -0.46990461433E+02 -0.41173867241E+02  0.39229262558E+00  0.62478353876E+02  0.51100000000E-03 0.  1.
         11    1    3    3    0    0  0.46990461433E+02  0.41173867241E+02  0.36801328546E+01  0.62585415133E+02  0.51100000000E-03 0. -1.
<mgrwt>
<rscale>  0 0.12499745E+03</rscale>
<asrwt>0</asrwt>
<pdfrwt beam="1">  1        4 0.99335533E-02 0.12499745E+03</pdfrwt>
<pdfrwt beam="2">  1       -4 0.93070265E-02 0.12499745E+03</pdfrwt>
<totfact> 0.10452081E+04</totfact>
</mgrwt>
</event>
<event>
 5    1  0.3296574E-054  0.1250071E+03  0.7818608E-02  0.1235058E+00
          4   -1    0    0  501    0  0.00000000000E+00  0.00000000000E+00  0.11283461364E+03  0.11284354849E+03  0.14200000000E+01 0. -1.
         -4   -1    0    0    0  501 -0.00000000000E+00 -0.00000000000E+00 -0.34598335976E+02  0.34627463844E+02  0.14200000000E+01 0.  1.
         25    2    1    2    0    0  0.00000000000E+00  0.00000000000E+00  0.78236277664E+02  0.14747101233E+03  0.12500713714E+03 0.  0.
        -11    1    3    3    0    0  0.36275265235E+02 -0.50052273490E+02  0.50030921251E+02  0.79524952254E+02  0.51100000000E-03 0.  1.
         11    1    3    3    0    0 -0.36275265235E+02  0.50052273490E+02  0.28205356413E+02  0.67946060078E+02  0.51100000000E-03 0. -1.
<mgrwt>
<rscale>  0 0.12500714E+03</rscale>
<asrwt>0</asrwt>
<pdfrwt beam="1">  1        4 0.17362099E-01 0.12500714E+03</pdfrwt>
<pdfrwt beam="2">  1       -4 0.53257488E-02 0.12500714E+03</pdfrwt>
<totfact> 0.99794188E+03</totfact>
</mgrwt>
</event>
<event>
 5    1  0.3296574E-054  0.1250172E+03  0.7818608E-02  0.1235042E+00
          4   -1    0    0  501    0  0.00000000000E+00  0.00000000000E+00  0.12496266864E+02  0.12576688179E+02  0.14200000000E+01 0.  1.
         -4   -1    0    0    0  501 -0.00000000000E+00 -0.00000000000E+00 -0.31159446777E+03  0.31159770337E+03  0.14200000000E+01 0. -1.
         25    2    1    2    0    0  0.00000000000E+00  0.00000000000E+00 -0.29909820090E+03  0.32417439155E+03  0.12501720822E+03 0.  0.
        -11    1    3    3    0    0 -0.37545305911E+02 -0.49873973887E+02 -0.15785586091E+03  0.16975139496E+03  0.51100000000E-03 0. -1.
         11    1    3    3    0    0  0.37545305911E+02  0.49873973887E+02 -0.14124234000E+03  0.15442299659E+03  0.51100000000E-03 0.  1.
<mgrwt>
<rscale>  0 0.12501721E+03</rscale>
<asrwt>0</asrwt>
<pdfrwt beam="1">  1        4 0.19289380E-02 0.12501721E+03</pdfrwt>
<pdfrwt beam="2">  1       -4 0.47944040E-01 0.12501721E+03</pdfrwt>
<totfact> 0.72634671E+03</totfact>
</mgrwt>
</event>
<event>
 5    1  0.3296574E-054  0.1249997E+03  0.7818608E-02  0.1235070E+00
          4   -1    0    0  501    0  0.00000000000E+00  0.00000000000E+00  0.82900189857E+02  0.82912350577E+02  0.14200000000E+01 0. -1.
         -4   -1    0    0    0  501 -0.00000000000E+00 -0.00000000000E+00 -0.47093374049E+02  0.47114777717E+02  0.14200000000E+01 0.  1.
         25    2    1    2    0    0  0.00000000000E+00  0.00000000000E+00  0.35806815807E+02  0.13002712829E+03  0.12499970414E+03 0.  0.
        -11    1    3    3    0    0 -0.53581874285E+02  0.30962675971E+02  0.27003215234E+02  0.67519465256E+02  0.51100000000E-03 0.  1.
         11    1    3    3    0    0  0.53581874285E+02 -0.30962675971E+02  0.88036005729E+01  0.62507663038E+02  0.51100000000E-03 0. -1.
<mgrwt>
<rscale>  0 0.12499970E+03</rscale>
<asrwt>0</asrwt>
<pdfrwt beam="1">  1        4 0.12756457E-01 0.12499970E+03</pdfrwt>
<pdfrwt beam="2">  1       -4 0.72477164E-02 0.12499970E+03</pdfrwt>
<totfact> 0.10343996E+04</totfact>
</mgrwt>
</event>
<event>
 5    1  0.3296574E-054  0.1249984E+03  0.7818608E-02  0.1235072E+00
          4   -1    0    0  501    0  0.00000000000E+00  0.00000000000E+00  0.33495268161E+02  0.33525354423E+02  0.14200000000E+01 0. -1.
         -4   -1    0    0    0  501 -0.00000000000E+00 -0.00000000000E+00 -0.11653118099E+03  0.11653983243E+03  0.14200000000E+01 0.  1.
         25    2    1    2    0    0  0.00000000000E+00  0.00000000000E+00 -0.83035912824E+02  0.15006518685E+03  0.12499838993E+03 0.  0.
        -11    1    3    3    0    0  0.47003944870E+02 -0.37247842057E+02 -0.62634333348E+02  0.86716966538E+02  0.51100000000E-03 0.  1.
         11    1    3    3    0    0 -0.47003944870E+02  0.37247842057E+02 -0.20401579476E+02  0.63348220311E+02  0.51100000000E-03 0. -1.
<mgrwt>
<rscale>  0 0.12499839E+03</rscale>
<asrwt>0</asrwt>
<pdfrwt beam="1">  1        4 0.51560980E-02 0.12499839E+03</pdfrwt>
<pdfrwt beam="2">  1       -4 0.17930854E-01 0.12499839E+03</pdfrwt>
<totfact> 0.99294304E+03</totfact>
</mgrwt>
</event>
<event>
 5    1  0.3296574E-054  0.1250017E+03  0.7818608E-02  0.1235067E+00
          4   -1    0    0  501    0  0.00000000000E+00  0.00000000000E+00  0.29402727209E+02  0.29436996574E+02  0.14200000000E+01 0. -1.
         -4   -1    0    0    0  501 -0.00000000000E+00 -0.00000000000E+00 -0.13274156241E+03  0.13274915740E+03  0.14200000000E+01 0.  1.
         25    2    1    2    0    0  0.00000000000E+00  0.00000000000E+00 -0.10333883520E+03  0.16218615398E+03  0.12500173471E+03 0.  0.
        -11    1    3    3    0    0 -0.15320184669E+01 -0.57117056187E+02 -0.84535499135E+02  0.10203409137E+03  0.51100000000E-03 0.  1.
         11    1    3    3    0    0  0.15320184669E+01  0.57117056187E+02 -0.18803336068E+02  0.60152062605E+02  0.51100000000E-03 0. -1.
<mgrwt>
<rscale>  0 0.12500173E+03</rscale>
<asrwt>0</asrwt>
<pdfrwt beam="1">  1        4 0.45267169E-02 0.12500173E+03</pdfrwt>
<pdfrwt beam="2">  1       -4 0.20424999E-01 0.12500173E+03</pdfrwt>
<totfact> 0.96919182E+03</totfact>
</mgrwt>
</event>
<event>
 5    1  0.3296574E-054  0.1249999E+03  0.7818608E-02  0.1235069E+00
         -4   -1    0    0    0  501 -0.00000000000E+00  0.00000000000E+00  0.11114022916E+02  0.11204369923E+02  0.14200000000E+01 0.  1.
          4   -1    0    0  501    0  0.00000000000E+00 -0.00000000000E+00 -0.34995515338E+03  0.34995803431E+03  0.14200000000E+01 0. -1.
         25    2    1    2    0    0  0.00000000000E+00  0.00000000000E+00 -0.33884113046E+03  0.36116240423E+03  0.12499988214E+03 0.  0.
        -11    1    3    3    0    0 -0.61523169941E+02  0.11003634256E+02 -0.16869981654E+03  0.17990499856E+03  0.51100000000E-03 0.  1.
         11    1    3    3    0    0  0.61523169941E+02 -0.11003634256E+02 -0.17014131393E+03  0.18125740567E+03  0.51100000000E-03 0. -1.
<mgrwt>
<rscale>  0 0.12499988E+03</rscale>
<asrwt>0</asrwt>
<pdfrwt beam="2">  1        4 0.53846417E-01 0.12499988E+03</pdfrwt>
<pdfrwt beam="1">  1       -4 0.17170213E-02 0.12499988E+03</pdfrwt>
<totfact> 0.68513945E+03</totfact>
</mgrwt>
</event>
<event>
 5    1  0.3296574E-054  0.1250014E+03  0.7818608E-02  0.1235067E+00
          4   -1    0    0  501    0  0.00000000000E+00  0.00000000000E+00  0.47472682284E+03  0.47472894658E+03  0.14200000000E+01 0. -1.
         -4   -1    0    0    0  501 -0.00000000000E+00 -0.00000000000E+00 -0.81651785734E+01  0.82877343790E+01  0.14200000000E+01 0.  1.
         25    2    1    2    0    0  0.00000000000E+00  0.00000000000E+00  0.46656164427E+03  0.48301668096E+03  0.12500138474E+03 0.  0.
        -11    1    3    3    0    0 -0.58253114600E+02 -0.16216988507E+02  0.29436774084E+03  0.30051419754E+03  0.51100000000E-03 0.  1.
         11    1    3    3    0    0  0.58253114600E+02  0.16216988507E+02  0.17219390343E+03  0.18250248342E+03  0.51100000000E-03 0. -1.
<mgrwt>
<rscale>  0 0.12500138E+03</rscale>
<asrwt>0</asrwt>
<pdfrwt beam="1">  1        4 0.73044499E-01 0.12500138E+03</pdfrwt>
<pdfrwt beam="2">  1       -4 0.12657718E-02 0.12500138E+03</pdfrwt>
<totfact> 0.57204817E+03</totfact>
</mgrwt>
</event>
<event>
 5    1  0.3296574E-054  0.1250017E+03  0.7818608E-02  0.1235067E+00
          4   -1    0    0  501    0  0.00000000000E+00  0.00000000000E+00  0.38132651034E+03  0.38132915426E+03  0.14200000000E+01 0.  1.
         -4   -1    0    0    0  501 -0.00000000000E+00 -0.00000000000E+00 -0.10192221380E+02  0.10290664539E+02  0.14200000000E+01 0.  1.
         25    2    1    2    0    0  0.00000000000E+00  0.00000000000E+00  0.37113428896E+03  0.39161981880E+03  0.12500168813E+03 0.  0.
        -11    1    3    3    0    0  0.51857696493E+02 -0.34455146903E+02  0.16841384165E+03  0.17955389133E+03  0.51100000000E-03 0.  1.
         11    1    3    3    0    0 -0.51857696493E+02  0.34455146903E+02  0.20272044731E+03  0.21206592747E+03  0.51100000000E-03 0. -1.
<mgrwt>
<rscale>  0 0.12500169E+03</rscale>
<asrwt>0</asrwt>
<pdfrwt beam="1">  1        4 0.58673389E-01 0.12500169E+03</pdfrwt>
<pdfrwt beam="2">  1       -4 0.15758101E-02 0.12500169E+03</pdfrwt>
<totfact> 0.65373641E+03</totfact>
</mgrwt>
</event>
<event>
 5    1  0.3296574E-054  0.1249993E+03  0.7818608E-02  0.1235070E+00
          4   -1    0    0  501    0  0.00000000000E+00  0.00000000000E+00  0.19153390250E+02  0.19205956318E+02  0.14200000000E+01 0. -1.
         -4   -1    0    0    0  501 -0.00000000000E+00 -0.00000000000E+00 -0.20360873929E+03  0.20361369088E+03  0.14200000000E+01 0.  1.
         25    2    1    2    0    0  0.00000000000E+00  0.00000000000E+00 -0.18445534904E+03  0.22281964720E+03  0.12499927756E+03 0.  0.
        -11    1    3    3    0    0  0.47320086148E+02 -0.40715868513E+02 -0.86811383410E+02  0.10692609032E+03  0.51100000000E-03 0.  1.
         11    1    3    3    0    0 -0.47320086148E+02  0.40715868513E+02 -0.97643965627E+02  0.11589355688E+03  0.51100000000E-03 0. -1.
<mgrwt>
<rscale>  0 0.12499928E+03</rscale>
<asrwt>0</asrwt>
<pdfrwt beam="1">  1        4 0.29511000E-02 0.12499928E+03</pdfrwt>
<pdfrwt beam="2">  1       -4 0.31328844E-01 0.12499928E+03</pdfrwt>
<totfact> 0.86425529E+03</totfact>
</mgrwt>
</event>
<event>
 5    1  0.3296574E-054  0.1249992E+03  0.7818608E-02  0.1235070E+00
         -4   -1    0    0    0  501 -0.00000000000E+00  0.00000000000E+00  0.26353448097E+02  0.26391677222E+02  0.14200000000E+01 0.  1.
          4   -1    0    0  501    0  0.00000000000E+00 -0.00000000000E+00 -0.14807447349E+03  0.14808128206E+03  0.14200000000E+01 0. -1.
         25    2    1    2    0    0  0.00000000000E+00  0.00000000000E+00 -0.12172102539E+03  0.17447295929E+03  0.12499922200E+03 0.  0.
        -11    1    3    3    0    0 -0.32788133805E+02 -0.49357271985E+02 -0.88601314697E+02  0.10658984465E+03  0.51100000000E-03 0.  1.
         11    1    3    3    0    0  0.32788133805E+02  0.49357271985E+02 -0.33119710691E+02  0.67883114637E+02  0.51100000000E-03 0. -1.
<mgrwt>
<rscale>  0 0.12499922E+03</rscale>
<asrwt>0</asrwt>
<pdfrwt beam="2">  1        4 0.22784152E-01 0.12499922E+03</pdfrwt>
<pdfrwt beam="1">  1       -4 0.40578412E-02 0.12499922E+03</pdfrwt>
<totfact> 0.94623107E+03</totfact>
</mgrwt>
</event>
<event>
 5    1  0.3296574E-054  0.1250205E+03  0.7818608E-02  0.1235037E+00
         -4   -1    0    0    0  501 -0.00000000000E+00  0.00000000000E+00  0.69792483420E+01  0.71222403371E+01  0.14200000000E+01 0.  1.
          4   -1    0    0  501    0  0.00000000000E+00 -0.00000000000E+00 -0.55405695376E+03  0.55405877343E+03  0.14200000000E+01 0. -1.
         25    2    1    2    0    0  0.00000000000E+00  0.00000000000E+00 -0.54707770542E+03  0.56118101377E+03  0.12502045610E+03 0.  0.
        -11    1    3    3    0    0  0.58682795542E+02 -0.17280873746E+02 -0.21584019482E+03  0.22434190155E+03  0.51100000000E-03 0.  1.
         11    1    3    3    0    0 -0.58682795542E+02  0.17280873746E+02 -0.33123751060E+03  0.33683911222E+03  0.51100000000E-03 0. -1.
<mgrwt>
<rscale>  0 0.12502046E+03</rscale>
<asrwt>0</asrwt>
<pdfrwt beam="2">  1        4 0.85250637E-01 0.12502046E+03</pdfrwt>
<pdfrwt beam="1">  1       -4 0.10848703E-02 0.12502046E+03</pdfrwt>
<totfact> 0.51390327E+03</totfact>
</mgrwt>
</event>
<event>
 5    1  0.3296574E-054  0.1249971E+03  0.7818608E-02  0.1235074E+00
         -4   -1    0    0    0  501 -0.00000000000E+00  0.00000000000E+00  0.15983550800E+03  0.15984181561E+03  0.14200000000E+01 0.  1.
          4   -1    0    0  501    0  0.00000000000E+00 -0.00000000000E+00 -0.24410642918E+02  0.24451909694E+02  0.14200000000E+01 0. -1.
         25    2    1    2    0    0  0.00000000000E+00  0.00000000000E+00  0.13542486509E+03  0.18429372531E+03  0.12499713238E+03 0.  0.
        -11    1    3    3    0    0 -0.53167735980E+02  0.32583307370E+02  0.61528679306E+02  0.87602844964E+02  0.51100000000E-03 0.  1.
         11    1    3    3    0    0  0.53167735980E+02 -0.32583307370E+02  0.73896185780E+02  0.96690880343E+02  0.51100000000E-03 0. -1.
<mgrwt>
<rscale>  0 0.12499713E+03</rscale>
<asrwt>0</asrwt>
<pdfrwt beam="2">  1        4 0.37591431E-02 0.12499713E+03</pdfrwt>
<pdfrwt beam="1">  1       -4 0.24593738E-01 0.12499713E+03</pdfrwt>
<totfact> 0.92855746E+03</totfact>
</mgrwt>
</event>
<event>
 5    1  0.3296574E-054  0.1249996E+03  0.7818608E-02  0.1235070E+00
          4   -1    0    0  501    0  0.00000000000E+00  0.00000000000E+00  0.10407654357E+02  0.10504078694E+02  0.14200000000E+01 0. -1.
         -4   -1    0    0    0  501 -0.00000000000E+00 -0.00000000000E+00 -0.37349410148E+03  0.37349680084E+03  0.14200000000E+01 0.  1.
         25    2    1    2    0    0  0.00000000000E+00  0.00000000000E+00 -0.36308644712E+03  0.38400087954E+03  0.12499962960E+03 0.  0.
        -11    1    3    3    0    0 -0.56307129066E+02 -0.27066155666E+02 -0.18700181147E+03  0.19716172818E+03  0.51100000000E-03 0.  1.
         11    1    3    3    0    0  0.56307129066E+02  0.27066155666E+02 -0.17608463565E+03  0.18683915135E+03  0.51100000000E-03 0. -1.
<mgrwt>
<rscale>  0 0.12499963E+03</rscale>
<asrwt>0</asrwt>
<pdfrwt beam="1">  1        4 0.16088028E-02 0.12499963E+03</pdfrwt>
<pdfrwt beam="2">  1       -4 0.57468245E-01 0.12499963E+03</pdfrwt>
<totfact> 0.66139715E+03</totfact>
</mgrwt>
</event>
<event>
 5    1  0.3296574E-054  0.1250004E+03  0.7818608E-02  0.1235069E+00
          4   -1    0    0  501    0  0.00000000000E+00  0.00000000000E+00  0.13118772679E+03  0.13119541174E+03  0.14200000000E+01 0. -1.
         -4   -1    0    0    0  501 -0.00000000000E+00 -0.00000000000E+00 -0.29750752732E+02  0.29784621672E+02  0.14200000000E+01 0.  1.
         25    2    1    2    0    0  0.00000000000E+00  0.00000000000E+00  0.10143697406E+03  0.16098003341E+03  0.12500044580E+03 0.  0.
        -11    1    3    3    0    0  0.16055912975E+02 -0.54470641876E+02  0.17100432912E+02  0.59306559283E+02  0.51100000000E-03 0.  1.
         11    1    3    3    0    0 -0.16055912975E+02  0.54470641876E+02  0.84336541149E+02  0.10167347413E+03  0.51100000000E-03 0. -1.
<mgrwt>
<rscale>  0 0.12500045E+03</rscale>
<asrwt>0</asrwt>
<pdfrwt beam="1">  1        4 0.20185923E-01 0.12500045E+03</pdfrwt>
<pdfrwt beam="2">  1       -4 0.45802354E-02 0.12500045E+03</pdfrwt>
<totfact> 0.97153201E+03</totfact>
</mgrwt>
</event>
<event>
 5    1  0.3296574E-054  0.1249989E+03  0.7818608E-02  0.1235071E+00
          4   -1    0    0  501    0  0.00000000000E+00  0.00000000000E+00  0.42593525156E+03  0.42593761858E+03  0.14200000000E+01 0. -1.
         -4   -1    0    0    0  501 -0.00000000000E+00 -0.00000000000E+00 -0.91134556585E+01  0.92234198668E+01  0.14200000000E+01 0.  1.
         25    2    1    2    0    0  0.00000000000E+00  0.00000000000E+00  0.41682179590E+03  0.43516103844E+03  0.12499887937E+03 0.  0.
        -11    1    3    3    0    0  0.48402018311E+02  0.39478107166E+02  0.20070180803E+03  0.21019631792E+03  0.51100000000E-03 0.  1.
         11    1    3    3    0    0 -0.48402018311E+02 -0.39478107166E+02  0.21611998787E+03  0.22496472052E+03  0.51100000000E-03 0. -1.
<mgrwt>
<rscale>  0 0.12499888E+03</rscale>
<asrwt>0</asrwt>
<pdfrwt beam="1">  1        4 0.65537118E-01 0.12499888E+03</pdfrwt>
<pdfrwt beam="2">  1       -4 0.14107115E-02 0.12499888E+03</pdfrwt>
<totfact> 0.61272470E+03</totfact>
</mgrwt>
</event>
<event>
 5    1  0.3296574E-054  0.1250003E+03  0.7818608E-02  0.1235069E+00
          4   -1    0    0  501    0  0.00000000000E+00  0.00000000000E+00  0.48307640837E+02  0.48328506735E+02  0.14200000000E+01 0.  1.
         -4   -1    0    0    0  501 -0.00000000000E+00 -0.00000000000E+00 -0.80817752653E+02  0.80830226672E+02  0.14200000000E+01 0. -1.
         25    2    1    2    0    0  0.00000000000E+00  0.00000000000E+00 -0.32510111816E+02  0.12915873341E+03  0.12500028418E+03 0.  0.
        -11    1    3    3    0    0 -0.58287454029E+02  0.14337182788E+02 -0.34249511447E+02  0.69108690786E+02  0.51100000000E-03 0. -1.
         11    1    3    3    0    0  0.58287454029E+02 -0.14337182788E+02  0.17393996312E+01  0.60050042621E+02  0.51100000000E-03 0.  1.
<mgrwt>
<rscale>  0 0.12500028E+03</rscale>
<asrwt>0</asrwt>
<pdfrwt beam="1">  1        4 0.74345093E-02 0.12500028E+03</pdfrwt>
<pdfrwt beam="2">  1       -4 0.12436065E-01 0.12500028E+03</pdfrwt>
<totfact> 0.10362471E+04</totfact>
</mgrwt>
</event>
<event>
 5    1  0.3296574E-054  0.1249956E+03  0.7818608E-02  0.1235076E+00
          4   -1    0    0  501    0  0.00000000000E+00  0.00000000000E+00  0.15548689292E+02  0.15613396129E+02  0.14200000000E+01 0. -1.
         -4   -1    0    0    0  501 -0.00000000000E+00 -0.00000000000E+00 -0.25062100310E+03  0.25062502588E+03  0.14200000000E+01 0.  1.
         25    2    1    2    0    0  0.00000000000E+00  0.00000000000E+00 -0.23507231381E+03  0.26623842201E+03  0.12499561845E+03 0.  0.
        -11    1    3    3    0    0  0.27221519347E+02 -0.41728391374E+02 -0.19790471171E+03  0.20407975078E+03  0.51100000000E-03 0.  1.
         11    1    3    3    0    0 -0.27221519347E+02  0.41728391374E+02 -0.37167602103E+02  0.62158671227E+02  0.51100000000E-03 0. -1.
<mgrwt>
<rscale>  0 0.12499562E+03</rscale>
<asrwt>0</asrwt>
<pdfrwt beam="1">  1        4 0.23973931E-02 0.12499562E+03</pdfrwt>
<pdfrwt beam="2">  1       -4 0.38562361E-01 0.12499562E+03</pdfrwt>
<totfact> 0.80046285E+03</totfact>
</mgrwt>
</event>
<event>
 5    1  0.3296574E-054  0.1250001E+03  0.7818608E-02  0.1235069E+00
         -4   -1    0    0    0  501 -0.00000000000E+00  0.00000000000E+00  0.26812152451E+02  0.26849728473E+02  0.14200000000E+01 0.  1.
          4   -1    0    0  501    0  0.00000000000E+00 -0.00000000000E+00 -0.14554674044E+03  0.14555366726E+03  0.14200000000E+01 0. -1.
         25    2    1    2    0    0  0.00000000000E+00  0.00000000000E+00 -0.11873458799E+03  0.17240339573E+03  0.12500011390E+03 0.  0.
        -11    1    3    3    0    0  0.56439806711E+02 -0.26317580590E+02 -0.66690228843E+02  0.91245018785E+02  0.51100000000E-03 0.  1.
         11    1    3    3    0    0 -0.56439806711E+02  0.26317580590E+02 -0.52044359148E+02  0.81158376949E+02  0.51100000000E-03 0. -1.
<mgrwt>
<rscale>  0 0.12500011E+03</rscale>
<asrwt>0</asrwt>
<pdfrwt beam="2">  1        4 0.22395229E-01 0.12500011E+03</pdfrwt>
<pdfrwt beam="1">  1       -4 0.41283699E-02 0.12500011E+03</pdfrwt>
<totfact> 0.95002323E+03</totfact>
</mgrwt>
</event>
<event>
 5    1  0.3296574E-054  0.1250007E+03  0.7818608E-02  0.1235068E+00
          4   -1    0    0  501    0  0.00000000000E+00  0.00000000000E+00  0.35975312609E+02  0.36003326476E+02  0.14200000000E+01 0. -1.
         -4   -1    0    0    0  501 -0.00000000000E+00 -0.00000000000E+00 -0.10850772216E+03  0.10851701327E+03  0.14200000000E+01 0.  1.
         25    2    1    2    0    0  0.00000000000E+00  0.00000000000E+00 -0.72532409555E+02  0.14452033975E+03  0.12500071266E+03 0.  0.
        -11    1    3    3    0    0 -0.39272040957E+02 -0.19861800487E+02 -0.87575447435E+02  0.98011444808E+02  0.51100000000E-03 0.  1.
         11    1    3    3    0    0  0.39272040957E+02  0.19861800487E+02  0.15043037880E+02  0.46508894939E+02  0.51100000000E-03 0. -1.
<mgrwt>
<rscale>  0 0.12500071E+03</rscale>
<asrwt>0</asrwt>
<pdfrwt beam="1">  1        4 0.55375331E-02 0.12500071E+03</pdfrwt>
<pdfrwt beam="2">  1       -4 0.16696365E-01 0.12500071E+03</pdfrwt>
<totfact> 0.10040582E+04</totfact>
</mgrwt>
</event>
<event>
 5    1  0.3296574E-054  0.1249994E+03  0.7818608E-02  0.1235070E+00
          4   -1    0    0  501    0  0.00000000000E+00  0.00000000000E+00  0.16731376158E+02  0.16791526081E+02  0.14200000000E+01 0. -1.
         -4   -1    0    0    0  501 -0.00000000000E+00 -0.00000000000E+00 -0.23298501511E+03  0.23298934239E+03  0.14200000000E+01 0.  1.
         25    2    1    2    0    0  0.00000000000E+00  0.00000000000E+00 -0.21625363895E+03  0.24978086847E+03  0.12499938357E+03 0.  0.
        -11    1    3    3    0    0  0.51695330514E+02 -0.34826362907E+02 -0.98985210071E+02  0.11697587171E+03  0.51100000000E-03 0.  1.
         11    1    3    3    0    0 -0.51695330514E+02  0.34826362907E+02 -0.11726842888E+03  0.13280499675E+03  0.51100000000E-03 0. -1.
<mgrwt>
<rscale>  0 0.12499938E+03</rscale>
<asrwt>0</asrwt>
<pdfrwt beam="1">  1        4 0.25790178E-02 0.12499938E+03</pdfrwt>
<pdfrwt beam="2">  1       -4 0.35848806E-01 0.12499938E+03</pdfrwt>
<totfact> 0.82363042E+03</totfact>
</mgrwt>
</event>
<event>
 5    1  0.3296574E-054  0.1249981E+03  0.7818608E-02  0.1235072E+00
          4   -1    0    0  501    0  0.00000000000E+00  0.00000000000E+00  0.15251181246E+03  0.15251842295E+03  0.14200000000E+01 0. -1.
         -4   -1    0    0    0  501 -0.00000000000E+00 -0.00000000000E+00 -0.25585155662E+02  0.25624531025E+02  0.14200000000E+01 0.  1.
         25    2    1    2    0    0  0.00000000000E+00  0.00000000000E+00  0.12692665680E+03  0.17814295398E+03  0.12499814337E+03 0.  0.
        -11    1    3    3    0    0 -0.39968160324E+02 -0.43986101678E+02  0.91021128832E+02  0.10870637918E+03  0.51100000000E-03 0.  1.
         11    1    3    3    0    0  0.39968160324E+02  0.43986101678E+02  0.35905527963E+02  0.69436574794E+02  0.51100000000E-03 0. -1.
<mgrwt>
<rscale>  0 0.12499814E+03</rscale>
<asrwt>0</asrwt>
<pdfrwt beam="1">  1        4 0.23466893E-01 0.12499814E+03</pdfrwt>
<pdfrwt beam="2">  1       -4 0.39397152E-02 0.12499814E+03</pdfrwt>
<totfact> 0.93956262E+03</totfact>
</mgrwt>
</event>
<event>
 5    1  0.3296574E-054  0.1250028E+03  0.7818608E-02  0.1235065E+00
         -4   -1    0    0    0  501 -0.00000000000E+00  0.00000000000E+00  0.15563289127E+02  0.15627935515E+02  0.14200000000E+01 0. -1.
          4   -1    0    0  501    0  0.00000000000E+00 -0.00000000000E+00 -0.25041547865E+03  0.25041950472E+03  0.14200000000E+01 0.  1.
         25    2    1    2    0    0  0.00000000000E+00  0.00000000000E+00 -0.23485218952E+03  0.26604744024E+03  0.12500275811E+03 0.  0.
        -11    1    3    3    0    0  0.32332260241E+02 -0.44032331639E+02 -0.52793393455E+02  0.75969491736E+02  0.51100000000E-03 0. -1.
         11    1    3    3    0    0 -0.32332260241E+02  0.44032331639E+02 -0.18205879607E+03  0.19007794850E+03  0.51100000000E-03 0.  1.
<mgrwt>
<rscale>  0 0.12500276E+03</rscale>
<asrwt>0</asrwt>
<pdfrwt beam="2">  1        4 0.38530738E-01 0.12500276E+03</pdfrwt>
<pdfrwt beam="1">  1       -4 0.23996348E-02 0.12500276E+03</pdfrwt>
<totfact> 0.80059896E+03</totfact>
</mgrwt>
</event>
<event>
 5    1  0.3296574E-054  0.1250077E+03  0.7818608E-02  0.1235057E+00
          4   -1    0    0  501    0  0.00000000000E+00  0.00000000000E+00  0.15418300778E+02  0.15483552528E+02  0.14200000000E+01 0. -1.
         -4   -1    0    0    0  501 -0.00000000000E+00 -0.00000000000E+00 -0.25278062477E+03  0.25278461318E+03  0.14200000000E+01 0.  1.
         25    2    1    2    0    0  0.00000000000E+00  0.00000000000E+00 -0.23736232400E+03  0.26826816571E+03  0.12500774328E+03 0.  0.
        -11    1    3    3    0    0 -0.69545713254E+01  0.53037031964E+02 -0.18806878649E+03  0.19552790408E+03  0.51100000000E-03 0.  1.
         11    1    3    3    0    0  0.69545713254E+01 -0.53037031964E+02 -0.49293537508E+02  0.72740261631E+02  0.51100000000E-03 0. -1.
<mgrwt>
<rscale>  0 0.12500774E+03</rscale>
<asrwt>0</asrwt>
<pdfrwt beam="1">  1        4 0.23773726E-02 0.12500774E+03</pdfrwt>
<pdfrwt beam="2">  1       -4 0.38894650E-01 0.12500774E+03</pdfrwt>
<totfact> 0.79745827E+03</totfact>
</mgrwt>
</event>
<event>
 5    1  0.3296574E-054  0.1250077E+03  0.7818608E-02  0.1235057E+00
          4   -1    0    0  501    0  0.00000000000E+00  0.00000000000E+00  0.49283980512E+02  0.49304433220E+02  0.14200000000E+01 0. -1.
         -4   -1    0    0    0  501 -0.00000000000E+00 -0.00000000000E+00 -0.79226480862E+02  0.79239205383E+02  0.14200000000E+01 0.  1.
         25    2    1    2    0    0  0.00000000000E+00  0.00000000000E+00 -0.29942500350E+02  0.12854363860E+03  0.12500765456E+03 0.  0.
        -11    1    3    3    0    0  0.51003495666E+02 -0.34754185844E+02 -0.25125721353E+02  0.66637165888E+02  0.51100000000E-03 0.  1.
         11    1    3    3    0    0 -0.51003495666E+02  0.34754185844E+02 -0.48167789962E+01  0.61906472715E+02  0.51100000000E-03 0. -1.
<mgrwt>
<rscale>  0 0.12500765E+03</rscale>
<asrwt>0</asrwt>
<pdfrwt beam="1">  1        4 0.75847029E-02 0.12500765E+03</pdfrwt>
<pdfrwt beam="2">  1       -4 0.12191241E-01 0.12500765E+03</pdfrwt>
<totfact> 0.10373971E+04</totfact>
</mgrwt>
</event>
<event>
 5    1  0.3296574E-054  0.1249990E+03  0.7818608E-02  0.1235071E+00
          4   -1    0    0  501    0  0.00000000000E+00  0.00000000000E+00  0.10917195140E+03  0.10918118598E+03  0.14200000000E+01 0.  1.
         -4   -1    0    0    0  501 -0.00000000000E+00 -0.00000000000E+00 -0.35755313560E+02  0.35783499658E+02  0.14200000000E+01 0. -1.
         25    2    1    2    0    0  0.00000000000E+00  0.00000000000E+00  0.73416637842E+02  0.14496468564E+03  0.12499902948E+03 0.  0.
        -11    1    3    3    0    0  0.14908196498E+02 -0.15467924354E+02 -0.31357631632E+02  0.38010683610E+02  0.51100000000E-03 0. -1.
         11    1    3    3    0    0 -0.14908196498E+02  0.15467924354E+02  0.10477426947E+03  0.10695400203E+03  0.51100000000E-03 0.  1.
<mgrwt>
<rscale>  0 0.12499903E+03</rscale>
<asrwt>0</asrwt>
<pdfrwt beam="1">  1        4 0.16798563E-01 0.12499903E+03</pdfrwt>
<pdfrwt beam="2">  1       -4 0.55036960E-02 0.12499903E+03</pdfrwt>
<totfact> 0.10031925E+04</totfact>
</mgrwt>
</event>
<event>
 5    1  0.3296574E-054  0.1250016E+03  0.7818608E-02  0.1235067E+00
         -4   -1    0    0    0  501 -0.00000000000E+00  0.00000000000E+00  0.27357737388E+02  0.27394565063E+02  0.14200000000E+01 0.  1.
          4   -1    0    0  501    0  0.00000000000E+00 -0.00000000000E+00 -0.14265136430E+03  0.14265843170E+03  0.14200000000E+01 0. -1.
         25    2    1    2    0    0  0.00000000000E+00  0.00000000000E+00 -0.11529362691E+03  0.17005299676E+03  0.12500160520E+03 0.  0.
        -11    1    3    3    0    0  0.38146480763E+01 -0.47116186787E+02 -0.20219269930E+01  0.47313579301E+02  0.51100000000E-03 0.  1.
         11    1    3    3    0    0 -0.38146480763E+01  0.47116186787E+02 -0.11327169991E+03  0.12273941746E+03  0.51100000000E-03 0. -1.
<mgrwt>
<rscale>  0 0.12500161E+03</rscale>
<asrwt>0</asrwt>
<pdfrwt beam="2">  1        4 0.21949740E-01 0.12500161E+03</pdfrwt>
<pdfrwt beam="1">  1       -4 0.42122593E-02 0.12500161E+03</pdfrwt>
<totfact> 0.95435321E+03</totfact>
</mgrwt>
</event>
<event>
 5    1  0.3296574E-054  0.1250004E+03  0.7818608E-02  0.1235069E+00
          4   -1    0    0  501    0  0.00000000000E+00  0.00000000000E+00  0.10008741296E+03  0.10009748565E+03  0.14200000000E+01 0. -1.
         -4   -1    0    0    0  501 -0.00000000000E+00 -0.00000000000E+00 -0.39003705622E+02  0.39029545889E+02  0.14200000000E+01 0.  1.
         25    2    1    2    0    0  0.00000000000E+00  0.00000000000E+00  0.61083707341E+02  0.13912703154E+03  0.12500044641E+03 0.  0.
        -11    1    3    3    0    0  0.59271111487E+02  0.43164281391E+01  0.90004882372E+01  0.60105781732E+02  0.51100000000E-03 0.  1.
         11    1    3    3    0    0 -0.59271111487E+02 -0.43164281391E+01  0.52083219104E+02  0.79021249809E+02  0.51100000000E-03 0. -1.
<mgrwt>
<rscale>  0 0.12500045E+03</rscale>
<asrwt>0</asrwt>
<pdfrwt beam="1">  1        4 0.15400826E-01 0.12500045E+03</pdfrwt>
<pdfrwt beam="2">  1       -4 0.60033326E-02 0.12500045E+03</pdfrwt>
<totfact> 0.10151608E+04</totfact>
</mgrwt>
</event>
<event>
 5    1  0.3296574E-054  0.1250024E+03  0.7818608E-02  0.1235066E+00
          4   -1    0    0  501    0  0.00000000000E+00  0.00000000000E+00  0.65832475571E+02  0.65847788420E+02  0.14200000000E+01 0. -1.
         -4   -1    0    0    0  501 -0.00000000000E+00 -0.00000000000E+00 -0.59307789796E+02  0.59324786814E+02  0.14200000000E+01 0.  1.
         25    2    1    2    0    0  0.00000000000E+00  0.00000000000E+00  0.65246857745E+01  0.12517257523E+03  0.12500240824E+03 0.  0.
        -11    1    3    3    0    0 -0.59365317281E+02  0.19161238657E+02  0.71414456819E+01  0.62788487873E+02  0.51100000000E-03 0.  1.
         11    1    3    3    0    0  0.59365317281E+02 -0.19161238657E+02 -0.61675990743E+00  0.62384087360E+02  0.51100000000E-03 0. -1.
<mgrwt>
<rscale>  0 0.12500241E+03</rscale>
<asrwt>0</asrwt>
<pdfrwt beam="1">  1        4 0.10130559E-01 0.12500241E+03</pdfrwt>
<pdfrwt beam="2">  1       -4 0.91267607E-02 0.12500241E+03</pdfrwt>
<totfact> 0.10448547E+04</totfact>
</mgrwt>
</event>
<event>
 5    1  0.3296574E-054  0.1250007E+03  0.7818608E-02  0.1235068E+00
          4   -1    0    0  501    0  0.00000000000E+00  0.00000000000E+00  0.13661302279E+03  0.13662040256E+03  0.14200000000E+01 0.  1.
         -4   -1    0    0    0  501 -0.00000000000E+00 -0.00000000000E+00 -0.28568082155E+02  0.28603351517E+02  0.14200000000E+01 0. -1.
         25    2    1    2    0    0  0.00000000000E+00  0.00000000000E+00  0.10804494064E+03  0.16522375408E+03  0.12500071886E+03 0.  0.
        -11    1    3    3    0    0  0.22954729065E+02  0.35662378460E+02 -0.66582866564E+01  0.42930846781E+02  0.51100000000E-03 0. -1.
         11    1    3    3    0    0 -0.22954729065E+02 -0.35662378460E+02  0.11470322729E+03  0.12229290730E+03  0.51100000000E-03 0.  1.
<mgrwt>
<rscale>  0 0.12500072E+03</rscale>
<asrwt>0</asrwt>
<pdfrwt beam="1">  1        4 0.21020668E-01 0.12500072E+03</pdfrwt>
<pdfrwt beam="2">  1       -4 0.43983704E-02 0.12500072E+03</pdfrwt>
<totfact> 0.96343478E+03</totfact>
</mgrwt>
</event>
<event>
 5    1  0.3296574E-054  0.1249985E+03  0.7818608E-02  0.1235072E+00
         -4   -1    0    0    0  501 -0.00000000000E+00  0.00000000000E+00  0.16059020575E+03  0.16059648372E+03  0.14200000000E+01 0.  1.
          4   -1    0    0  501    0  0.00000000000E+00 -0.00000000000E+00 -0.24296269177E+02  0.24337729884E+02  0.14200000000E+01 0. -1.
         25    2    1    2    0    0  0.00000000000E+00  0.00000000000E+00  0.13629393657E+03  0.18493421360E+03  0.12499850485E+03 0.  0.
        -11    1    3    3    0    0  0.57699121488E+01  0.60831071352E+02  0.48718512406E+02  0.78148605742E+02  0.51100000000E-03 0.  1.
         11    1    3    3    0    0 -0.57699121488E+01 -0.60831071352E+02  0.87575424167E+02  0.10678560786E+03  0.51100000000E-03 0. -1.
<mgrwt>
<rscale>  0 0.12499850E+03</rscale>
<asrwt>0</asrwt>
<pdfrwt beam="2">  1        4 0.37415597E-02 0.12499850E+03</pdfrwt>
<pdfrwt beam="1">  1       -4 0.24709858E-01 0.12499850E+03</pdfrwt>
<totfact> 0.92739400E+03</totfact>
</mgrwt>
</event>
<event>
 5    1  0.3296574E-054  0.1250106E+03  0.7818608E-02  0.1235053E+00
          4   -1    0    0  501    0  0.00000000000E+00  0.00000000000E+00  0.11972560657E+02  0.12056475799E+02  0.14200000000E+01 0.  1.
         -4   -1    0    0    0  501 -0.00000000000E+00 -0.00000000000E+00 -0.32509704825E+03  0.32510014946E+03  0.14200000000E+01 0. -1.
         25    2    1    2    0    0  0.00000000000E+00  0.00000000000E+00 -0.31312448759E+03  0.33715662526E+03  0.12501058046E+03 0.  0.
        -11    1    3    3    0    0 -0.36257837666E+02  0.50827723599E+02 -0.14855111420E+03  0.16113820717E+03  0.51100000000E-03 0. -1.
         11    1    3    3    0    0  0.36257837666E+02 -0.50827723599E+02 -0.16457337339E+03  0.17601841809E+03  0.51100000000E-03 0.  1.
<mgrwt>
<rscale>  0 0.12501058E+03</rscale>
<asrwt>0</asrwt>
<pdfrwt beam="1">  1        4 0.18486262E-02 0.12501058E+03</pdfrwt>
<pdfrwt beam="2">  1       -4 0.50021617E-01 0.12501058E+03</pdfrwt>
<totfact> 0.71144317E+03</totfact>
</mgrwt>
</event>
<event>
 5    1  0.3296574E-054  0.1249976E+03  0.7818608E-02  0.1235073E+00
          4   -1    0    0  501    0  0.00000000000E+00  0.00000000000E+00  0.16026171519E+02  0.16088958125E+02  0.14200000000E+01 0. -1.
         -4   -1    0    0    0  501 -0.00000000000E+00 -0.00000000000E+00 -0.24319109326E+03  0.24319523893E+03  0.14200000000E+01 0.  1.
         25    2    1    2    0    0  0.00000000000E+00  0.00000000000E+00 -0.22716492174E+03  0.25928419706E+03  0.12499757268E+03 0.  0.
        -11    1    3    3    0    0 -0.54716002213E+02  0.28769641792E+02 -0.13265770342E+03  0.14635436264E+03  0.51100000000E-03 0.  1.
         11    1    3    3    0    0  0.54716002213E+02 -0.28769641792E+02 -0.94507218321E+02  0.11292983442E+03  0.51100000000E-03 0. -1.
<mgrwt>
<rscale>  0 0.12499757E+03</rscale>
<asrwt>0</asrwt>
<pdfrwt beam="1">  1        4 0.24707137E-02 0.12499757E+03</pdfrwt>
<pdfrwt beam="2">  1       -4 0.37419160E-01 0.12499757E+03</pdfrwt>
<totfact> 0.81010997E+03</totfact>
</mgrwt>
</event>
<event>
 5    1  0.3296574E-054  0.1249992E+03  0.7818608E-02  0.1235070E+00
          4   -1    0    0  501    0  0.00000000000E+00  0.00000000000E+00  0.93240153431E+02  0.93250965742E+02  0.14200000000E+01 0.  1.
         -4   -1    0    0    0  501 -0.00000000000E+00 -0.00000000000E+00 -0.41868719147E+02  0.41892792256E+02  0.14200000000E+01 0. -1.
         25    2    1    2    0    0  0.00000000000E+00  0.00000000000E+00  0.51371434283E+02  0.13514375800E+03  0.12499924426E+03 0.  0.
        -11    1    3    3    0    0 -0.42051745548E+02  0.95518023825E+00 -0.24292974101E+02  0.48573761063E+02  0.51100000000E-03 0. -1.
         11    1    3    3    0    0  0.42051745548E+02 -0.95518023825E+00  0.75664408384E+02  0.86569996935E+02  0.51100000000E-03 0.  1.
<mgrwt>
<rscale>  0 0.12499924E+03</rscale>
<asrwt>0</asrwt>
<pdfrwt beam="1">  1        4 0.14347322E-01 0.12499924E+03</pdfrwt>
<pdfrwt beam="2">  1       -4 0.64440250E-02 0.12499924E+03</pdfrwt>
<totfact> 0.10235216E+04</totfact>
</mgrwt>
</event>
<event>
 5    1  0.3296574E-054  0.1250008E+03  0.7818608E-02  0.1235068E+00
         -4   -1    0    0    0  501 -0.00000000000E+00  0.00000000000E+00  0.36974631792E+03  0.36974904464E+03  0.14200000000E+01 0.  1.
          4   -1    0    0  501    0  0.00000000000E+00 -0.00000000000E+00 -0.10514317146E+02  0.10609772149E+02  0.14200000000E+01 0. -1.
         25    2    1    2    0    0  0.00000000000E+00  0.00000000000E+00  0.35923200077E+03  0.38035881679E+03  0.12500079653E+03 0.  0.
        -11    1    3    3    0    0  0.23128084308E+02 -0.49853712813E+02  0.27018869291E+03  0.27572129178E+03  0.51100000000E-03 0.  1.
         11    1    3    3    0    0 -0.23128084308E+02  0.49853712813E+02  0.89043307864E+02  0.10463752501E+03  0.51100000000E-03 0. -1.
<mgrwt>
<rscale>  0 0.12500080E+03</rscale>
<asrwt>0</asrwt>
<pdfrwt beam="2">  1        4 0.16251399E-02 0.12500080E+03</pdfrwt>
<pdfrwt beam="1">  1       -4 0.56891594E-01 0.12500080E+03</pdfrwt>
<totfact> 0.66507789E+03</totfact>
</mgrwt>
</event>
<event>
 5    1  0.3296574E-054  0.1249893E+03  0.7818608E-02  0.1235086E+00
         -4   -1    0    0    0  501 -0.00000000000E+00  0.00000000000E+00  0.78312720017E+01  0.79589711122E+01  0.14200000000E+01 0. -1.
          4   -1    0    0  501    0  0.00000000000E+00 -0.00000000000E+00 -0.49455426898E+03  0.49455630758E+03  0.14200000000E+01 0.  1.
         25    2    1    2    0    0  0.00000000000E+00  0.00000000000E+00 -0.48672299698E+03  0.50251527869E+03  0.12498931767E+03 0.  0.
        -11    1    3    3    0    0  0.44376922422E+02 -0.44001603645E+02 -0.24481118404E+03  0.25266176640E+03  0.51100000000E-03 0.  1.
         11    1    3    3    0    0 -0.44376922422E+02  0.44001603645E+02 -0.24191181293E+03  0.24985351229E+03  0.51100000000E-03 0. -1.
<mgrwt>
<rscale>  0 0.12498932E+03</rscale>
<asrwt>0</asrwt>
<pdfrwt beam="2">  1        4 0.76095228E-01 0.12498932E+03</pdfrwt>
<pdfrwt beam="1">  1       -4 0.12147913E-02 0.12498932E+03</pdfrwt>
<totfact> 0.55682826E+03</totfact>
</mgrwt>
</event>
<event>
 5    1  0.3296574E-054  0.1250001E+03  0.7818608E-02  0.1235069E+00
          4   -1    0    0  501    0  0.00000000000E+00  0.00000000000E+00  0.63460313539E+02  0.63476198645E+02  0.14200000000E+01 0. -1.
         -4   -1    0    0    0  501 -0.00000000000E+00 -0.00000000000E+00 -0.61522512009E+02  0.61538897324E+02  0.14200000000E+01 0.  1.
         25    2    1    2    0    0  0.00000000000E+00  0.00000000000E+00  0.19378015305E+01  0.12501509597E+03  0.12500007658E+03 0.  0.
        -11    1    3    3    0    0 -0.20421340351E+02  0.56534166715E+02 -0.16153659794E+02  0.62242139045E+02  0.51100000000E-03 0.  1.
         11    1    3    3    0    0  0.20421340351E+02 -0.56534166715E+02  0.18091461324E+02  0.62772956924E+02  0.51100000000E-03 0. -1.
<mgrwt>
<rscale>  0 0.12500008E+03</rscale>
<asrwt>0</asrwt>
<pdfrwt beam="1">  1        4 0.97656075E-02 0.12500008E+03</pdfrwt>
<pdfrwt beam="2">  1       -4 0.94674842E-02 0.12500008E+03</pdfrwt>
<totfact> 0.10452517E+04</totfact>
</mgrwt>
</event>
<event>
 5    1  0.3296574E-054  0.1249970E+03  0.7818608E-02  0.1235074E+00
         -4   -1    0    0    0  501 -0.00000000000E+00  0.00000000000E+00  0.56422057967E+02  0.56439924037E+02  0.14200000000E+01 0.  1.
          4   -1    0    0  501    0  0.00000000000E+00 -0.00000000000E+00 -0.69193232453E+02  0.69207801708E+02  0.14200000000E+01 0. -1.
         25    2    1    2    0    0  0.00000000000E+00  0.00000000000E+00 -0.12771174486E+02  0.12564772575E+03  0.12499699231E+03 0.  0.
        -11    1    3    3    0    0  0.13085103152E+02 -0.44730262179E+02  0.35473074921E+02  0.58569235301E+02  0.51100000000E-03 0.  1.
         11    1    3    3    0    0 -0.13085103152E+02  0.44730262179E+02 -0.48244249407E+02  0.67078490444E+02  0.51100000000E-03 0. -1.
<mgrwt>
<rscale>  0 0.12499699E+03</rscale>
<asrwt>0</asrwt>
<pdfrwt beam="2">  1        4 0.10647608E-01 0.12499699E+03</pdfrwt>
<pdfrwt beam="1">  1       -4 0.86828116E-02 0.12499699E+03</pdfrwt>
<totfact> 0.10439404E+04</totfact>
</mgrwt>
</event>
<event>
 5    1  0.3296574E-054  0.1249787E+03  0.7818608E-02  0.1235103E+00
         -4   -1    0    0    0  501 -0.00000000000E+00  0.00000000000E+00  0.43511122094E+03  0.43511353804E+03  0.14200000000E+01 0. -1.
          4   -1    0    0  501    0  0.00000000000E+00 -0.00000000000E+00 -0.89160056323E+01  0.90283750717E+01  0.14200000000E+01 0.  1.
         25    2    1    2    0    0  0.00000000000E+00  0.00000000000E+00  0.42619521531E+03  0.44414191311E+03  0.12497870792E+03 0.  0.
        -11    1    3    3    0    0 -0.44747549558E+01 -0.62288580209E+02  0.22106678824E+03  0.22971812188E+03  0.51100000000E-03 0. -1.
         11    1    3    3    0    0  0.44747549558E+01  0.62288580209E+02  0.20512842707E+03  0.21442379124E+03  0.51100000000E-03 0.  1.
<mgrwt>
<rscale>  0 0.12497871E+03</rscale>
<asrwt>0</asrwt>
<pdfrwt beam="2">  1        4 0.13805156E-02 0.12497871E+03</pdfrwt>
<pdfrwt beam="1">  1       -4 0.66948993E-01 0.12497871E+03</pdfrwt>
<totfact> 0.60503047E+03</totfact>
</mgrwt>
</event>
<event>
 5    1  0.3296574E-054  0.1249975E+03  0.7818608E-02  0.1235073E+00
          4   -1    0    0  501    0  0.00000000000E+00  0.00000000000E+00  0.16622058329E+03  0.16622664862E+03  0.14200000000E+01 0. -1.
         -4   -1    0    0    0  501 -0.00000000000E+00 -0.00000000000E+00 -0.23471523825E+02  0.23514438770E+02  0.14200000000E+01 0.  1.
         25    2    1    2    0    0  0.00000000000E+00  0.00000000000E+00  0.14274905947E+03  0.18974108739E+03  0.12499754503E+03 0.  0.
        -11    1    3    3    0    0  0.37036806208E+02  0.49085919154E+02  0.54407033363E+02  0.82105284561E+02  0.51100000000E-03 0.  1.
         11    1    3    3    0    0 -0.37036806208E+02 -0.49085919154E+02  0.88342026106E+02  0.10763580283E+03  0.51100000000E-03 0. -1.
<mgrwt>
<rscale>  0 0.12499755E+03</rscale>
<asrwt>0</asrwt>
<pdfrwt beam="1">  1        4 0.25576166E-01 0.12499755E+03</pdfrwt>
<pdfrwt beam="2">  1       -4 0.36147712E-02 0.12499755E+03</pdfrwt>
<totfact> 0.91897436E+03</totfact>
</mgrwt>
</event>
<event>
 5    1  0.3296574E-054  0.1250005E+03  0.7818608E-02  0.1235069E+00
         -4   -1    0    0    0  501 -0.00000000000E+00  0.00000000000E+00  0.31081357151E+02  0.31113777693E+02  0.14200000000E+01 0. -1.
          4   -1    0    0  501    0  0.00000000000E+00 -0.00000000000E+00 -0.12557726969E+03  0.12558529795E+03  0.14200000000E+01 0.  1.
         25    2    1    2    0    0  0.00000000000E+00  0.00000000000E+00 -0.94495912535E+02  0.15669907565E+03  0.12500049129E+03 0.  0.
        -11    1    3    3    0    0  0.31189211001E+02 -0.52991612234E+02 -0.33209853181E+02  0.69883991003E+02  0.51100000000E-03 0. -1.
         11    1    3    3    0    0 -0.31189211001E+02  0.52991612234E+02 -0.61286059355E+02  0.86815084643E+02  0.51100000000E-03 0.  1.
<mgrwt>
<rscale>  0 0.12500049E+03</rscale>
<asrwt>0</asrwt>
<pdfrwt beam="2">  1        4 0.19322691E-01 0.12500049E+03</pdfrwt>
<pdfrwt beam="1">  1       -4 0.47848588E-02 0.12500049E+03</pdfrwt>
<totfact> 0.97981896E+03</totfact>
</mgrwt>
</event>
<event>
 5    1  0.3296574E-054  0.1249987E+03  0.7818608E-02  0.1235071E+00
         -4   -1    0    0    0  501 -0.00000000000E+00  0.00000000000E+00  0.10646563271E+03  0.10647510201E+03  0.14200000000E+01 0. -1.
          4   -1    0    0  501    0  0.00000000000E+00 -0.00000000000E+00 -0.36664651766E+02  0.36692139337E+02  0.14200000000E+01 0.  1.
         25    2    1    2    0    0  0.00000000000E+00  0.00000000000E+00  0.69800980942E+02  0.14316724135E+03  0.12499872821E+03 0.  0.
        -11    1    3    3    0    0 -0.58394240913E+01  0.61396162037E+02  0.46500961002E+02  0.77239413261E+02  0.51100000000E-03 0. -1.
         11    1    3    3    0    0  0.58394240913E+01 -0.61396162037E+02  0.23300019940E+02  0.65927828086E+02  0.51100000000E-03 0.  1.
<mgrwt>
<rscale>  0 0.12499873E+03</rscale>
<asrwt>0</asrwt>
<pdfrwt beam="2">  1        4 0.56435585E-02 0.12499873E+03</pdfrwt>
<pdfrwt beam="1">  1       -4 0.16382171E-01 0.12499873E+03</pdfrwt>
<totfact> 0.10068648E+04</totfact>
</mgrwt>
</event>
<event>
 5    1  0.3296574E-054  0.1249923E+03  0.7818608E-02  0.1235081E+00
         -4   -1    0    0    0  501 -0.00000000000E+00  0.00000000000E+00  0.10964347204E+02  0.11055917403E+02  0.14200000000E+01 0.  1.
          4   -1    0    0  501    0  0.00000000000E+00 -0.00000000000E+00 -0.35464990514E+03  0.35465274793E+03  0.14200000000E+01 0. -1.
         25    2    1    2    0    0  0.00000000000E+00  0.00000000000E+00 -0.34368555794E+03  0.36570866534E+03  0.12499226043E+03 0.  0.
        -11    1    3    3    0    0  0.52061674299E+02 -0.34292901433E+02 -0.15897393454E+03  0.17076045468E+03  0.51100000000E-03 0.  1.
         11    1    3    3    0    0 -0.52061674299E+02  0.34292901433E+02 -0.18471162340E+03  0.19494821066E+03  0.51100000000E-03 0. -1.
<mgrwt>
<rscale>  0 0.12499226E+03</rscale>
<asrwt>0</asrwt>
<pdfrwt beam="2">  1        4 0.54568778E-01 0.12499226E+03</pdfrwt>
<pdfrwt beam="1">  1       -4 0.16940855E-02 0.12499226E+03</pdfrwt>
<totfact> 0.68041941E+03</totfact>
</mgrwt>
</event>
<event>
 5    1  0.3296574E-054  0.1249982E+03  0.7818608E-02  0.1235072E+00
          4   -1    0    0  501    0  0.00000000000E+00  0.00000000000E+00  0.97318410925E+02  0.97328770181E+02  0.14200000000E+01 0.  1.
         -4   -1    0    0    0  501 -0.00000000000E+00 -0.00000000000E+00 -0.40112661533E+02  0.40137787872E+02  0.14200000000E+01 0. -1.
         25    2    1    2    0    0  0.00000000000E+00  0.00000000000E+00  0.57205749392E+02  0.13746655805E+03  0.12499822727E+03 0.  0.
        -11    1    3    3    0    0 -0.46677269189E+02 -0.26505723624E+02 -0.66031228006E+01  0.54082548708E+02  0.51100000000E-03 0. -1.
         11    1    3    3    0    0  0.46677269189E+02  0.26505723624E+02  0.63808872192E+02  0.83384009345E+02  0.51100000000E-03 0.  1.
<mgrwt>
<rscale>  0 0.12499823E+03</rscale>
<asrwt>0</asrwt>
<pdfrwt beam="1">  1        4 0.14974793E-01 0.12499823E+03</pdfrwt>
<pdfrwt beam="2">  1       -4 0.61739083E-02 0.12499823E+03</pdfrwt>
<totfact> 0.10186747E+04</totfact>
</mgrwt>
</event>
<event>
 5    1  0.3296574E-054  0.1250009E+03  0.7818608E-02  0.1235068E+00
          4   -1    0    0  501    0  0.00000000000E+00  0.00000000000E+00  0.39451250481E+03  0.39451506036E+03  0.14200000000E+01 0. -1.
         -4   -1    0    0    0  501 -0.00000000000E+00 -0.00000000000E+00 -0.98480941598E+01  0.99499426420E+01  0.14200000000E+01 0.  1.
         25    2    1    2    0    0  0.00000000000E+00  0.00000000000E+00  0.38466441065E+03  0.40446500301E+03  0.12500091933E+03 0.  0.
        -11    1    3    3    0    0 -0.11602695008E+02 -0.61306096512E+02  0.20410918711E+03  0.21343294091E+03  0.51100000000E-03 0.  1.
         11    1    3    3    0    0  0.11602695008E+02  0.61306096512E+02  0.18055522354E+03  0.19103206210E+03  0.51100000000E-03 0. -1.
<mgrwt>
<rscale>  0 0.12500092E+03</rscale>
<asrwt>0</asrwt>
<pdfrwt beam="1">  1        4 0.60702265E-01 0.12500092E+03</pdfrwt>
<pdfrwt beam="2">  1       -4 0.15231224E-02 0.12500092E+03</pdfrwt>
<totfact> 0.64119528E+03</totfact>
</mgrwt>
</event>
<event>
 5    1  0.3296574E-054  0.1249999E+03  0.7818608E-02  0.1235069E+00
          4   -1    0    0  501    0  0.00000000000E+00  0.00000000000E+00  0.11047144435E+03  0.11048057032E+03  0.14200000000E+01 0.  1.
         -4   -1    0    0    0  501 -0.00000000000E+00 -0.00000000000E+00 -0.35334912511E+02  0.35363433688E+02  0.14200000000E+01 0. -1.
         25    2    1    2    0    0  0.00000000000E+00  0.00000000000E+00  0.75136531841E+02  0.14584400400E+03  0.12499990035E+03 0.  0.
        -11    1    3    3    0    0  0.36675949623E+02 -0.48692869237E+02  0.21480482387E+02  0.64633829526E+02  0.51100000000E-03 0. -1.
         11    1    3    3    0    0 -0.36675949623E+02  0.48692869237E+02  0.53656049454E+02  0.81210174477E+02  0.51100000000E-03 0.  1.
<mgrwt>
<rscale>  0 0.12499990E+03</rscale>
<asrwt>0</asrwt>
<pdfrwt beam="1">  1        4 0.16998502E-01 0.12499990E+03</pdfrwt>
<pdfrwt beam="2">  1       -4 0.54390365E-02 0.12499990E+03</pdfrwt>
<totfact> 0.10013891E+04</totfact>
</mgrwt>
</event>
<event>
 5    1  0.3296574E-054  0.1249973E+03  0.7818608E-02  0.1235073E+00
         -4   -1    0    0    0  501 -0.00000000000E+00  0.00000000000E+00  0.96424238301E+02  0.96434693612E+02  0.14200000000E+01 0. -1.
          4   -1    0    0  501    0  0.00000000000E+00 -0.00000000000E+00 -0.40484257144E+02  0.40509152996E+02  0.14200000000E+01 0.  1.
         25    2    1    2    0    0  0.00000000000E+00  0.00000000000E+00  0.55939981157E+02  0.13694384661E+03  0.12499734250E+03 0.  0.
        -11    1    3    3    0    0  0.69827314814E+01  0.61815851063E+02  0.34554921711E+02  0.71161791689E+02  0.51100000000E-03 0. -1.
         11    1    3    3    0    0 -0.69827314814E+01 -0.61815851063E+02  0.21385059447E+02  0.65782054919E+02  0.51100000000E-03 0.  1.
<mgrwt>
<rscale>  0 0.12499734E+03</rscale>
<asrwt>0</asrwt>
<pdfrwt beam="2">  1        4 0.62310666E-02 0.12499734E+03</pdfrwt>
<pdfrwt beam="1">  1       -4 0.14837217E-01 0.12499734E+03</pdfrwt>
<totfact> 0.10197871E+04</totfact>
</mgrwt>
</event>
<event>
 5    1  0.3296574E-054  0.1250017E+03  0.7818608E-02  0.1235067E+00
         -4   -1    0    0    0  501 -0.00000000000E+00  0.00000000000E+00  0.14830364168E+03  0.14831043974E+03  0.14200000000E+01 0.  1.
          4   -1    0    0  501    0  0.00000000000E+00 -0.00000000000E+00 -0.26313710371E+02  0.26351997144E+02  0.14200000000E+01 0. -1.
         25    2    1    2    0    0  0.00000000000E+00  0.00000000000E+00  0.12198993131E+03  0.17466243688E+03  0.12500169406E+03 0.  0.
        -11    1    3    3    0    0 -0.23962913556E+02 -0.56873592544E+02  0.74794066164E+02  0.96968959408E+02  0.51100000000E-03 0.  1.
         11    1    3    3    0    0  0.23962913556E+02  0.56873592544E+02  0.47195865141E+02  0.77693477472E+02  0.51100000000E-03 0. -1.
<mgrwt>
<rscale>  0 0.12500169E+03</rscale>
<asrwt>0</asrwt>
<pdfrwt beam="2">  1        4 0.40517312E-02 0.12500169E+03</pdfrwt>
<pdfrwt beam="1">  1       -4 0.22819413E-01 0.12500169E+03</pdfrwt>
<totfact> 0.94583106E+03</totfact>
</mgrwt>
</event>
<event>
 5    1  0.3296574E-054  0.1250006E+03  0.7818608E-02  0.1235068E+00
         -4   -1    0    0    0  501 -0.00000000000E+00  0.00000000000E+00  0.28862337917E+02  0.28897248139E+02  0.14200000000E+01 0.  1.
          4   -1    0    0  501    0  0.00000000000E+00 -0.00000000000E+00 -0.13522164102E+03  0.13522909672E+03  0.14200000000E+01 0. -1.
         25    2    1    2    0    0  0.00000000000E+00  0.00000000000E+00 -0.10635930310E+03  0.16412634486E+03  0.12500062288E+03 0.  0.
        -11    1    3    3    0    0 -0.50738412977E+02 -0.36299197793E+02 -0.48219584886E+02  0.78848885082E+02  0.51100000000E-03 0.  1.
         11    1    3    3    0    0  0.50738412977E+02  0.36299197793E+02 -0.58139718218E+02  0.85277459780E+02  0.51100000000E-03 0. -1.
<mgrwt>
<rscale>  0 0.12500062E+03</rscale>
<asrwt>0</asrwt>
<pdfrwt beam="2">  1        4 0.20806588E-01 0.12500062E+03</pdfrwt>
<pdfrwt beam="1">  1       -4 0.44436187E-02 0.12500062E+03</pdfrwt>
<totfact> 0.96551754E+03</totfact>
</mgrwt>
</event>
<event>
 5    1  0.3296574E-054  0.1250065E+03  0.7818608E-02  0.1235059E+00
         -4   -1    0    0    0  501 -0.00000000000E+00  0.00000000000E+00  0.16885148485E+02  0.16944752561E+02  0.14200000000E+01 0.  1.
          4   -1    0    0  501    0  0.00000000000E+00 -0.00000000000E+00 -0.23089702432E+03  0.23090139073E+03  0.14200000000E+01 0. -1.
         25    2    1    2    0    0  0.00000000000E+00  0.00000000000E+00 -0.21401187583E+03  0.24784614329E+03  0.12500651081E+03 0.  0.
        -11    1    3    3    0    0  0.25480799114E+02 -0.56979038629E+02 -0.11351408787E+03  0.12954277329E+03  0.51100000000E-03 0.  1.
         11    1    3    3    0    0 -0.25480799114E+02  0.56979038629E+02 -0.10049778796E+03  0.11830337000E+03  0.51100000000E-03 0. -1.
<mgrwt>
<rscale>  0 0.12500651E+03</rscale>
<asrwt>0</asrwt>
<pdfrwt beam="2">  1        4 0.35527538E-01 0.12500651E+03</pdfrwt>
<pdfrwt beam="1">  1       -4 0.26026361E-02 0.12500651E+03</pdfrwt>
<totfact> 0.82630541E+03</totfact>
</mgrwt>
</event>
<event>
 5    1  0.3296574E-054  0.1249958E+03  0.7818608E-02  0.1235076E+00
         -4   -1    0    0    0  501 -0.00000000000E+00  0.00000000000E+00  0.11423330625E+02  0.11511250260E+02  0.14200000000E+01 0.  1.
          4   -1    0    0  501    0  0.00000000000E+00 -0.00000000000E+00 -0.34053039937E+03  0.34053336003E+03  0.14200000000E+01 0. -1.
         25    2    1    2    0    0  0.00000000000E+00  0.00000000000E+00 -0.32910706875E+03  0.35204461029E+03  0.12499577968E+03 0.  0.
        -11    1    3    3    0    0  0.11029709498E+02 -0.50317239250E+02 -0.64877107472E+02  0.82840317066E+02  0.51100000000E-03 0.  1.
         11    1    3    3    0    0 -0.11029709498E+02  0.50317239250E+02 -0.26422996127E+03  0.26920429323E+03  0.51100000000E-03 0. -1.
<mgrwt>
<rscale>  0 0.12499578E+03</rscale>
<asrwt>0</asrwt>
<pdfrwt beam="2">  1        4 0.52396275E-01 0.12499578E+03</pdfrwt>
<pdfrwt beam="1">  1       -4 0.17644265E-02 0.12499578E+03</pdfrwt>
<totfact> 0.69506702E+03</totfact>
</mgrwt>
</event>
<event>
 5    1  0.3296574E-054  0.1250012E+03  0.7818608E-02  0.1235067E+00
          4   -1    0    0  501    0  0.00000000000E+00  0.00000000000E+00  0.25871694570E+02  0.25910634495E+02  0.14200000000E+01 0. -1.
         -4   -1    0    0    0  501 -0.00000000000E+00 -0.00000000000E+00 -0.15083250915E+03  0.15083919324E+03  0.14200000000E+01 0.  1.
         25    2    1    2    0    0  0.00000000000E+00  0.00000000000E+00 -0.12496081458E+03  0.17674982773E+03  0.12500118569E+03 0.  0.
        -11    1    3    3    0    0 -0.18944511087E+02 -0.52818792900E+02 -0.10139981327E+03  0.11589064464E+03  0.51100000000E-03 0.  1.
         11    1    3    3    0    0  0.18944511087E+02  0.52818792900E+02 -0.23561001312E+02  0.60859183093E+02  0.51100000000E-03 0. -1.
<mgrwt>
<rscale>  0 0.12500119E+03</rscale>
<asrwt>0</asrwt>
<pdfrwt beam="1">  1        4 0.39837703E-02 0.12500119E+03</pdfrwt>
<pdfrwt beam="2">  1       -4 0.23208510E-01 0.12500119E+03</pdfrwt>
<totfact> 0.94202833E+03</totfact>
</mgrwt>
</event>
<event>
 5    1  0.3296574E-054  0.1249903E+03  0.7818608E-02  0.1235084E+00
         -4   -1    0    0    0  501 -0.00000000000E+00  0.00000000000E+00  0.43064605180E+02  0.43088010157E+02  0.14200000000E+01 0.  1.
          4   -1    0    0  501    0  0.00000000000E+00 -0.00000000000E+00 -0.90639097559E+02  0.90650220111E+02  0.14200000000E+01 0. -1.
         25    2    1    2    0    0  0.00000000000E+00  0.00000000000E+00 -0.47574492379E+02  0.13373823027E+03  0.12499032727E+03 0.  0.
        -11    1    3    3    0    0  0.62082070181E+02 -0.43767455901E+00 -0.31448729504E+02  0.69594522662E+02  0.51100000000E-03 0.  1.
         11    1    3    3    0    0 -0.62082070181E+02  0.43767455901E+00 -0.16125762875E+02  0.64143707606E+02  0.51100000000E-03 0. -1.
<mgrwt>
<rscale>  0 0.12499033E+03</rscale>
<asrwt>0</asrwt>
<pdfrwt beam="2">  1        4 0.13947132E-01 0.12499033E+03</pdfrwt>
<pdfrwt beam="1">  1       -4 0.66279799E-02 0.12499033E+03</pdfrwt>
<totfact> 0.10266974E+04</totfact>
</mgrwt>
</event>
<event>
 5    1  0.3296574E-054  0.1249775E+03  0.7818608E-02  0.1235105E+00
         -4   -1    0    0    0  501 -0.00000000000E+00  0.00000000000E+00  0.27360666258E+02  0.27397489996E+02  0.14200000000E+01 0. -1.
          4   -1    0    0  501    0  0.00000000000E+00 -0.00000000000E+00 -0.14258099999E+03  0.14258807089E+03  0.14200000000E+01 0.  1.
         25    2    1    2    0    0  0.00000000000E+00  0.00000000000E+00 -0.11522033373E+03  0.16998556088E+03  0.12497746038E+03 0.  0.
        -11    1    3    3    0    0  0.28959648044E+02  0.55201653048E+02 -0.51688104153E+02  0.80978662778E+02  0.51100000000E-03 0. -1.
         11    1    3    3    0    0 -0.28959648044E+02 -0.55201653048E+02 -0.63532229581E+02  0.89006898103E+02  0.51100000000E-03 0.  1.
<mgrwt>
<rscale>  0 0.12497746E+03</rscale>
<asrwt>0</asrwt>
<pdfrwt beam="2">  1        4 0.21938914E-01 0.12497746E+03</pdfrwt>
<pdfrwt beam="1">  1       -4 0.42127099E-02 0.12497746E+03</pdfrwt>
<totfact> 0.95499633E+03</totfact>
</mgrwt>
</event>
<event>
 5    1  0.3296574E-054  0.1249992E+03  0.7818608E-02  0.1235070E+00
         -4   -1    0    0    0  501 -0.00000000000E+00  0.00000000000E+00  0.13847542232E+03  0.13848270284E+03  0.14200000000E+01 0.  1.
          4   -1    0    0  501    0  0.00000000000E+00 -0.00000000000E+00 -0.28182738952E+02  0.28218489947E+02  0.14200000000E+01 0. -1.
         25    2    1    2    0    0  0.00000000000E+00  0.00000000000E+00  0.11029268337E+03  0.16670119279E+03  0.12499924669E+03 0.  0.
        -11    1    3    3    0    0  0.22164248908E+02 -0.75739647103E+01  0.13242236377E+03  0.13447788405E+03  0.51100000000E-03 0.  1.
         11    1    3    3    0    0 -0.22164248908E+02  0.75739647103E+01 -0.22129680405E+02  0.32223308740E+02  0.51100000000E-03 0. -1.
<mgrwt>
<rscale>  0 0.12499925E+03</rscale>
<asrwt>0</asrwt>
<pdfrwt beam="2">  1        4 0.43391161E-02 0.12499925E+03</pdfrwt>
<pdfrwt beam="1">  1       -4 0.21307221E-01 0.12499925E+03</pdfrwt>
<totfact> 0.96067805E+03</totfact>
</mgrwt>
</event>
<event>
 5    1  0.3296574E-054  0.1249997E+03  0.7818608E-02  0.1235070E+00
         -4   -1    0    0    0  501 -0.00000000000E+00  0.00000000000E+00  0.16497231772E+02  0.16558232277E+02  0.14200000000E+01 0. -1.
          4   -1    0    0  501    0  0.00000000000E+00 -0.00000000000E+00 -0.23628107198E+03  0.23628533890E+03  0.14200000000E+01 0.  1.
         25    2    1    2    0    0  0.00000000000E+00  0.00000000000E+00 -0.21978384021E+03  0.25284357117E+03  0.12499974026E+03 0.  0.
        -11    1    3    3    0    0 -0.42742338624E+02 -0.26992794332E+02 -0.35551550458E+02  0.61801546883E+02  0.51100000000E-03 0. -1.
         11    1    3    3    0    0  0.42742338624E+02  0.26992794332E+02 -0.18423228975E+03  0.19104202429E+03  0.51100000000E-03 0.  1.
<mgrwt>
<rscale>  0 0.12499974E+03</rscale>
<asrwt>0</asrwt>
<pdfrwt beam="2">  1        4 0.36355952E-01 0.12499974E+03</pdfrwt>
<pdfrwt beam="1">  1       -4 0.25430564E-02 0.12499974E+03</pdfrwt>
<totfact> 0.81921448E+03</totfact>
</mgrwt>
</event>
<event>
 5    1  0.3296574E-054  0.1250039E+03  0.7818608E-02  0.1235063E+00
         -4   -1    0    0    0  501 -0.00000000000E+00  0.00000000000E+00  0.34556816697E+02  0.34585979532E+02  0.14200000000E+01 0. -1.
          4   -1    0    0  501    0  0.00000000000E+00 -0.00000000000E+00 -0.11296418154E+03  0.11297310614E+03  0.14200000000E+01 0.  1.
         25    2    1    2    0    0  0.00000000000E+00  0.00000000000E+00 -0.78407364840E+02  0.14755908567E+03  0.12500387555E+03 0.  0.
        -11    1    3    3    0    0  0.50379426713E+02  0.31451367962E+02 -0.16216465122E+02  0.61564997555E+02  0.51100000000E-03 0. -1.
         11    1    3    3    0    0 -0.50379426713E+02 -0.31451367962E+02 -0.62190899719E+02  0.85994088115E+02  0.51100000000E-03 0.  1.
<mgrwt>
<rscale>  0 0.12500388E+03</rscale>
<asrwt>0</asrwt>
<pdfrwt beam="2">  1        4 0.17382035E-01 0.12500388E+03</pdfrwt>
<pdfrwt beam="1">  1       -4 0.53193632E-02 0.12500388E+03</pdfrwt>
<totfact> 0.99783796E+03</totfact>
</mgrwt>
</event>
<event>
 5    1  0.3296574E-054  0.1250066E+03  0.7818608E-02  0.1235059E+00
          4   -1    0    0  501    0  0.00000000000E+00  0.00000000000E+00  0.22595330548E+03  0.22595776742E+03  0.14200000000E+01 0. -1.
         -4   -1    0    0    0  501 -0.00000000000E+00 -0.00000000000E+00 -0.17255880336E+02  0.17314208216E+02  0.14200000000E+01 0.  1.
         25    2    1    2    0    0  0.00000000000E+00  0.00000000000E+00  0.20869742515E+03  0.24327197564E+03  0.12500655530E+03 0.  0.
        -11    1    3    3    0    0 -0.43088761666E+02  0.39471026942E+02  0.61180236040E+02  0.84602746007E+02  0.51100000000E-03 0.  1.
         11    1    3    3    0    0  0.43088761666E+02 -0.39471026942E+02  0.14751718911E+03  0.15866922963E+03  0.51100000000E-03 0. -1.
<mgrwt>
<rscale>  0 0.12500656E+03</rscale>
<asrwt>0</asrwt>
<pdfrwt beam="1">  1        4 0.34766873E-01 0.12500656E+03</pdfrwt>
<pdfrwt beam="2">  1       -4 0.26595811E-02 0.12500656E+03</pdfrwt>
<totfact> 0.83300297E+03</totfact>
</mgrwt>
</event>
<event>
 5    1  0.3296574E-054  0.1249993E+03  0.7818608E-02  0.1235070E+00
         -4   -1    0    0    0  501 -0.00000000000E+00  0.00000000000E+00  0.34647757038E+03  0.34648048023E+03  0.14200000000E+01 0. -1.
          4   -1    0    0  501    0  0.00000000000E+00 -0.00000000000E+00 -0.11226368417E+02  0.11315818478E+02  0.14200000000E+01 0.  1.
         25    2    1    2    0    0  0.00000000000E+00  0.00000000000E+00  0.33525120197E+03  0.35779629871E+03  0.12499929179E+03 0.  0.
        -11    1    3    3    0    0 -0.49084478020E+02  0.32004944813E+02  0.22985228355E+03  0.23720386744E+03  0.51100000000E-03 0. -1.
         11    1    3    3    0    0  0.49084478020E+02 -0.32004944813E+02  0.10539891842E+03  0.12059243127E+03  0.51100000000E-03 0.  1.
<mgrwt>
<rscale>  0 0.12499929E+03</rscale>
<asrwt>0</asrwt>
<pdfrwt beam="2">  1        4 0.17342385E-02 0.12499929E+03</pdfrwt>
<pdfrwt beam="1">  1       -4 0.53311336E-01 0.12499929E+03</pdfrwt>
<totfact> 0.68876383E+03</totfact>
</mgrwt>
</event>
<event>
 5    1  0.3296574E-054  0.1250263E+03  0.7818608E-02  0.1235028E+00
         -4   -1    0    0    0  501 -0.00000000000E+00  0.00000000000E+00  0.30915221883E+02  0.30947816467E+02  0.14200000000E+01 0. -1.
          4   -1    0    0  501    0  0.00000000000E+00 -0.00000000000E+00 -0.12630368796E+03  0.12631167006E+03  0.14200000000E+01 0.  1.
         25    2    1    2    0    0  0.00000000000E+00  0.00000000000E+00 -0.95388466076E+02  0.15725948652E+03  0.12502634379E+03 0.  0.
        -11    1    3    3    0    0  0.18356470687E+02  0.58382949380E+02 -0.31666748628E+02  0.68907994915E+02  0.51100000000E-03 0. -1.
         11    1    3    3    0    0 -0.18356470687E+02 -0.58382949380E+02 -0.63721717448E+02  0.88351491607E+02  0.51100000000E-03 0.  1.
<mgrwt>
<rscale>  0 0.12502634E+03</rscale>
<asrwt>0</asrwt>
<pdfrwt beam="2">  1        4 0.19434458E-01 0.12502634E+03</pdfrwt>
<pdfrwt beam="1">  1       -4 0.47593093E-02 0.12502634E+03</pdfrwt>
<totfact> 0.97815801E+03</totfact>
</mgrwt>
</event>
<event>
 5    1  0.3296574E-054  0.1250003E+03  0.7818608E-02  0.1235069E+00
         -4   -1    0    0    0  501 -0.00000000000E+00  0.00000000000E+00  0.20287540351E+03  0.20288037300E+03  0.14200000000E+01 0.  1.
          4   -1    0    0  501    0  0.00000000000E+00 -0.00000000000E+00 -0.19223127110E+02  0.19275502999E+02  0.14200000000E+01 0. -1.
         25    2    1    2    0    0  0.00000000000E+00  0.00000000000E+00  0.18365227640E+03  0.22215587600E+03  0.12500029846E+03 0.  0.
        -11    1    3    3    0    0 -0.34092669638E+02  0.52084632678E+02  0.10174524982E+03  0.11927788959E+03  0.51100000000E-03 0.  1.
         11    1    3    3    0    0  0.34092669638E+02 -0.52084632678E+02  0.81907026578E+02  0.10287798641E+03  0.51100000000E-03 0. -1.
<mgrwt>
<rscale>  0 0.12500030E+03</rscale>
<asrwt>0</asrwt>
<pdfrwt beam="2">  1        4 0.29618152E-02 0.12500030E+03</pdfrwt>
<pdfrwt beam="1">  1       -4 0.31216013E-01 0.12500030E+03</pdfrwt>
<totfact> 0.86527777E+03</totfact>
</mgrwt>
</event>
