<event>
 5    1  0.2799021E+000  0.9276103E+02  0.7818608E-02  0.1296300E+00
         -2   -1    0    0    0  501 -0.00000000000E+00  0.00000000000E+00  0.95331136280E+01  0.95331139826E+01  0.26000000000E-02 0. -1.
          2   -1    0    0  501    0  0.00000000000E+00 -0.00000000000E+00 -0.22565052204E+03  0.22565052206E+03  0.26000000000E-02 0.  1.
         23    2    1    2    0    0  0.00000000000E+00  0.00000000000E+00 -0.21611740841E+03  0.23518363604E+03  0.92761028677E+02 0.  0.
        -11    1    3    3    0    0  0.77275904250E+01  0.41341119835E+02 -0.15763466132E+03  0.16314867542E+03  0.51100000000E-03 0.  1.
         11    1    3    3    0    0 -0.77275904250E+01 -0.41341119835E+02 -0.58482747096E+02  0.72034960617E+02  0.51100000000E-03 0. -1.
<mgrwt>
<rscale>  0 0.92761029E+02</rscale>
<asrwt>0</asrwt>
<pdfrwt beam="2">  1        2 0.34715461E-01 0.92761029E+02</pdfrwt>
<pdfrwt beam="1">  1       -2 0.14666331E-02 0.92761029E+02</pdfrwt>
<totfact> 0.15431970E+05</totfact>
</mgrwt>
</event>
<event>
 5    1  0.2799021E+000  0.9112052E+02  0.7818608E-02  0.1300161E+00
         -2   -1    0    0    0  501 -0.00000000000E+00  0.00000000000E+00  0.23762291495E+02  0.23762291637E+02  0.26000000000E-02 0.  1.
          2   -1    0    0  501    0  0.00000000000E+00 -0.00000000000E+00 -0.87354261808E+02  0.87354261847E+02  0.26000000000E-02 0. -1.
         23    2    1    2    0    0  0.00000000000E+00  0.00000000000E+00 -0.63591970313E+02  0.11111655348E+03  0.91120523319E+02 0.  0.
        -11    1    3    3    0    0 -0.23660234788E+02 -0.36448697554E+02 -0.48490515530E+02  0.65112551480E+02  0.51100000000E-03 0.  1.
         11    1    3    3    0    0  0.23660234788E+02  0.36448697554E+02 -0.15101454783E+02  0.46004002004E+02  0.51100000000E-03 0. -1.
<mgrwt>
<rscale>  0 0.91120523E+02</rscale>
<asrwt>0</asrwt>
<pdfrwt beam="2">  1        2 0.13439117E-01 0.91120523E+02</pdfrwt>
<pdfrwt beam="1">  1       -2 0.36557372E-02 0.91120523E+02</pdfrwt>
<totfact> 0.11802041E+05</totfact>
</mgrwt>
</event>
<event>
 5    1  0.2799021E+000  0.9220239E+02  0.7818608E-02  0.1297604E+00
          2   -1    0    0  501    0  0.00000000000E+00  0.00000000000E+00  0.33466875060E+02  0.33466875161E+02  0.26000000000E-02 0.  1.
         -2   -1    0    0    0  501 -0.00000000000E+00 -0.00000000000E+00 -0.63505186616E+02  0.63505186669E+02  0.26000000000E-02 0. -1.
         23    2    1    2    0    0  0.00000000000E+00  0.00000000000E+00 -0.30038311556E+02  0.96972061830E+02  0.92202389418E+02 0.  0.
        -11    1    3    3    0    0  0.71130113748E+01  0.26094242189E+02  0.24245983041E+02  0.36323162034E+02  0.51100000000E-03 0.  1.
         11    1    3    3    0    0 -0.71130113748E+01 -0.26094242189E+02 -0.54284294598E+02  0.60648899796E+02  0.51100000000E-03 0. -1.
<mgrwt>
<rscale>  0 0.92202389E+02</rscale>
<asrwt>0</asrwt>
<pdfrwt beam="1">  1        2 0.51487500E-02 0.92202389E+02</pdfrwt>
<pdfrwt beam="2">  1       -2 0.97700287E-02 0.92202389E+02</pdfrwt>
<totfact> 0.88111713E+04</totfact>
</mgrwt>
</event>
<event>
 5    1  0.2799021E+000  0.9144194E+02  0.7818608E-02  0.1299397E+00
          2   -1    0    0  501    0  0.00000000000E+00  0.00000000000E+00  0.34042237732E+03  0.34042237733E+03  0.26000000000E-02 0.  1.
         -2   -1    0    0    0  501 -0.00000000000E+00 -0.00000000000E+00 -0.61406270104E+01  0.61406275608E+01  0.26000000000E-02 0. -1.
         23    2    1    2    0    0  0.00000000000E+00  0.00000000000E+00  0.33428175031E+03  0.34656300490E+03  0.91441936599E+02 0.  0.
        -11    1    3    3    0    0 -0.45621700719E+02  0.74547712637E+00  0.17819802351E+03  0.18394681540E+03  0.51100000000E-03 0.  1.
         11    1    3    3    0    0  0.45621700719E+02 -0.74547712637E+00  0.15608372681E+03  0.16261618950E+03  0.51100000000E-03 0. -1.
<mgrwt>
<rscale>  0 0.91441937E+02</rscale>
<asrwt>0</asrwt>
<pdfrwt beam="1">  1        2 0.52372693E-01 0.91441937E+02</pdfrwt>
<pdfrwt beam="2">  1       -2 0.94471155E-03 0.91441937E+02</pdfrwt>
<totfact> 0.18682056E+05</totfact>
</mgrwt>
</event>
<event>
 5    1  0.2799021E+000  0.9044208E+02  0.7818608E-02  0.1301785E+00
          2   -1    0    0  501    0  0.00000000000E+00  0.00000000000E+00  0.88238883125E+02  0.88238883163E+02  0.26000000000E-02 0. -1.
         -2   -1    0    0    0  501 -0.00000000000E+00 -0.00000000000E+00 -0.23175073866E+02  0.23175074012E+02  0.26000000000E-02 0.  1.
         23    2    1    2    0    0  0.00000000000E+00  0.00000000000E+00  0.65063809259E+02  0.11141395718E+03  0.90442084110E+02 0.  0.
        -11    1    3    3    0    0  0.26224376256E+02 -0.33917005267E+02  0.14814142761E+02  0.45360114443E+02  0.51100000000E-03 0.  1.
         11    1    3    3    0    0 -0.26224376256E+02  0.33917005267E+02  0.50249666498E+02  0.66053842732E+02  0.51100000000E-03 0. -1.
<mgrwt>
<rscale>  0 0.90442084E+02</rscale>
<asrwt>0</asrwt>
<pdfrwt beam="1">  1        2 0.13575213E-01 0.90442084E+02</pdfrwt>
<pdfrwt beam="2">  1       -2 0.35653959E-02 0.90442084E+02</pdfrwt>
<totfact> 0.12084004E+05</totfact>
</mgrwt>
</event>
<event>
 5    1  0.2799021E+000  0.9154207E+02  0.7818608E-02  0.1299160E+00
          2   -1    0    0  501    0  0.00000000000E+00  0.00000000000E+00  0.15452597756E+02  0.15452597975E+02  0.26000000000E-02 0. -1.
         -2   -1    0    0    0  501 -0.00000000000E+00 -0.00000000000E+00 -0.13557511097E+03  0.13557511100E+03  0.26000000000E-02 0.  1.
         23    2    1    2    0    0  0.00000000000E+00  0.00000000000E+00 -0.12012251321E+03  0.15102770897E+03  0.91542070633E+02 0.  0.
        -11    1    3    3    0    0 -0.15670623700E+02  0.26446068384E+02 -0.11600989034E+03  0.12001357272E+03  0.51100000000E-03 0.  1.
         11    1    3    3    0    0  0.15670623700E+02 -0.26446068384E+02 -0.41126228740E+01  0.31014136249E+02  0.51100000000E-03 0. -1.
<mgrwt>
<rscale>  0 0.91542071E+02</rscale>
<asrwt>0</asrwt>
<pdfrwt beam="1">  1        2 0.23773228E-02 0.91542071E+02</pdfrwt>
<pdfrwt beam="2">  1       -2 0.20857709E-01 0.91542071E+02</pdfrwt>
<totfact> 0.71676588E+04</totfact>
</mgrwt>
</event>
<event>
 5    1  0.2799021E+000  0.9222297E+02  0.7818608E-02  0.1297556E+00
         -2   -1    0    0    0  501 -0.00000000000E+00  0.00000000000E+00  0.12057719446E+03  0.12057719448E+03  0.26000000000E-02 0.  1.
          2   -1    0    0  501    0  0.00000000000E+00 -0.00000000000E+00 -0.17634089006E+02  0.17634089197E+02  0.26000000000E-02 0. -1.
         23    2    1    2    0    0  0.00000000000E+00  0.00000000000E+00  0.10294310545E+03  0.13821128368E+03  0.92222968815E+02 0.  0.
        -11    1    3    3    0    0 -0.20123994030E+02 -0.17394264929E+02  0.10792036381E+03  0.11115008103E+03  0.51100000000E-03 0.  1.
         11    1    3    3    0    0  0.20123994030E+02  0.17394264929E+02 -0.49772583544E+01  0.27061202655E+02  0.51100000000E-03 0. -1.
<mgrwt>
<rscale>  0 0.92222969E+02</rscale>
<asrwt>0</asrwt>
<pdfrwt beam="2">  1        2 0.27129367E-02 0.92222969E+02</pdfrwt>
<pdfrwt beam="1">  1       -2 0.18550338E-01 0.92222969E+02</pdfrwt>
<totfact> 0.73171976E+04</totfact>
</mgrwt>
</event>
<event>
 5    1  0.2799021E+000  0.8975120E+02  0.7818608E-02  0.1303455E+00
         -2   -1    0    0    0  501 -0.00000000000E+00  0.00000000000E+00  0.27493017150E+03  0.27493017151E+03  0.26000000000E-02 0.  1.
          2   -1    0    0  501    0  0.00000000000E+00 -0.00000000000E+00 -0.73248401341E+01  0.73248405955E+01  0.26000000000E-02 0. -1.
         23    2    1    2    0    0  0.00000000000E+00  0.00000000000E+00  0.26760533136E+03  0.28225501210E+03  0.89751203248E+02 0.  0.
        -11    1    3    3    0    0 -0.16946881203E+01  0.36485363468E+02  0.21579647660E+03  0.21886565064E+03  0.51100000000E-03 0.  1.
         11    1    3    3    0    0  0.16946881203E+01 -0.36485363468E+02  0.51808854762E+02  0.63389361467E+02  0.51100000000E-03 0. -1.
<mgrwt>
<rscale>  0 0.89751203E+02</rscale>
<asrwt>0</asrwt>
<pdfrwt beam="2">  1        2 0.11268984E-02 0.89751203E+02</pdfrwt>
<pdfrwt beam="1">  1       -2 0.42296954E-01 0.89751203E+02</pdfrwt>
<totfact> 0.55702976E+04</totfact>
</mgrwt>
</event>
<event>
 5    1  0.2799021E+000  0.8241395E+02  0.7818608E-02  0.1322337E+00
         -2   -1    0    0    0  501 -0.00000000000E+00  0.00000000000E+00  0.92574691890E+01  0.92574695541E+01  0.26000000000E-02 0.  1.
          2   -1    0    0  501    0  0.00000000000E+00 -0.00000000000E+00 -0.18342107143E+03  0.18342107145E+03  0.26000000000E-02 0. -1.
         23    2    1    2    0    0  0.00000000000E+00  0.00000000000E+00 -0.17416360224E+03  0.19267854100E+03  0.82413954020E+02 0.  0.
        -11    1    3    3    0    0 -0.35917312700E+02  0.14106520903E+02 -0.12087833397E+03  0.12688821421E+03  0.51100000000E-03 0. -1.
         11    1    3    3    0    0  0.35917312700E+02 -0.14106520903E+02 -0.53285268273E+02  0.65790326788E+02  0.51100000000E-03 0.  1.
<mgrwt>
<rscale>  0 0.82413954E+02</rscale>
<asrwt>0</asrwt>
<pdfrwt beam="2">  1        2 0.28218624E-01 0.82413954E+02</pdfrwt>
<pdfrwt beam="1">  1       -2 0.14242262E-02 0.82413954E+02</pdfrwt>
<totfact> 0.19659257E+05</totfact>
</mgrwt>
</event>
<event>
 5    1  0.2799021E+000  0.8814489E+02  0.7818608E-02  0.1307407E+00
         -2   -1    0    0    0  501 -0.00000000000E+00  0.00000000000E+00  0.54916310608E+02  0.54916310669E+02  0.26000000000E-02 0.  1.
          2   -1    0    0  501    0  0.00000000000E+00 -0.00000000000E+00 -0.35369827023E+02  0.35369827118E+02  0.26000000000E-02 0. -1.
         23    2    1    2    0    0  0.00000000000E+00  0.00000000000E+00  0.19546483585E+02  0.90286137788E+02  0.88144890130E+02 0.  0.
        -11    1    3    3    0    0 -0.26441849621E+02  0.29559787506E+02  0.29460662339E+02  0.49405293993E+02  0.51100000000E-03 0.  1.
         11    1    3    3    0    0  0.26441849621E+02 -0.29559787506E+02 -0.99141787543E+01  0.40880843795E+02  0.51100000000E-03 0. -1.
<mgrwt>
<rscale>  0 0.88144890E+02</rscale>
<asrwt>0</asrwt>
<pdfrwt beam="2">  1        2 0.54415119E-02 0.88144890E+02</pdfrwt>
<pdfrwt beam="1">  1       -2 0.84486632E-02 0.88144890E+02</pdfrwt>
<totfact> 0.10195014E+05</totfact>
</mgrwt>
</event>
<event>
 5    1  0.2799021E+000  0.8862656E+02  0.7818608E-02  0.1306212E+00
         -2   -1    0    0    0  501 -0.00000000000E+00  0.00000000000E+00  0.25819503400E+02  0.25819503531E+02  0.26000000000E-02 0.  1.
          2   -1    0    0  501    0  0.00000000000E+00 -0.00000000000E+00 -0.76053619952E+02  0.76053619997E+02  0.26000000000E-02 0. -1.
         23    2    1    2    0    0  0.00000000000E+00  0.00000000000E+00 -0.50234116552E+02  0.10187312353E+03  0.88626558274E+02 0.  0.
        -11    1    3    3    0    0 -0.22891383234E+02  0.19977879823E+02 -0.62195733549E+02  0.69220231006E+02  0.51100000000E-03 0.  1.
         11    1    3    3    0    0  0.22891383234E+02 -0.19977879823E+02  0.11961616997E+02  0.32652892522E+02  0.51100000000E-03 0. -1.
<mgrwt>
<rscale>  0 0.88626558E+02</rscale>
<asrwt>0</asrwt>
<pdfrwt beam="2">  1        2 0.11700557E-01 0.88626558E+02</pdfrwt>
<pdfrwt beam="1">  1       -2 0.39722313E-02 0.88626558E+02</pdfrwt>
<totfact> 0.12249693E+05</totfact>
</mgrwt>
</event>
<event>
 5    1  0.2799021E+000  0.9264629E+02  0.7818608E-02  0.1296567E+00
         -2   -1    0    0    0  501 -0.00000000000E+00  0.00000000000E+00  0.11494902348E+02  0.11494902642E+02  0.26000000000E-02 0.  1.
          2   -1    0    0  501    0  0.00000000000E+00 -0.00000000000E+00 -0.18667700441E+03  0.18667700443E+03  0.26000000000E-02 0. -1.
         23    2    1    2    0    0  0.00000000000E+00  0.00000000000E+00 -0.17518210206E+03  0.19817190707E+03  0.92646294417E+02 0.  0.
        -11    1    3    3    0    0 -0.13359085368E+02  0.43093375818E+02 -0.65123259616E+02  0.79224637232E+02  0.51100000000E-03 0. -1.
         11    1    3    3    0    0  0.13359085368E+02 -0.43093375818E+02 -0.11005884245E+03  0.11894726984E+03  0.51100000000E-03 0.  1.
<mgrwt>
<rscale>  0 0.92646294E+02</rscale>
<asrwt>0</asrwt>
<pdfrwt beam="2">  1        2 0.28719537E-01 0.92646294E+02</pdfrwt>
<pdfrwt beam="1">  1       -2 0.17684467E-02 0.92646294E+02</pdfrwt>
<totfact> 0.14451277E+05</totfact>
</mgrwt>
</event>
<event>
 5    1  0.2799021E+000  0.9004642E+02  0.7818608E-02  0.1302739E+00
          2   -1    0    0  501    0  0.00000000000E+00  0.00000000000E+00  0.24045450492E+03  0.24045450494E+03  0.26000000000E-02 0. -1.
         -2   -1    0    0    0  501 -0.00000000000E+00 -0.00000000000E+00 -0.84302415882E+01  0.84302419891E+01  0.26000000000E-02 0.  1.
         23    2    1    2    0    0  0.00000000000E+00  0.00000000000E+00  0.23202426333E+03  0.24888474693E+03  0.90046424007E+02 0.  0.
        -11    1    3    3    0    0  0.36197120974E+02  0.21306443303E+02  0.71197301343E+02  0.82663485360E+02  0.51100000000E-03 0.  1.
         11    1    3    3    0    0 -0.36197120974E+02 -0.21306443303E+02  0.16082696199E+03  0.16622126157E+03  0.51100000000E-03 0. -1.
<mgrwt>
<rscale>  0 0.90046424E+02</rscale>
<asrwt>0</asrwt>
<pdfrwt beam="1">  1        2 0.36992996E-01 0.90046424E+02</pdfrwt>
<pdfrwt beam="2">  1       -2 0.12969604E-02 0.90046424E+02</pdfrwt>
<totfact> 0.17108154E+05</totfact>
</mgrwt>
</event>
<event>
 5    1  0.2799021E+000  0.9213388E+02  0.7818608E-02  0.1297765E+00
         -2   -1    0    0    0  501 -0.00000000000E+00  0.00000000000E+00  0.80947593360E+01  0.80947597535E+01  0.26000000000E-02 0.  1.
          2   -1    0    0  501    0  0.00000000000E+00 -0.00000000000E+00 -0.26216506098E+03  0.26216506099E+03  0.26000000000E-02 0. -1.
         23    2    1    2    0    0  0.00000000000E+00  0.00000000000E+00 -0.25407030164E+03  0.27025982074E+03  0.92133883736E+02 0.  0.
        -11    1    3    3    0    0  0.45443522277E+02 -0.20471055822E+01 -0.10570859855E+03  0.11508089401E+03  0.51100000000E-03 0.  1.
         11    1    3    3    0    0 -0.45443522277E+02  0.20471055822E+01 -0.14836170309E+03  0.15517892673E+03  0.51100000000E-03 0. -1.
<mgrwt>
<rscale>  0 0.92133884E+02</rscale>
<asrwt>0</asrwt>
<pdfrwt beam="2">  1        2 0.40333080E-01 0.92133884E+02</pdfrwt>
<pdfrwt beam="1">  1       -2 0.12453478E-02 0.92133884E+02</pdfrwt>
<totfact> 0.16613663E+05</totfact>
</mgrwt>
</event>
<event>
 5    1  0.2799021E+000  0.9186502E+02  0.7818608E-02  0.1298397E+00
         -2   -1    0    0    0  501 -0.00000000000E+00  0.00000000000E+00  0.51200142184E+02  0.51200142250E+02  0.26000000000E-02 0.  1.
          2   -1    0    0  501    0  0.00000000000E+00 -0.00000000000E+00 -0.41206825500E+02  0.41206825582E+02  0.26000000000E-02 0. -1.
         23    2    1    2    0    0  0.00000000000E+00  0.00000000000E+00  0.99933166832E+01  0.92406967832E+02  0.91865016876E+02 0.  0.
        -11    1    3    3    0    0 -0.39402547280E+02  0.22501278182E+02 -0.21817629829E+01  0.45427176249E+02  0.51100000000E-03 0.  1.
         11    1    3    3    0    0  0.39402547280E+02 -0.22501278182E+02  0.12175079666E+02  0.46979791583E+02  0.51100000000E-03 0. -1.
<mgrwt>
<rscale>  0 0.91865017E+02</rscale>
<asrwt>0</asrwt>
<pdfrwt beam="2">  1        2 0.63395117E-02 0.91865017E+02</pdfrwt>
<pdfrwt beam="1">  1       -2 0.78769449E-02 0.91865017E+02</pdfrwt>
<totfact> 0.94054864E+04</totfact>
</mgrwt>
</event>
<event>
 5    1  0.2799021E+000  0.9103275E+02  0.7818608E-02  0.1300370E+00
         -2   -1    0    0    0  501 -0.00000000000E+00  0.00000000000E+00  0.10595065159E+03  0.10595065162E+03  0.26000000000E-02 0.  1.
          2   -1    0    0  501    0  0.00000000000E+00 -0.00000000000E+00 -0.19553822829E+02  0.19553823002E+02  0.26000000000E-02 0. -1.
         23    2    1    2    0    0  0.00000000000E+00  0.00000000000E+00  0.86396828762E+02  0.12550447463E+03  0.91032747574E+02 0.  0.
        -11    1    3    3    0    0  0.23019932591E+02 -0.55489020130E+01  0.96790231977E+02  0.99644651720E+02  0.51100000000E-03 0.  1.
         11    1    3    3    0    0 -0.23019932591E+02  0.55489020130E+01 -0.10393403215E+02  0.25859822905E+02  0.51100000000E-03 0. -1.
<mgrwt>
<rscale>  0 0.91032748E+02</rscale>
<asrwt>0</asrwt>
<pdfrwt beam="2">  1        2 0.30082804E-02 0.91032748E+02</pdfrwt>
<pdfrwt beam="1">  1       -2 0.16300100E-01 0.91032748E+02</pdfrwt>
<totfact> 0.78736229E+04</totfact>
</mgrwt>
</event>
<event>
 5    1  0.2799021E+000  0.9331848E+02  0.7818608E-02  0.1295009E+00
         -2   -1    0    0    0  501 -0.00000000000E+00  0.00000000000E+00  0.32158452293E+02  0.32158452398E+02  0.26000000000E-02 0.  1.
          2   -1    0    0  501    0  0.00000000000E+00 -0.00000000000E+00 -0.67698674365E+02  0.67698674415E+02  0.26000000000E-02 0. -1.
         23    2    1    2    0    0  0.00000000000E+00  0.00000000000E+00 -0.35540222072E+02  0.99857126813E+02  0.93318478290E+02 0.  0.
        -11    1    3    3    0    0 -0.20923958397E+02  0.34552357098E+02  0.72202104798E+01  0.41034240040E+02  0.51100000000E-03 0.  1.
         11    1    3    3    0    0  0.20923958397E+02 -0.34552357098E+02 -0.42760432551E+02  0.58822886773E+02  0.51100000000E-03 0. -1.
<mgrwt>
<rscale>  0 0.93318478E+02</rscale>
<asrwt>0</asrwt>
<pdfrwt beam="2">  1        2 0.10415181E-01 0.93318478E+02</pdfrwt>
<pdfrwt beam="1">  1       -2 0.49474542E-02 0.93318478E+02</pdfrwt>
<totfact> 0.10267990E+05</totfact>
</mgrwt>
</event>
<event>
 5    1  0.2799021E+000  0.9225137E+02  0.7818608E-02  0.1297489E+00
          2   -1    0    0  501    0  0.00000000000E+00  0.00000000000E+00  0.77023792338E+01  0.77023796726E+01  0.26000000000E-02 0. -1.
         -2   -1    0    0    0  501 -0.00000000000E+00 -0.00000000000E+00 -0.27622359617E+03  0.27622359618E+03  0.26000000000E-02 0.  1.
         23    2    1    2    0    0  0.00000000000E+00  0.00000000000E+00 -0.26852121694E+03  0.28392597585E+03  0.92251372999E+02 0.  0.
        -11    1    3    3    0    0 -0.76807531952E+00 -0.40856208545E+02 -0.68411356250E+02  0.79686469245E+02  0.51100000000E-03 0. -1.
         11    1    3    3    0    0  0.76807531952E+00  0.40856208545E+02 -0.20010986068E+03  0.20423950661E+03  0.51100000000E-03 0.  1.
<mgrwt>
<rscale>  0 0.92251373E+02</rscale>
<asrwt>0</asrwt>
<pdfrwt beam="1">  1        2 0.11849817E-02 0.92251373E+02</pdfrwt>
<pdfrwt beam="2">  1       -2 0.42495930E-01 0.92251373E+02</pdfrwt>
<totfact> 0.51774380E+04</totfact>
</mgrwt>
</event>
<event>
 5    1  0.2799021E+000  0.6957455E+02  0.7818608E-02  0.1361546E+00
          2   -1    0    0  501    0  0.00000000000E+00  0.00000000000E+00  0.86674963541E+02  0.86674963580E+02  0.26000000000E-02 0. -1.
         -2   -1    0    0    0  501 -0.00000000000E+00 -0.00000000000E+00 -0.13961982468E+02  0.13961982710E+02  0.26000000000E-02 0.  1.
         23    2    1    2    0    0  0.00000000000E+00  0.00000000000E+00  0.72712981073E+02  0.10063694629E+03  0.69574545216E+02 0.  0.
        -11    1    3    3    0    0 -0.23766781180E+01  0.15408405892E+02  0.81338597475E+02  0.82819291294E+02  0.51100000000E-03 0. -1.
         11    1    3    3    0    0  0.23766781180E+01 -0.15408405892E+02 -0.86256164013E+01  0.17817654996E+02  0.51100000000E-03 0.  1.
<mgrwt>
<rscale>  0 0.69574545E+02</rscale>
<asrwt>0</asrwt>
<pdfrwt beam="1">  1        2 0.13334610E-01 0.69574545E+02</pdfrwt>
<pdfrwt beam="2">  1       -2 0.21479973E-02 0.69574545E+02</pdfrwt>
<totfact> 0.24475710E+05</totfact>
</mgrwt>
</event>
<event>
 5    1  0.2799021E+000  0.8841285E+02  0.7818608E-02  0.1306741E+00
         -2   -1    0    0    0  501 -0.00000000000E+00  0.00000000000E+00  0.23615461190E+03  0.23615461191E+03  0.26000000000E-02 0.  1.
          2   -1    0    0  501    0  0.00000000000E+00 -0.00000000000E+00 -0.82751201596E+01  0.82751205680E+01  0.26000000000E-02 0. -1.
         23    2    1    2    0    0  0.00000000000E+00  0.00000000000E+00  0.22787949174E+03  0.24442973248E+03  0.88412846156E+02 0.  0.
        -11    1    3    3    0    0 -0.28969411619E+01 -0.43524209852E+02  0.94107669242E+02  0.10372561170E+03  0.51100000000E-03 0. -1.
         11    1    3    3    0    0  0.28969411619E+01  0.43524209852E+02  0.13377182249E+03  0.14070412078E+03  0.51100000000E-03 0.  1.
<mgrwt>
<rscale>  0 0.88412846E+02</rscale>
<asrwt>0</asrwt>
<pdfrwt beam="2">  1        2 0.12730954E-02 0.88412846E+02</pdfrwt>
<pdfrwt beam="1">  1       -2 0.36331479E-01 0.88412846E+02</pdfrwt>
<totfact> 0.62504347E+04</totfact>
</mgrwt>
</event>
<event>
 5    1  0.2799021E+000  0.9003269E+02  0.7818608E-02  0.1302773E+00
          2   -1    0    0  501    0  0.00000000000E+00  0.00000000000E+00  0.14504416439E+03  0.14504416442E+03  0.26000000000E-02 0. -1.
         -2   -1    0    0    0  501 -0.00000000000E+00 -0.00000000000E+00 -0.13971407843E+02  0.13971408085E+02  0.26000000000E-02 0.  1.
         23    2    1    2    0    0  0.00000000000E+00  0.00000000000E+00  0.13107275655E+03  0.15901557250E+03  0.90032687333E+02 0.  0.
        -11    1    3    3    0    0  0.38824817803E+02  0.12685546536E+01  0.10571478657E+03  0.11262589315E+03  0.51100000000E-03 0. -1.
         11    1    3    3    0    0 -0.38824817803E+02 -0.12685546536E+01  0.25357969978E+02  0.46389679348E+02  0.51100000000E-03 0.  1.
<mgrwt>
<rscale>  0 0.90032687E+02</rscale>
<asrwt>0</asrwt>
<pdfrwt beam="1">  1        2 0.22314488E-01 0.90032687E+02</pdfrwt>
<pdfrwt beam="2">  1       -2 0.21494473E-02 0.90032687E+02</pdfrwt>
<totfact> 0.14304503E+05</totfact>
</mgrwt>
</event>
<event>
 5    1  0.2799021E+000  0.9027665E+02  0.7818608E-02  0.1302183E+00
         -2   -1    0    0    0  501 -0.00000000000E+00  0.00000000000E+00  0.91650858753E+01  0.91650862441E+01  0.26000000000E-02 0.  1.
          2   -1    0    0  501    0  0.00000000000E+00 -0.00000000000E+00 -0.22230762380E+03  0.22230762381E+03  0.26000000000E-02 0. -1.
         23    2    1    2    0    0  0.00000000000E+00  0.00000000000E+00 -0.21314253792E+03  0.23147271006E+03  0.90276652735E+02 0.  0.
        -11    1    3    3    0    0  0.17358134299E+02  0.36560300197E+02 -0.15782047708E+03  0.16292717196E+03  0.51100000000E-03 0. -1.
         11    1    3    3    0    0 -0.17358134299E+02 -0.36560300197E+02 -0.55322060840E+02  0.68545538095E+02  0.51100000000E-03 0.  1.
<mgrwt>
<rscale>  0 0.90276653E+02</rscale>
<asrwt>0</asrwt>
<pdfrwt beam="2">  1        2 0.34201169E-01 0.90276653E+02</pdfrwt>
<pdfrwt beam="1">  1       -2 0.14100134E-02 0.90276653E+02</pdfrwt>
<totfact> 0.16508969E+05</totfact>
</mgrwt>
</event>
<event>
 5    1  0.2799021E+000  0.8998774E+02  0.7818608E-02  0.1302881E+00
          2   -1    0    0  501    0  0.00000000000E+00  0.00000000000E+00  0.21808651372E+02  0.21808651527E+02  0.26000000000E-02 0.  1.
         -2   -1    0    0    0  501 -0.00000000000E+00 -0.00000000000E+00 -0.92827773387E+02  0.92827773423E+02  0.26000000000E-02 0. -1.
         23    2    1    2    0    0  0.00000000000E+00  0.00000000000E+00 -0.71019122014E+02  0.11463642495E+03  0.89987744909E+02 0.  0.
        -11    1    3    3    0    0  0.21553873324E+02 -0.58257977596E+01  0.14253590639E+02  0.26489134020E+02  0.51100000000E-03 0.  1.
         11    1    3    3    0    0 -0.21553873324E+02  0.58257977596E+01 -0.85272712653E+02  0.88147290930E+02  0.51100000000E-03 0. -1.
<mgrwt>
<rscale>  0 0.89987745E+02</rscale>
<asrwt>0</asrwt>
<pdfrwt beam="1">  1        2 0.33551772E-02 0.89987745E+02</pdfrwt>
<pdfrwt beam="2">  1       -2 0.14281196E-01 0.89987745E+02</pdfrwt>
<totfact> 0.84268783E+04</totfact>
</mgrwt>
</event>
<event>
 5    1  0.2799021E+000  0.9684018E+02  0.7818608E-02  0.1287085E+00
          2   -1    0    0  501    0  0.00000000000E+00  0.00000000000E+00  0.53069698634E+03  0.53069698635E+03  0.26000000000E-02 0.  1.
         -2   -1    0    0    0  501 -0.00000000000E+00 -0.00000000000E+00 -0.44177843116E+01  0.44177850767E+01  0.26000000000E-02 0. -1.
         23    2    1    2    0    0  0.00000000000E+00  0.00000000000E+00  0.52627920203E+03  0.53511477143E+03  0.96840178168E+02 0.  0.
        -11    1    3    3    0    0 -0.47693104980E+02 -0.74937153179E+01  0.28360502966E+03  0.28768489860E+03  0.51100000000E-03 0. -1.
         11    1    3    3    0    0  0.47693104980E+02  0.74937153179E+01  0.24267417237E+03  0.24742987283E+03  0.51100000000E-03 0.  1.
<mgrwt>
<rscale>  0 0.96840178E+02</rscale>
<asrwt>0</asrwt>
<pdfrwt beam="1">  1        2 0.81645663E-01 0.96840178E+02</pdfrwt>
<pdfrwt beam="2">  1       -2 0.67965941E-03 0.96840178E+02</pdfrwt>
<totfact> 0.18717346E+05</totfact>
</mgrwt>
</event>
<event>
 5    1  0.2799021E+000  0.7727691E+02  0.7818608E-02  0.1336962E+00
          2   -1    0    0  501    0  0.00000000000E+00  0.00000000000E+00  0.21711751051E+02  0.21711751206E+02  0.26000000000E-02 0. -1.
         -2   -1    0    0    0  501 -0.00000000000E+00 -0.00000000000E+00 -0.68761382587E+02  0.68761382637E+02  0.26000000000E-02 0.  1.
         23    2    1    2    0    0  0.00000000000E+00  0.00000000000E+00 -0.47049631537E+02  0.90473133843E+02  0.77276905474E+02 0.  0.
        -11    1    3    3    0    0 -0.12948799796E+01 -0.21669748556E+02  0.13897129652E+02  0.25775665451E+02  0.51100000000E-03 0. -1.
         11    1    3    3    0    0  0.12948799796E+01  0.21669748556E+02 -0.60946761189E+02  0.64697468392E+02  0.51100000000E-03 0.  1.
<mgrwt>
<rscale>  0 0.77276905E+02</rscale>
<asrwt>0</asrwt>
<pdfrwt beam="1">  1        2 0.33402694E-02 0.77276905E+02</pdfrwt>
<pdfrwt beam="2">  1       -2 0.10578674E-01 0.77276905E+02</pdfrwt>
<totfact> 0.13272491E+05</totfact>
</mgrwt>
</event>
<event>
 5    1  0.2799021E+000  0.9128738E+02  0.7818608E-02  0.1299764E+00
          2   -1    0    0  501    0  0.00000000000E+00  0.00000000000E+00  0.14639511362E+03  0.14639511365E+03  0.26000000000E-02 0. -1.
         -2   -1    0    0    0  501 -0.00000000000E+00 -0.00000000000E+00 -0.14230982399E+02  0.14230982637E+02  0.26000000000E-02 0.  1.
         23    2    1    2    0    0  0.00000000000E+00  0.00000000000E+00  0.13216413122E+03  0.16062609628E+03  0.91287377139E+02 0.  0.
        -11    1    3    3    0    0 -0.15931863635E+02 -0.19062926069E+02 -0.12917514888E+01  0.24877460709E+02  0.51100000000E-03 0.  1.
         11    1    3    3    0    0  0.15931863635E+02  0.19062926069E+02  0.13345588271E+03  0.13574863557E+03  0.51100000000E-03 0. -1.
<mgrwt>
<rscale>  0 0.91287377E+02</rscale>
<asrwt>0</asrwt>
<pdfrwt beam="1">  1        2 0.22522326E-01 0.91287377E+02</pdfrwt>
<pdfrwt beam="2">  1       -2 0.21893819E-02 0.91287377E+02</pdfrwt>
<totfact> 0.13820488E+05</totfact>
</mgrwt>
</event>
<event>
 5    1  0.2799021E+000  0.9112002E+02  0.7818608E-02  0.1300162E+00
          2   -1    0    0  501    0  0.00000000000E+00  0.00000000000E+00  0.12493862203E+03  0.12493862206E+03  0.26000000000E-02 0.  1.
         -2   -1    0    0    0  501 -0.00000000000E+00 -0.00000000000E+00 -0.16613872168E+02  0.16613872371E+02  0.26000000000E-02 0. -1.
         23    2    1    2    0    0  0.00000000000E+00  0.00000000000E+00  0.10832474986E+03  0.14155249443E+03  0.91120015619E+02 0.  0.
        -11    1    3    3    0    0 -0.30074860730E+01 -0.23433531004E+02  0.11467885601E+03  0.11708721264E+03  0.51100000000E-03 0.  1.
         11    1    3    3    0    0  0.30074860730E+01  0.23433531004E+02 -0.63541061478E+01  0.24465281789E+02  0.51100000000E-03 0. -1.
<mgrwt>
<rscale>  0 0.91120016E+02</rscale>
<asrwt>0</asrwt>
<pdfrwt beam="1">  1        2 0.19221327E-01 0.91120016E+02</pdfrwt>
<pdfrwt beam="2">  1       -2 0.25559803E-02 0.91120016E+02</pdfrwt>
<totfact> 0.13178870E+05</totfact>
</mgrwt>
</event>
<event>
 5    1  0.2799021E+000  0.9011340E+02  0.7818608E-02  0.1302577E+00
         -2   -1    0    0    0  501 -0.00000000000E+00  0.00000000000E+00  0.26030358411E+02  0.26030358541E+02  0.26000000000E-02 0. -1.
          2   -1    0    0  501    0  0.00000000000E+00 -0.00000000000E+00 -0.77989950024E+02  0.77989950068E+02  0.26000000000E-02 0.  1.
         23    2    1    2    0    0  0.00000000000E+00  0.00000000000E+00 -0.51959591613E+02  0.10402030861E+03  0.90113403234E+02 0.  0.
        -11    1    3    3    0    0  0.34164930569E+02 -0.48342705193E+01  0.74656869535E+01  0.35303670265E+02  0.51100000000E-03 0. -1.
         11    1    3    3    0    0 -0.34164930569E+02  0.48342705193E+01 -0.59425278567E+02  0.68716638343E+02  0.51100000000E-03 0.  1.
<mgrwt>
<rscale>  0 0.90113403E+02</rscale>
<asrwt>0</asrwt>
<pdfrwt beam="2">  1        2 0.11998454E-01 0.90113403E+02</pdfrwt>
<pdfrwt beam="1">  1       -2 0.40046706E-02 0.90113403E+02</pdfrwt>
<totfact> 0.11780284E+05</totfact>
</mgrwt>
</event>
<event>
 5    1  0.2799021E+000  0.9241630E+02  0.7818608E-02  0.1297104E+00
         -2   -1    0    0    0  501 -0.00000000000E+00  0.00000000000E+00  0.75719545870E+02  0.75719545914E+02  0.26000000000E-02 0.  1.
          2   -1    0    0  501    0  0.00000000000E+00 -0.00000000000E+00 -0.28198702422E+02  0.28198702542E+02  0.26000000000E-02 0. -1.
         23    2    1    2    0    0  0.00000000000E+00  0.00000000000E+00  0.47520843448E+02  0.10391824846E+03  0.92416296183E+02 0.  0.
        -11    1    3    3    0    0 -0.27755929878E+02  0.29360994590E+02 -0.14518562547E+01  0.40429785228E+02  0.51100000000E-03 0. -1.
         11    1    3    3    0    0  0.27755929878E+02 -0.29360994590E+02  0.48972699703E+02  0.63488463229E+02  0.51100000000E-03 0.  1.
<mgrwt>
<rscale>  0 0.92416296E+02</rscale>
<asrwt>0</asrwt>
<pdfrwt beam="2">  1        2 0.43382619E-02 0.92416296E+02</pdfrwt>
<pdfrwt beam="1">  1       -2 0.11649161E-01 0.92416296E+02</pdfrwt>
<totfact> 0.83560442E+04</totfact>
</mgrwt>
</event>
<event>
 5    1  0.2799021E+000  0.9437894E+02  0.7818608E-02  0.1292581E+00
          2   -1    0    0  501    0  0.00000000000E+00  0.00000000000E+00  0.90982246871E+02  0.90982246909E+02  0.26000000000E-02 0. -1.
         -2   -1    0    0    0  501 -0.00000000000E+00 -0.00000000000E+00 -0.24475613351E+02  0.24475613489E+02  0.26000000000E-02 0.  1.
         23    2    1    2    0    0  0.00000000000E+00  0.00000000000E+00  0.66506633520E+02  0.11545786040E+03  0.94378944820E+02 0.  0.
        -11    1    3    3    0    0 -0.14679596596E+02 -0.10904454982E+01  0.88101774763E+02  0.89323022476E+02  0.51100000000E-03 0. -1.
         11    1    3    3    0    0  0.14679596596E+02  0.10904454982E+01 -0.21595141243E+02  0.26134837921E+02  0.51100000000E-03 0.  1.
<mgrwt>
<rscale>  0 0.94378945E+02</rscale>
<asrwt>0</asrwt>
<pdfrwt beam="1">  1        2 0.13997269E-01 0.94378945E+02</pdfrwt>
<pdfrwt beam="2">  1       -2 0.37654790E-02 0.94378945E+02</pdfrwt>
<totfact> 0.10835598E+05</totfact>
</mgrwt>
</event>
<event>
 5    1  0.2799021E+000  0.8895188E+02  0.7818608E-02  0.1305410E+00
         -2   -1    0    0    0  501 -0.00000000000E+00  0.00000000000E+00  0.20214821412E+02  0.20214821579E+02  0.26000000000E-02 0.  1.
          2   -1    0    0  501    0  0.00000000000E+00 -0.00000000000E+00 -0.97854411169E+02  0.97854411203E+02  0.26000000000E-02 0. -1.
         23    2    1    2    0    0  0.00000000000E+00  0.00000000000E+00 -0.77639589757E+02  0.11806923278E+03  0.88951884928E+02 0.  0.
        -11    1    3    3    0    0 -0.17144673755E+02  0.23494386988E+02 -0.83481981016E+02  0.88403434394E+02  0.51100000000E-03 0.  1.
         11    1    3    3    0    0  0.17144673755E+02 -0.23494386988E+02  0.58423912587E+01  0.29665798388E+02  0.51100000000E-03 0. -1.
<mgrwt>
<rscale>  0 0.88951885E+02</rscale>
<asrwt>0</asrwt>
<pdfrwt beam="2">  1        2 0.15054525E-01 0.88951885E+02</pdfrwt>
<pdfrwt beam="1">  1       -2 0.31099726E-02 0.88951885E+02</pdfrwt>
<totfact> 0.13043280E+05</totfact>
</mgrwt>
</event>
<event>
 5    1  0.2799021E+000  0.9086157E+02  0.7818608E-02  0.1300779E+00
         -2   -1    0    0    0  501 -0.00000000000E+00  0.00000000000E+00  0.29420527140E+02  0.29420527255E+02  0.26000000000E-02 0.  1.
          2   -1    0    0  501    0  0.00000000000E+00 -0.00000000000E+00 -0.70153615024E+02  0.70153615073E+02  0.26000000000E-02 0. -1.
         23    2    1    2    0    0  0.00000000000E+00  0.00000000000E+00 -0.40733087885E+02  0.99574142327E+02  0.90861572579E+02 0.  0.
        -11    1    3    3    0    0 -0.45073573065E+01 -0.11928878226E+02 -0.68152077433E+02  0.69334840191E+02  0.51100000000E-03 0. -1.
         11    1    3    3    0    0  0.45073573065E+01  0.11928878226E+02  0.27418989548E+02  0.30239302136E+02  0.51100000000E-03 0.  1.
<mgrwt>
<rscale>  0 0.90861573E+02</rscale>
<asrwt>0</asrwt>
<pdfrwt beam="2">  1        2 0.10792864E-01 0.90861573E+02</pdfrwt>
<pdfrwt beam="1">  1       -2 0.45262350E-02 0.90861573E+02</pdfrwt>
<totfact> 0.11176401E+05</totfact>
</mgrwt>
</event>
<event>
 5    1  0.2799021E+000  0.9266281E+02  0.7818608E-02  0.1296528E+00
          2   -1    0    0  501    0  0.00000000000E+00  0.00000000000E+00  0.26640123069E+03  0.26640123070E+03  0.26000000000E-02 0.  1.
         -2   -1    0    0    0  501 -0.00000000000E+00 -0.00000000000E+00 -0.80577666960E+01  0.80577671155E+01  0.26000000000E-02 0. -1.
         23    2    1    2    0    0  0.00000000000E+00  0.00000000000E+00  0.25834346399E+03  0.27445899782E+03  0.92662808585E+02 0.  0.
        -11    1    3    3    0    0 -0.32687530030E+02  0.28377242309E+02  0.17809767263E+03  0.18328263283E+03  0.51100000000E-03 0.  1.
         11    1    3    3    0    0  0.32687530030E+02 -0.28377242309E+02  0.80245791356E+02  0.91176364981E+02  0.51100000000E-03 0. -1.
<mgrwt>
<rscale>  0 0.92662809E+02</rscale>
<asrwt>0</asrwt>
<pdfrwt beam="1">  1        2 0.40984810E-01 0.92662809E+02</pdfrwt>
<pdfrwt beam="2">  1       -2 0.12396563E-02 0.92662809E+02</pdfrwt>
<totfact> 0.16458978E+05</totfact>
</mgrwt>
</event>
<event>
 5    1  0.2799021E+000  0.9071421E+02  0.7818608E-02  0.1301131E+00
         -2   -1    0    0    0  501 -0.00000000000E+00  0.00000000000E+00  0.28268824149E+02  0.28268824268E+02  0.26000000000E-02 0. -1.
          2   -1    0    0  501    0  0.00000000000E+00 -0.00000000000E+00 -0.72775116571E+02  0.72775116617E+02  0.26000000000E-02 0.  1.
         23    2    1    2    0    0  0.00000000000E+00  0.00000000000E+00 -0.44506292422E+02  0.10104394089E+03  0.90714210158E+02 0.  0.
        -11    1    3    3    0    0 -0.13209667481E+02  0.24400520494E+02 -0.62219026973E+02  0.68125531433E+02  0.51100000000E-03 0.  1.
         11    1    3    3    0    0  0.13209667481E+02 -0.24400520494E+02  0.17712734551E+02  0.32918409452E+02  0.51100000000E-03 0. -1.
<mgrwt>
<rscale>  0 0.90714210E+02</rscale>
<asrwt>0</asrwt>
<pdfrwt beam="2">  1        2 0.11196172E-01 0.90714210E+02</pdfrwt>
<pdfrwt beam="1">  1       -2 0.43490499E-02 0.90714210E+02</pdfrwt>
<totfact> 0.11342126E+05</totfact>
</mgrwt>
</event>
<event>
 5    1  0.2799021E+000  0.9129366E+02  0.7818608E-02  0.1299749E+00
          2   -1    0    0  501    0  0.00000000000E+00  0.00000000000E+00  0.15607873250E+03  0.15607873252E+03  0.26000000000E-02 0.  1.
         -2   -1    0    0    0  501 -0.00000000000E+00 -0.00000000000E+00 -0.13349885092E+02  0.13349885345E+02  0.26000000000E-02 0. -1.
         23    2    1    2    0    0  0.00000000000E+00  0.00000000000E+00  0.14272884741E+03  0.16942861787E+03  0.91293661717E+02 0.  0.
        -11    1    3    3    0    0 -0.26423853412E+02  0.19379160156E+01  0.14034810388E+03  0.14282704860E+03  0.51100000000E-03 0.  1.
         11    1    3    3    0    0  0.26423853412E+02 -0.19379160156E+01  0.23807435281E+01  0.26601569270E+02  0.51100000000E-03 0. -1.
<mgrwt>
<rscale>  0 0.91293662E+02</rscale>
<asrwt>0</asrwt>
<pdfrwt beam="1">  1        2 0.24012112E-01 0.91293662E+02</pdfrwt>
<pdfrwt beam="2">  1       -2 0.20538286E-02 0.91293662E+02</pdfrwt>
<totfact> 0.14122908E+05</totfact>
</mgrwt>
</event>
<event>
 5    1  0.2799021E+000  0.8675967E+02  0.7818608E-02  0.1310894E+00
          2   -1    0    0  501    0  0.00000000000E+00  0.00000000000E+00  0.10350833890E+02  0.10350834217E+02  0.26000000000E-02 0. -1.
         -2   -1    0    0    0  501 -0.00000000000E+00 -0.00000000000E+00 -0.18180274678E+03  0.18180274680E+03  0.26000000000E-02 0.  1.
         23    2    1    2    0    0  0.00000000000E+00  0.00000000000E+00 -0.17145191289E+03  0.19215358102E+03  0.86759669568E+02 0.  0.
        -11    1    3    3    0    0 -0.36751878204E+02 -0.19815799352E+02 -0.11178551479E+03  0.11932882206E+03  0.51100000000E-03 0. -1.
         11    1    3    3    0    0  0.36751878204E+02  0.19815799352E+02 -0.59666398099E+02  0.72824758962E+02  0.51100000000E-03 0.  1.
<mgrwt>
<rscale>  0 0.86759670E+02</rscale>
<asrwt>0</asrwt>
<pdfrwt beam="1">  1        2 0.15924361E-02 0.86759670E+02</pdfrwt>
<pdfrwt beam="2">  1       -2 0.27969651E-01 0.86759670E+02</pdfrwt>
<totfact> 0.73603203E+04</totfact>
</mgrwt>
</event>
<event>
 5    1  0.2799021E+000  0.9111063E+02  0.7818608E-02  0.1300184E+00
          2   -1    0    0  501    0  0.00000000000E+00  0.00000000000E+00  0.51205922328E+02  0.51205922394E+02  0.26000000000E-02 0. -1.
         -2   -1    0    0    0  501 -0.00000000000E+00 -0.00000000000E+00 -0.40528256188E+02  0.40528256271E+02  0.26000000000E-02 0.  1.
         23    2    1    2    0    0  0.00000000000E+00  0.00000000000E+00  0.10677666141E+02  0.91734178665E+02  0.91110630451E+02 0.  0.
        -11    1    3    3    0    0  0.34537155910E+02  0.13928184784E+02  0.31757258531E+02  0.48942138689E+02  0.51100000000E-03 0. -1.
         11    1    3    3    0    0 -0.34537155910E+02 -0.13928184784E+02 -0.21079592391E+02  0.42792039977E+02  0.51100000000E-03 0.  1.
<mgrwt>
<rscale>  0 0.91110630E+02</rscale>
<asrwt>0</asrwt>
<pdfrwt beam="1">  1        2 0.78778342E-02 0.91110630E+02</pdfrwt>
<pdfrwt beam="2">  1       -2 0.62351164E-02 0.91110630E+02</pdfrwt>
<totfact> 0.10192063E+05</totfact>
</mgrwt>
</event>
<event>
 5    1  0.2799021E+000  0.9051797E+02  0.7818608E-02  0.1301602E+00
          2   -1    0    0  501    0  0.00000000000E+00  0.00000000000E+00  0.17053830291E+03  0.17053830293E+03  0.26000000000E-02 0. -1.
         -2   -1    0    0    0  501 -0.00000000000E+00 -0.00000000000E+00 -0.12011235907E+02  0.12011236188E+02  0.26000000000E-02 0.  1.
         23    2    1    2    0    0  0.00000000000E+00  0.00000000000E+00  0.15852706700E+03  0.18254953911E+03  0.90517972024E+02 0.  0.
        -11    1    3    3    0    0  0.37132469177E+02 -0.91270592992E+01  0.30433365496E+02  0.48870371538E+02  0.51100000000E-03 0. -1.
         11    1    3    3    0    0 -0.37132469177E+02  0.91270592992E+01  0.12809370150E+03  0.13367916758E+03  0.51100000000E-03 0.  1.
<mgrwt>
<rscale>  0 0.90517972E+02</rscale>
<asrwt>0</asrwt>
<pdfrwt beam="1">  1        2 0.26236658E-01 0.90517972E+02</pdfrwt>
<pdfrwt beam="2">  1       -2 0.18478827E-02 0.90517972E+02</pdfrwt>
<totfact> 0.14903116E+05</totfact>
</mgrwt>
</event>
<event>
 5    1  0.2799021E+000  0.9606084E+02  0.7818608E-02  0.1288805E+00
         -2   -1    0    0    0  501 -0.00000000000E+00  0.00000000000E+00  0.14844952405E+02  0.14844952633E+02  0.26000000000E-02 0.  1.
          2   -1    0    0  501    0  0.00000000000E+00 -0.00000000000E+00 -0.15540104659E+03  0.15540104661E+03  0.26000000000E-02 0. -1.
         23    2    1    2    0    0  0.00000000000E+00  0.00000000000E+00 -0.14055609418E+03  0.17024599924E+03  0.96060838255E+02 0.  0.
        -11    1    3    3    0    0 -0.45607544564E+02 -0.11052697790E+02 -0.52142673218E+02  0.70150328725E+02  0.51100000000E-03 0.  1.
         11    1    3    3    0    0  0.45607544564E+02  0.11052697790E+02 -0.88413420964E+02  0.10009567052E+03  0.51100000000E-03 0. -1.
<mgrwt>
<rscale>  0 0.96060838E+02</rscale>
<asrwt>0</asrwt>
<pdfrwt beam="2">  1        2 0.23907852E-01 0.96060838E+02</pdfrwt>
<pdfrwt beam="1">  1       -2 0.22838390E-02 0.96060838E+02</pdfrwt>
<totfact> 0.12276945E+05</totfact>
</mgrwt>
</event>
<event>
 5    1  0.2799021E+000  0.8879713E+02  0.7818608E-02  0.1305791E+00
          2   -1    0    0  501    0  0.00000000000E+00  0.00000000000E+00  0.46228179550E+02  0.46228179623E+02  0.26000000000E-02 0. -1.
         -2   -1    0    0    0  501 -0.00000000000E+00 -0.00000000000E+00 -0.42641365475E+02  0.42641365554E+02  0.26000000000E-02 0.  1.
         23    2    1    2    0    0  0.00000000000E+00  0.00000000000E+00  0.35868140746E+01  0.88869545177E+02  0.88797132976E+02 0.  0.
        -11    1    3    3    0    0 -0.23219187454E+02 -0.35861482182E+02  0.13888631061E+02  0.44922941170E+02  0.51100000000E-03 0. -1.
         11    1    3    3    0    0  0.23219187454E+02  0.35861482182E+02 -0.10301816986E+02  0.43946604008E+02  0.51100000000E-03 0.  1.
<mgrwt>
<rscale>  0 0.88797133E+02</rscale>
<asrwt>0</asrwt>
<pdfrwt beam="1">  1        2 0.71120276E-02 0.88797133E+02</pdfrwt>
<pdfrwt beam="2">  1       -2 0.65602101E-02 0.88797133E+02</pdfrwt>
<totfact> 0.10680508E+05</totfact>
</mgrwt>
</event>
<event>
 5    1  0.2799021E+000  0.9154671E+02  0.7818608E-02  0.1299149E+00
          2   -1    0    0  501    0  0.00000000000E+00  0.00000000000E+00  0.15185601371E+02  0.15185601593E+02  0.26000000000E-02 0. -1.
         -2   -1    0    0    0  501 -0.00000000000E+00 -0.00000000000E+00 -0.13797279241E+03  0.13797279243E+03  0.26000000000E-02 0.  1.
         23    2    1    2    0    0  0.00000000000E+00  0.00000000000E+00 -0.12278719104E+03  0.15315839403E+03  0.91546705991E+02 0.  0.
        -11    1    3    3    0    0  0.39325906856E+02  0.22567977241E+02 -0.50897645589E+02  0.68164586653E+02  0.51100000000E-03 0.  1.
         11    1    3    3    0    0 -0.39325906856E+02 -0.22567977241E+02 -0.71889545449E+02  0.84993807374E+02  0.51100000000E-03 0. -1.
<mgrwt>
<rscale>  0 0.91546706E+02</rscale>
<asrwt>0</asrwt>
<pdfrwt beam="1">  1        2 0.23362465E-02 0.91546706E+02</pdfrwt>
<pdfrwt beam="2">  1       -2 0.21226583E-01 0.91546706E+02</pdfrwt>
<totfact> 0.71233152E+04</totfact>
</mgrwt>
</event>
<event>
 5    1  0.2799021E+000  0.9082658E+02  0.7818608E-02  0.1300862E+00
         -2   -1    0    0    0  501 -0.00000000000E+00  0.00000000000E+00  0.62981816836E+02  0.62981816889E+02  0.26000000000E-02 0.  1.
          2   -1    0    0  501    0  0.00000000000E+00 -0.00000000000E+00 -0.32745433383E+02  0.32745433487E+02  0.26000000000E-02 0. -1.
         23    2    1    2    0    0  0.00000000000E+00  0.00000000000E+00  0.30236383452E+02  0.95727250376E+02  0.90826579701E+02 0.  0.
        -11    1    3    3    0    0  0.26101131498E+02 -0.12781751501E+02  0.51896959501E+02  0.59480556845E+02  0.51100000000E-03 0.  1.
         11    1    3    3    0    0 -0.26101131498E+02  0.12781751501E+02 -0.21660576048E+02  0.36246693531E+02  0.51100000000E-03 0. -1.
<mgrwt>
<rscale>  0 0.90826580E+02</rscale>
<asrwt>0</asrwt>
<pdfrwt beam="2">  1        2 0.50377591E-02 0.90826580E+02</pdfrwt>
<pdfrwt beam="1">  1       -2 0.96895102E-02 0.90826580E+02</pdfrwt>
<totfact> 0.91574542E+04</totfact>
</mgrwt>
</event>
<event>
 5    1  0.2799021E+000  0.9132238E+02  0.7818608E-02  0.1299681E+00
          2   -1    0    0  501    0  0.00000000000E+00  0.00000000000E+00  0.27115751187E+03  0.27115751188E+03  0.26000000000E-02 0. -1.
         -2   -1    0    0    0  501 -0.00000000000E+00 -0.00000000000E+00 -0.76890527578E+01  0.76890531974E+01  0.26000000000E-02 0.  1.
         23    2    1    2    0    0  0.00000000000E+00  0.00000000000E+00  0.26346845911E+03  0.27884656508E+03  0.91322384495E+02 0.  0.
        -11    1    3    3    0    0 -0.45014694125E+02  0.51557157558E+01  0.11445052158E+03  0.12309275357E+03  0.51100000000E-03 0.  1.
         11    1    3    3    0    0  0.45014694125E+02 -0.51557157558E+01  0.14901793753E+03  0.15575381151E+03  0.51100000000E-03 0. -1.
<mgrwt>
<rscale>  0 0.91322384E+02</rscale>
<asrwt>0</asrwt>
<pdfrwt beam="1">  1        2 0.41716538E-01 0.91322384E+02</pdfrwt>
<pdfrwt beam="2">  1       -2 0.11829313E-02 0.91322384E+02</pdfrwt>
<totfact> 0.17227573E+05</totfact>
</mgrwt>
</event>
<event>
 5    1  0.2799021E+000  0.8686448E+02  0.7818608E-02  0.1310627E+00
          2   -1    0    0  501    0  0.00000000000E+00  0.00000000000E+00  0.25623192979E+02  0.25623193110E+02  0.26000000000E-02 0. -1.
         -2   -1    0    0    0  501 -0.00000000000E+00 -0.00000000000E+00 -0.73619222460E+02  0.73619222505E+02  0.26000000000E-02 0.  1.
         23    2    1    2    0    0  0.00000000000E+00  0.00000000000E+00 -0.47996029481E+02  0.99242415616E+02  0.86864481875E+02 0.  0.
        -11    1    3    3    0    0 -0.27496279160E+02  0.75450397947E+01 -0.61429164691E+02  0.67723816107E+02  0.51100000000E-03 0.  1.
         11    1    3    3    0    0  0.27496279160E+02 -0.75450397947E+01  0.13433135210E+02  0.31518599509E+02  0.51100000000E-03 0. -1.
<mgrwt>
<rscale>  0 0.86864482E+02</rscale>
<asrwt>0</asrwt>
<pdfrwt beam="1">  1        2 0.39420297E-02 0.86864482E+02</pdfrwt>
<pdfrwt beam="2">  1       -2 0.11326034E-01 0.86864482E+02</pdfrwt>
<totfact> 0.97975523E+04</totfact>
</mgrwt>
</event>
<event>
 5    1  0.2799021E+000  0.9216412E+02  0.7818608E-02  0.1297694E+00
         -2   -1    0    0    0  501 -0.00000000000E+00  0.00000000000E+00  0.18351296884E+02  0.18351297068E+02  0.26000000000E-02 0.  1.
          2   -1    0    0  501    0  0.00000000000E+00 -0.00000000000E+00 -0.11571695408E+03  0.11571695411E+03  0.26000000000E-02 0. -1.
         23    2    1    2    0    0  0.00000000000E+00  0.00000000000E+00 -0.97365657197E+02  0.13406825118E+03  0.92164118682E+02 0.  0.
        -11    1    3    3    0    0  0.35349790482E+02  0.23257728006E+02 -0.22136557361E+02  0.47755175334E+02  0.51100000000E-03 0.  1.
         11    1    3    3    0    0 -0.35349790482E+02 -0.23257728006E+02 -0.75229099836E+02  0.86313075843E+02  0.51100000000E-03 0. -1.
<mgrwt>
<rscale>  0 0.92164119E+02</rscale>
<asrwt>0</asrwt>
<pdfrwt beam="2">  1        2 0.17802608E-01 0.92164119E+02</pdfrwt>
<pdfrwt beam="1">  1       -2 0.28232765E-02 0.92164119E+02</pdfrwt>
<totfact> 0.12463357E+05</totfact>
</mgrwt>
</event>
<event>
 5    1  0.2799021E+000  0.9407064E+02  0.7818608E-02  0.1293283E+00
         -2   -1    0    0    0  501 -0.00000000000E+00  0.00000000000E+00  0.87083176145E+02  0.87083176184E+02  0.26000000000E-02 0.  1.
          2   -1    0    0  501    0  0.00000000000E+00 -0.00000000000E+00 -0.25404692305E+02  0.25404692438E+02  0.26000000000E-02 0. -1.
         23    2    1    2    0    0  0.00000000000E+00  0.00000000000E+00  0.61678483840E+02  0.11248786862E+03  0.94070639513E+02 0.  0.
        -11    1    3    3    0    0  0.40365763635E+01 -0.35885690313E+02  0.66876604598E+02  0.76003664127E+02  0.51100000000E-03 0.  1.
         11    1    3    3    0    0 -0.40365763635E+01  0.35885690313E+02 -0.51981207581E+01  0.36484204495E+02  0.51100000000E-03 0. -1.
<mgrwt>
<rscale>  0 0.94070640E+02</rscale>
<asrwt>0</asrwt>
<pdfrwt beam="2">  1        2 0.39084142E-02 0.94070640E+02</pdfrwt>
<pdfrwt beam="1">  1       -2 0.13397412E-01 0.94070640E+02</pdfrwt>
<totfact> 0.76910293E+04</totfact>
</mgrwt>
</event>
<event>
 5    1  0.2799021E+000  0.9434730E+02  0.7818608E-02  0.1292653E+00
          2   -1    0    0  501    0  0.00000000000E+00  0.00000000000E+00  0.29154201093E+03  0.29154201095E+03  0.26000000000E-02 0. -1.
         -2   -1    0    0    0  501 -0.00000000000E+00 -0.00000000000E+00 -0.76330445786E+01  0.76330450214E+01  0.26000000000E-02 0.  1.
         23    2    1    2    0    0  0.00000000000E+00  0.00000000000E+00  0.28390896635E+03  0.29917505597E+03  0.94347299569E+02 0.  0.
        -11    1    3    3    0    0  0.41112653580E+01 -0.38138869840E+02  0.22902001376E+03  0.23221034128E+03  0.51100000000E-03 0. -1.
         11    1    3    3    0    0 -0.41112653580E+01  0.38138869840E+02  0.54888952596E+02  0.66964714685E+02  0.51100000000E-03 0.  1.
<mgrwt>
<rscale>  0 0.94347300E+02</rscale>
<asrwt>0</asrwt>
<pdfrwt beam="1">  1        2 0.44852624E-01 0.94347300E+02</pdfrwt>
<pdfrwt beam="2">  1       -2 0.11743144E-02 0.94347300E+02</pdfrwt>
<totfact> 0.16221602E+05</totfact>
</mgrwt>
</event>
<event>
 5    1  0.2799021E+000  0.9264480E+02  0.7818608E-02  0.1296570E+00
         -2   -1    0    0    0  501 -0.00000000000E+00  0.00000000000E+00  0.22972155890E+02  0.22972156037E+02  0.26000000000E-02 0.  1.
          2   -1    0    0  501    0  0.00000000000E+00 -0.00000000000E+00 -0.93407203974E+02  0.93407204010E+02  0.26000000000E-02 0. -1.
         23    2    1    2    0    0  0.00000000000E+00  0.00000000000E+00 -0.70435048084E+02  0.11637936005E+03  0.92644802586E+02 0.  0.
        -11    1    3    3    0    0 -0.14790968313E+02 -0.37191352803E+02 -0.64511118645E+02  0.75918732182E+02  0.51100000000E-03 0. -1.
         11    1    3    3    0    0  0.14790968313E+02  0.37191352803E+02 -0.59239294392E+01  0.40460627865E+02  0.51100000000E-03 0.  1.
<mgrwt>
<rscale>  0 0.92644803E+02</rscale>
<asrwt>0</asrwt>
<pdfrwt beam="2">  1        2 0.14370339E-01 0.92644803E+02</pdfrwt>
<pdfrwt beam="1">  1       -2 0.35341779E-02 0.92644803E+02</pdfrwt>
<totfact> 0.11498389E+05</totfact>
</mgrwt>
</event>
<event>
 5    1  0.2799021E+000  0.1003179E+03  0.7818608E-02  0.1279629E+00
         -2   -1    0    0    0  501 -0.00000000000E+00  0.00000000000E+00  0.71165720298E+01  0.71165725048E+01  0.26000000000E-02 0.  1.
          2   -1    0    0  501    0  0.00000000000E+00 -0.00000000000E+00 -0.35352980746E+03  0.35352980747E+03  0.26000000000E-02 0. -1.
         23    2    1    2    0    0  0.00000000000E+00  0.00000000000E+00 -0.34641323543E+03  0.36064637998E+03  0.10031790323E+03 0.  0.
        -11    1    3    3    0    0 -0.47064671360E+02  0.17344266177E+02 -0.17362536139E+03  0.18072540767E+03  0.51100000000E-03 0.  1.
         11    1    3    3    0    0  0.47064671360E+02 -0.17344266177E+02 -0.17278787404E+03  0.17992097231E+03  0.51100000000E-03 0. -1.
<mgrwt>
<rscale>  0 0.10031790E+03</rscale>
<asrwt>0</asrwt>
<pdfrwt beam="2">  1        2 0.54389188E-01 0.10031790E+03</pdfrwt>
<pdfrwt beam="1">  1       -2 0.10948575E-02 0.10031790E+03</pdfrwt>
<totfact> 0.14784181E+05</totfact>
</mgrwt>
</event>
<event>
 5    1  0.2799021E+000  0.9001051E+02  0.7818608E-02  0.1302826E+00
         -2   -1    0    0    0  501 -0.00000000000E+00  0.00000000000E+00  0.38111981770E+02  0.38111981859E+02  0.26000000000E-02 0.  1.
          2   -1    0    0  501    0  0.00000000000E+00 -0.00000000000E+00 -0.53145304738E+02  0.53145304802E+02  0.26000000000E-02 0. -1.
         23    2    1    2    0    0  0.00000000000E+00  0.00000000000E+00 -0.15033322968E+02  0.91257286661E+02  0.90010508104E+02 0.  0.
        -11    1    3    3    0    0  0.43171548086E+02 -0.80519716221E+01  0.24612072120E+01  0.43984933243E+02  0.51100000000E-03 0.  1.
         11    1    3    3    0    0 -0.43171548086E+02  0.80519716221E+01 -0.17494530180E+02  0.47272353418E+02  0.51100000000E-03 0. -1.
<mgrwt>
<rscale>  0 0.90010508E+02</rscale>
<asrwt>0</asrwt>
<pdfrwt beam="2">  1        2 0.81762008E-02 0.90010508E+02</pdfrwt>
<pdfrwt beam="1">  1       -2 0.58633818E-02 0.90010508E+02</pdfrwt>
<totfact> 0.10652571E+05</totfact>
</mgrwt>
</event>
<event>
 4    1  0.2799021E+000  0.4973564E+02  0.7818608E-02  0.1446773E+00
          2   -1    0    0  501    0  0.00000000000E+00  0.00000000000E+00  0.35489096920E+02  0.35489097016E+02  0.26000000000E-02 0.  1.
         -2   -1    0    0    0  501 -0.00000000000E+00 -0.00000000000E+00 -0.17425310963E+02  0.17425311157E+02  0.26000000000E-02 0. -1.
        -11    1    1    2    0    0 -0.87456158590E+01  0.17105714555E+02  0.25830853164E+02  0.32191990349E+02  0.51100000000E-03 0. -1.
         11    1    1    2    0    0  0.87456158590E+01 -0.17105714555E+02 -0.77670672065E+01  0.20722417823E+02  0.51100000000E-03 0.  1.
<mgrwt>
<rscale>  0 0.49735643E+02</rscale>
<asrwt>0</asrwt>
<pdfrwt beam="1">  1        2 0.54598610E-02 0.49735643E+02</pdfrwt>
<pdfrwt beam="2">  1       -2 0.26808171E-02 0.49735643E+02</pdfrwt>
<totfact> 0.48928916E+05</totfact>
</mgrwt>
</event>
<event>
 5    1  0.2799021E+000  0.9970492E+02  0.7818608E-02  0.1280918E+00
         -2   -1    0    0    0  501 -0.00000000000E+00  0.00000000000E+00  0.26314758097E+03  0.26314758098E+03  0.26000000000E-02 0.  1.
          2   -1    0    0  501    0  0.00000000000E+00 -0.00000000000E+00 -0.94443873590E+01  0.94443877169E+01  0.26000000000E-02 0. -1.
         23    2    1    2    0    0  0.00000000000E+00  0.00000000000E+00  0.25370319361E+03  0.27259196870E+03  0.99704919393E+02 0.  0.
        -11    1    3    3    0    0  0.35248989740E+02 -0.33431257014E+02  0.15743408932E+03  0.16475931750E+03  0.51100000000E-03 0.  1.
         11    1    3    3    0    0 -0.35248989740E+02  0.33431257014E+02  0.96269104292E+02  0.10783265120E+03  0.51100000000E-03 0. -1.
<mgrwt>
<rscale>  0 0.99704919E+02</rscale>
<asrwt>0</asrwt>
<pdfrwt beam="2">  1        2 0.14529826E-02 0.99704919E+02</pdfrwt>
<pdfrwt beam="1">  1       -2 0.40484245E-01 0.99704919E+02</pdfrwt>
<totfact> 0.43477926E+04</totfact>
</mgrwt>
</event>
<event>
 5    1  0.2799021E+000  0.9021725E+02  0.7818608E-02  0.1302326E+00
          2   -1    0    0  501    0  0.00000000000E+00  0.00000000000E+00  0.74405678527E+02  0.74405678573E+02  0.26000000000E-02 0. -1.
         -2   -1    0    0    0  501 -0.00000000000E+00 -0.00000000000E+00 -0.27347211928E+02  0.27347212052E+02  0.26000000000E-02 0.  1.
         23    2    1    2    0    0  0.00000000000E+00  0.00000000000E+00  0.47058466599E+02  0.10175289062E+03  0.90217245978E+02 0.  0.
        -11    1    3    3    0    0  0.34532240968E+02 -0.27953225624E+02  0.14725425254E+02  0.46804878359E+02  0.51100000000E-03 0.  1.
         11    1    3    3    0    0 -0.34532240968E+02  0.27953225624E+02  0.32333041345E+02  0.54948012266E+02  0.51100000000E-03 0. -1.
<mgrwt>
<rscale>  0 0.90217246E+02</rscale>
<asrwt>0</asrwt>
<pdfrwt beam="1">  1        2 0.11447027E-01 0.90217246E+02</pdfrwt>
<pdfrwt beam="2">  1       -2 0.42072634E-02 0.90217246E+02</pdfrwt>
<totfact> 0.11588421E+05</totfact>
</mgrwt>
</event>
<event>
 5    1  0.2799021E+000  0.9021307E+02  0.7818608E-02  0.1302337E+00
         -2   -1    0    0    0  501 -0.00000000000E+00  0.00000000000E+00  0.14707958603E+02  0.14707958833E+02  0.26000000000E-02 0.  1.
          2   -1    0    0  501    0  0.00000000000E+00 -0.00000000000E+00 -0.13833322960E+03  0.13833322963E+03  0.26000000000E-02 0. -1.
         23    2    1    2    0    0  0.00000000000E+00  0.00000000000E+00 -0.12362527100E+03  0.15304118846E+03  0.90213068540E+02 0.  0.
        -11    1    3    3    0    0 -0.38527761606E+02 -0.23451434737E+02 -0.60979428717E+02  0.75847537419E+02  0.51100000000E-03 0.  1.
         11    1    3    3    0    0  0.38527761606E+02  0.23451434737E+02 -0.62645842281E+02  0.77193651040E+02  0.51100000000E-03 0. -1.
<mgrwt>
<rscale>  0 0.90213069E+02</rscale>
<asrwt>0</asrwt>
<pdfrwt beam="2">  1        2 0.21282035E-01 0.90213069E+02</pdfrwt>
<pdfrwt beam="1">  1       -2 0.22627630E-02 0.90213069E+02</pdfrwt>
<totfact> 0.14003411E+05</totfact>
</mgrwt>
</event>
<event>
 5    1  0.2799021E+000  0.9191772E+02  0.7818608E-02  0.1298273E+00
          2   -1    0    0  501    0  0.00000000000E+00  0.00000000000E+00  0.13868307503E+03  0.13868307505E+03  0.26000000000E-02 0. -1.
         -2   -1    0    0    0  501 -0.00000000000E+00 -0.00000000000E+00 -0.15230529631E+02  0.15230529853E+02  0.26000000000E-02 0.  1.
         23    2    1    2    0    0  0.00000000000E+00  0.00000000000E+00  0.12345254540E+03  0.15391360491E+03  0.91917717606E+02 0.  0.
        -11    1    3    3    0    0 -0.35979683183E+02  0.28013978497E+02  0.52122319288E+02  0.69253568583E+02  0.51100000000E-03 0.  1.
         11    1    3    3    0    0  0.35979683183E+02 -0.28013978497E+02  0.71330226110E+02  0.84660036324E+02  0.51100000000E-03 0. -1.
<mgrwt>
<rscale>  0 0.91917718E+02</rscale>
<asrwt>0</asrwt>
<pdfrwt beam="1">  1        2 0.21335858E-01 0.91917718E+02</pdfrwt>
<pdfrwt beam="2">  1       -2 0.23431584E-02 0.91917718E+02</pdfrwt>
<totfact> 0.13319330E+05</totfact>
</mgrwt>
</event>
<event>
 5    1  0.2799021E+000  0.9298305E+02  0.7818608E-02  0.1295784E+00
         -2   -1    0    0    0  501 -0.00000000000E+00  0.00000000000E+00  0.54176076647E+02  0.54176076709E+02  0.26000000000E-02 0. -1.
          2   -1    0    0  501    0  0.00000000000E+00 -0.00000000000E+00 -0.39896978689E+02  0.39896978774E+02  0.26000000000E-02 0.  1.
         23    2    1    2    0    0  0.00000000000E+00  0.00000000000E+00  0.14279097958E+02  0.94073055484E+02  0.92983047539E+02 0.  0.
        -11    1    3    3    0    0 -0.10912937401E+02  0.23297628332E+02  0.46318044546E+02  0.52983326994E+02  0.51100000000E-03 0. -1.
         11    1    3    3    0    0  0.10912937401E+02 -0.23297628332E+02 -0.32038946588E+02  0.41089728489E+02  0.51100000000E-03 0.  1.
<mgrwt>
<rscale>  0 0.92983048E+02</rscale>
<asrwt>0</asrwt>
<pdfrwt beam="2">  1        2 0.61379968E-02 0.92983048E+02</pdfrwt>
<pdfrwt beam="1">  1       -2 0.83347810E-02 0.92983048E+02</pdfrwt>
<totfact> 0.90042584E+04</totfact>
</mgrwt>
</event>
<event>
 5    1  0.2799021E+000  0.9049052E+02  0.7818608E-02  0.1301668E+00
         -2   -1    0    0    0  501 -0.00000000000E+00  0.00000000000E+00  0.18462649633E+03  0.18462649635E+03  0.26000000000E-02 0.  1.
          2   -1    0    0  501    0  0.00000000000E+00 -0.00000000000E+00 -0.11087972385E+02  0.11087972690E+02  0.26000000000E-02 0. -1.
         23    2    1    2    0    0  0.00000000000E+00  0.00000000000E+00  0.17353852395E+03  0.19571446904E+03  0.90490519384E+02 0.  0.
        -11    1    3    3    0    0  0.51333916205E+01  0.33939800201E+02  0.15052183220E+03  0.15438615131E+03  0.51100000000E-03 0.  1.
         11    1    3    3    0    0 -0.51333916205E+01 -0.33939800201E+02  0.23016691746E+02  0.41328317731E+02  0.51100000000E-03 0. -1.
<mgrwt>
<rscale>  0 0.90490519E+02</rscale>
<asrwt>0</asrwt>
<pdfrwt beam="2">  1        2 0.17058419E-02 0.90490519E+02</pdfrwt>
<pdfrwt beam="1">  1       -2 0.28404077E-01 0.90490519E+02</pdfrwt>
<totfact> 0.65713224E+04</totfact>
</mgrwt>
</event>
<event>
 5    1  0.2799021E+000  0.9234552E+02  0.7818608E-02  0.1297269E+00
          2   -1    0    0  501    0  0.00000000000E+00  0.00000000000E+00  0.22180830647E+03  0.22180830649E+03  0.26000000000E-02 0. -1.
         -2   -1    0    0    0  501 -0.00000000000E+00 -0.00000000000E+00 -0.96115588948E+01  0.96115592465E+01  0.26000000000E-02 0.  1.
         23    2    1    2    0    0  0.00000000000E+00  0.00000000000E+00  0.21219674758E+03  0.23141986573E+03  0.92345517345E+02 0.  0.
        -11    1    3    3    0    0  0.16911722124E+02  0.37981766395E+02  0.55771448991E+02  0.69563463446E+02  0.51100000000E-03 0.  1.
         11    1    3    3    0    0 -0.16911722124E+02 -0.37981766395E+02  0.15642529858E+03  0.16185640229E+03  0.51100000000E-03 0. -1.
<mgrwt>
<rscale>  0 0.92345517E+02</rscale>
<asrwt>0</asrwt>
<pdfrwt beam="1">  1        2 0.34124354E-01 0.92345517E+02</pdfrwt>
<pdfrwt beam="2">  1       -2 0.14787014E-02 0.92345517E+02</pdfrwt>
<totfact> 0.15521225E+05</totfact>
</mgrwt>
</event>
<event>
 5    1  0.2799021E+000  0.8983032E+02  0.7818608E-02  0.1303263E+00
          2   -1    0    0  501    0  0.00000000000E+00  0.00000000000E+00  0.26616714379E+03  0.26616714381E+03  0.26000000000E-02 0. -1.
         -2   -1    0    0    0  501 -0.00000000000E+00 -0.00000000000E+00 -0.75793405490E+01  0.75793409949E+01  0.26000000000E-02 0.  1.
         23    2    1    2    0    0  0.00000000000E+00  0.00000000000E+00  0.25858780324E+03  0.27374648480E+03  0.89830317567E+02 0.  0.
        -11    1    3    3    0    0 -0.31923958658E+02 -0.27990722678E+02  0.84636441585E+02  0.94688684313E+02  0.51100000000E-03 0.  1.
         11    1    3    3    0    0  0.31923958658E+02  0.27990722678E+02  0.17395136166E+03  0.17905780049E+03  0.51100000000E-03 0. -1.
<mgrwt>
<rscale>  0 0.89830318E+02</rscale>
<asrwt>0</asrwt>
<pdfrwt beam="1">  1        2 0.40948781E-01 0.89830318E+02</pdfrwt>
<pdfrwt beam="2">  1       -2 0.11660527E-02 0.89830318E+02</pdfrwt>
<totfact> 0.17878249E+05</totfact>
</mgrwt>
</event>
<event>
 5    1  0.2799021E+000  0.9446466E+02  0.7818608E-02  0.1292386E+00
          2   -1    0    0  501    0  0.00000000000E+00  0.00000000000E+00  0.12834733627E+03  0.12834733630E+03  0.26000000000E-02 0.  1.
         -2   -1    0    0    0  501 -0.00000000000E+00 -0.00000000000E+00 -0.17381684215E+02  0.17381684410E+02  0.26000000000E-02 0. -1.
         23    2    1    2    0    0  0.00000000000E+00  0.00000000000E+00  0.11096565206E+03  0.14572902071E+03  0.94464657626E+02 0.  0.
        -11    1    3    3    0    0  0.23863429077E+02 -0.11019714138E+02  0.11602199051E+03  0.11896217731E+03  0.51100000000E-03 0.  1.
         11    1    3    3    0    0 -0.23863429077E+02  0.11019714138E+02 -0.50563384524E+01  0.26766843404E+02  0.51100000000E-03 0. -1.
<mgrwt>
<rscale>  0 0.94464658E+02</rscale>
<asrwt>0</asrwt>
<pdfrwt beam="1">  1        2 0.19745744E-01 0.94464658E+02</pdfrwt>
<pdfrwt beam="2">  1       -2 0.26741053E-02 0.94464658E+02</pdfrwt>
<totfact> 0.12046123E+05</totfact>
</mgrwt>
</event>
<event>
 5    1  0.2799021E+000  0.9136636E+02  0.7818608E-02  0.1299576E+00
         -2   -1    0    0    0  501 -0.00000000000E+00  0.00000000000E+00  0.22060266164E+02  0.22060266317E+02  0.26000000000E-02 0.  1.
          2   -1    0    0  501    0  0.00000000000E+00 -0.00000000000E+00 -0.94602351305E+02  0.94602351341E+02  0.26000000000E-02 0. -1.
         23    2    1    2    0    0  0.00000000000E+00  0.00000000000E+00 -0.72542085141E+02  0.11666261766E+03  0.91366362751E+02 0.  0.
        -11    1    3    3    0    0  0.45296544412E+02  0.48094027709E+01 -0.31839421103E+02  0.55575678377E+02  0.51100000000E-03 0.  1.
         11    1    3    3    0    0 -0.45296544412E+02 -0.48094027709E+01 -0.40702664038E+02  0.61086939281E+02  0.51100000000E-03 0. -1.
<mgrwt>
<rscale>  0 0.91366363E+02</rscale>
<asrwt>0</asrwt>
<pdfrwt beam="2">  1        2 0.14554208E-01 0.91366363E+02</pdfrwt>
<pdfrwt beam="1">  1       -2 0.33938872E-02 0.91366363E+02</pdfrwt>
<totfact> 0.11994660E+05</totfact>
</mgrwt>
</event>
<event>
 5    1  0.2799021E+000  0.9124050E+02  0.7818608E-02  0.1299875E+00
         -2   -1    0    0    0  501 -0.00000000000E+00  0.00000000000E+00  0.33161537221E+02  0.33161537323E+02  0.26000000000E-02 0.  1.
          2   -1    0    0  501    0  0.00000000000E+00 -0.00000000000E+00 -0.62759675791E+02  0.62759675845E+02  0.26000000000E-02 0. -1.
         23    2    1    2    0    0  0.00000000000E+00  0.00000000000E+00 -0.29598138570E+02  0.95921213168E+02  0.91240502677E+02 0.  0.
        -11    1    3    3    0    0  0.12328541655E+02  0.67907412602E+01  0.30821816282E+02  0.33883498423E+02  0.51100000000E-03 0.  1.
         11    1    3    3    0    0 -0.12328541655E+02 -0.67907412602E+01 -0.60419954852E+02  0.62037714745E+02  0.51100000000E-03 0. -1.
<mgrwt>
<rscale>  0 0.91240503E+02</rscale>
<asrwt>0</asrwt>
<pdfrwt beam="2">  1        2 0.96553347E-02 0.91240503E+02</pdfrwt>
<pdfrwt beam="1">  1       -2 0.51017750E-02 0.91240503E+02</pdfrwt>
<totfact> 0.10715145E+05</totfact>
</mgrwt>
</event>
<event>
 5    1  0.2799021E+000  0.9123569E+02  0.7818608E-02  0.1299887E+00
         -2   -1    0    0    0  501 -0.00000000000E+00  0.00000000000E+00  0.54446676916E+02  0.54446676978E+02  0.26000000000E-02 0.  1.
          2   -1    0    0  501    0  0.00000000000E+00 -0.00000000000E+00 -0.38220657052E+02  0.38220657141E+02  0.26000000000E-02 0. -1.
         23    2    1    2    0    0  0.00000000000E+00  0.00000000000E+00  0.16226019864E+02  0.92667334119E+02  0.91235689793E+02 0.  0.
        -11    1    3    3    0    0 -0.76198658571E+00 -0.15445609533E+02  0.51703112854E+02  0.53966279809E+02  0.51100000000E-03 0.  1.
         11    1    3    3    0    0  0.76198658571E+00  0.15445609533E+02 -0.35477092990E+02  0.38701054310E+02  0.51100000000E-03 0. -1.
<mgrwt>
<rscale>  0 0.91235690E+02</rscale>
<asrwt>0</asrwt>
<pdfrwt beam="2">  1        2 0.58801011E-02 0.91235690E+02</pdfrwt>
<pdfrwt beam="1">  1       -2 0.83764118E-02 0.91235690E+02</pdfrwt>
<totfact> 0.94094045E+04</totfact>
</mgrwt>
</event>
<event>
 5    1  0.2799021E+000  0.9206922E+02  0.7818608E-02  0.1297917E+00
         -2   -1    0    0    0  501 -0.00000000000E+00  0.00000000000E+00  0.17028008893E+03  0.17028008895E+03  0.26000000000E-02 0.  1.
          2   -1    0    0  501    0  0.00000000000E+00 -0.00000000000E+00 -0.12445289943E+02  0.12445290214E+02  0.26000000000E-02 0. -1.
         23    2    1    2    0    0  0.00000000000E+00  0.00000000000E+00  0.15783479899E+03  0.18272537916E+03  0.92069215372E+02 0.  0.
        -11    1    3    3    0    0 -0.33077718980E+02 -0.66732139469E+01  0.14106325584E+03  0.14504312953E+03  0.51100000000E-03 0.  1.
         11    1    3    3    0    0  0.33077718980E+02  0.66732139469E+01  0.16771543151E+02  0.37682249631E+02  0.51100000000E-03 0. -1.
<mgrwt>
<rscale>  0 0.92069215E+02</rscale>
<asrwt>0</asrwt>
<pdfrwt beam="2">  1        2 0.19146601E-02 0.92069215E+02</pdfrwt>
<pdfrwt beam="1">  1       -2 0.26196936E-01 0.92069215E+02</pdfrwt>
<totfact> 0.64960692E+04</totfact>
</mgrwt>
</event>
<event>
 5    1  0.2799021E+000  0.9844218E+02  0.7818608E-02  0.1283606E+00
         -2   -1    0    0    0  501 -0.00000000000E+00  0.00000000000E+00  0.25752960290E+02  0.25752960421E+02  0.26000000000E-02 0.  1.
          2   -1    0    0  501    0  0.00000000000E+00 -0.00000000000E+00 -0.94075240595E+02  0.94075240631E+02  0.26000000000E-02 0. -1.
         23    2    1    2    0    0  0.00000000000E+00  0.00000000000E+00 -0.68322280306E+02  0.11982820105E+03  0.98442184968E+02 0.  0.
        -11    1    3    3    0    0 -0.21973422667E+02 -0.38001072937E+00  0.19449325794E+02  0.29347095017E+02  0.51100000000E-03 0.  1.
         11    1    3    3    0    0  0.21973422667E+02  0.38001072937E+00 -0.87771606099E+02  0.90481106035E+02  0.51100000000E-03 0. -1.
<mgrwt>
<rscale>  0 0.98442185E+02</rscale>
<asrwt>0</asrwt>
<pdfrwt beam="2">  1        2 0.14473114E-01 0.98442185E+02</pdfrwt>
<pdfrwt beam="1">  1       -2 0.39619940E-02 0.98442185E+02</pdfrwt>
<totfact> 0.97332088E+04</totfact>
</mgrwt>
</event>
<event>
 5    1  0.2799021E+000  0.9235502E+02  0.7818608E-02  0.1297247E+00
         -2   -1    0    0    0  501 -0.00000000000E+00  0.00000000000E+00  0.23561508631E+03  0.23561508632E+03  0.26000000000E-02 0.  1.
          2   -1    0    0  501    0  0.00000000000E+00 -0.00000000000E+00 -0.90501954556E+01  0.90501958291E+01  0.26000000000E-02 0. -1.
         23    2    1    2    0    0  0.00000000000E+00  0.00000000000E+00  0.22656489085E+03  0.24466528215E+03  0.92355024354E+02 0.  0.
        -11    1    3    3    0    0 -0.24776215960E+02 -0.30673787366E+02  0.17695219296E+03  0.18129208670E+03  0.51100000000E-03 0.  1.
         11    1    3    3    0    0  0.24776215960E+02  0.30673787366E+02  0.49612697897E+02  0.63373195450E+02  0.51100000000E-03 0. -1.
<mgrwt>
<rscale>  0 0.92355024E+02</rscale>
<asrwt>0</asrwt>
<pdfrwt beam="2">  1        2 0.13923380E-02 0.92355024E+02</pdfrwt>
<pdfrwt beam="1">  1       -2 0.36248469E-01 0.92355024E+02</pdfrwt>
<totfact> 0.55956688E+04</totfact>
</mgrwt>
</event>
<event>
 5    1  0.2799021E+000  0.9108523E+02  0.7818608E-02  0.1300245E+00
          2   -1    0    0  501    0  0.00000000000E+00  0.00000000000E+00  0.11429046097E+03  0.11429046100E+03  0.26000000000E-02 0. -1.
         -2   -1    0    0    0  501 -0.00000000000E+00 -0.00000000000E+00 -0.18147883669E+02  0.18147883856E+02  0.26000000000E-02 0.  1.
         23    2    1    2    0    0  0.00000000000E+00  0.00000000000E+00  0.96142577303E+02  0.13243834486E+03  0.91085234908E+02 0.  0.
        -11    1    3    3    0    0  0.13653965829E+02 -0.20732013764E+02 -0.74458496672E+01  0.25916941469E+02  0.51100000000E-03 0.  1.
         11    1    3    3    0    0 -0.13653965829E+02  0.20732013764E+02  0.10358842697E+03  0.10652140339E+03  0.51100000000E-03 0. -1.
<mgrwt>
<rscale>  0 0.91085235E+02</rscale>
<asrwt>0</asrwt>
<pdfrwt beam="1">  1        2 0.17583147E-01 0.91085235E+02</pdfrwt>
<pdfrwt beam="2">  1       -2 0.27919822E-02 0.91085235E+02</pdfrwt>
<totfact> 0.12821892E+05</totfact>
</mgrwt>
</event>
<event>
 5    1  0.2799021E+000  0.9106814E+02  0.7818608E-02  0.1300285E+00
         -2   -1    0    0    0  501 -0.00000000000E+00  0.00000000000E+00  0.52258693228E+02  0.52258693293E+02  0.26000000000E-02 0. -1.
          2   -1    0    0  501    0  0.00000000000E+00 -0.00000000000E+00 -0.39674767950E+02  0.39674768035E+02  0.26000000000E-02 0.  1.
         23    2    1    2    0    0  0.00000000000E+00  0.00000000000E+00  0.12583925278E+02  0.91933461328E+02  0.91068140073E+02 0.  0.
        -11    1    3    3    0    0 -0.33923323964E+02 -0.74631466871E+01 -0.23430301805E+02  0.41898323476E+02  0.51100000000E-03 0.  1.
         11    1    3    3    0    0  0.33923323964E+02  0.74631466871E+01  0.36014227083E+02  0.50035137852E+02  0.51100000000E-03 0. -1.
<mgrwt>
<rscale>  0 0.91068140E+02</rscale>
<asrwt>0</asrwt>
<pdfrwt beam="2">  1        2 0.61038105E-02 0.91068140E+02</pdfrwt>
<pdfrwt beam="1">  1       -2 0.80397990E-02 0.91068140E+02</pdfrwt>
<totfact> 0.95517017E+04</totfact>
</mgrwt>
</event>
<event>
 5    1  0.2799021E+000  0.9413371E+02  0.7818608E-02  0.1293139E+00
          2   -1    0    0  501    0  0.00000000000E+00  0.00000000000E+00  0.49849354541E+02  0.49849354609E+02  0.26000000000E-02 0. -1.
         -2   -1    0    0    0  501 -0.00000000000E+00 -0.00000000000E+00 -0.44439672163E+02  0.44439672239E+02  0.26000000000E-02 0.  1.
         23    2    1    2    0    0  0.00000000000E+00  0.00000000000E+00  0.54096823777E+01  0.94289026848E+02  0.94133712986E+02 0.  0.
        -11    1    3    3    0    0  0.23546660191E+02  0.37550349757E+02  0.18568111442E+02  0.48054643228E+02  0.51100000000E-03 0. -1.
         11    1    3    3    0    0 -0.23546660191E+02 -0.37550349757E+02 -0.13158429064E+02  0.46234383620E+02  0.51100000000E-03 0.  1.
<mgrwt>
<rscale>  0 0.94133713E+02</rscale>
<asrwt>0</asrwt>
<pdfrwt beam="1">  1        2 0.76691315E-02 0.94133713E+02</pdfrwt>
<pdfrwt beam="2">  1       -2 0.68368726E-02 0.94133713E+02</pdfrwt>
<totfact> 0.92173896E+04</totfact>
</mgrwt>
</event>
<event>
 5    1  0.2799021E+000  0.9090388E+02  0.7818608E-02  0.1300677E+00
         -2   -1    0    0    0  501 -0.00000000000E+00  0.00000000000E+00  0.40995801161E+02  0.40995801243E+02  0.26000000000E-02 0.  1.
          2   -1    0    0  501    0  0.00000000000E+00 -0.00000000000E+00 -0.50392450863E+02  0.50392450930E+02  0.26000000000E-02 0. -1.
         23    2    1    2    0    0  0.00000000000E+00  0.00000000000E+00 -0.93966497022E+01  0.91388252174E+02  0.90903881159E+02 0.  0.
        -11    1    3    3    0    0 -0.19088157328E+01  0.45124218230E+02 -0.98284806185E+01  0.46221614856E+02  0.51100000000E-03 0. -1.
         11    1    3    3    0    0  0.19088157328E+01 -0.45124218230E+02  0.43183091626E+00  0.45166637318E+02  0.51100000000E-03 0.  1.
<mgrwt>
<rscale>  0 0.90903881E+02</rscale>
<asrwt>0</asrwt>
<pdfrwt beam="2">  1        2 0.77526847E-02 0.90903881E+02</pdfrwt>
<pdfrwt beam="1">  1       -2 0.63070464E-02 0.90903881E+02</pdfrwt>
<totfact> 0.10215331E+05</totfact>
</mgrwt>
</event>
<event>
 5    1  0.2799021E+000  0.9235786E+02  0.7818608E-02  0.1297240E+00
          2   -1    0    0  501    0  0.00000000000E+00  0.00000000000E+00  0.50873375353E+02  0.50873375420E+02  0.26000000000E-02 0. -1.
         -2   -1    0    0    0  501 -0.00000000000E+00 -0.00000000000E+00 -0.41917676351E+02  0.41917676432E+02  0.26000000000E-02 0.  1.
         23    2    1    2    0    0  0.00000000000E+00  0.00000000000E+00  0.89556990017E+01  0.92791051852E+02  0.92357862465E+02 0.  0.
        -11    1    3    3    0    0 -0.37810211638E+02  0.25659403971E+02  0.11178205599E+02  0.47042208674E+02  0.51100000000E-03 0.  1.
         11    1    3    3    0    0  0.37810211638E+02 -0.25659403971E+02 -0.22225065968E+01  0.45748843178E+02  0.51100000000E-03 0. -1.
<mgrwt>
<rscale>  0 0.92357862E+02</rscale>
<asrwt>0</asrwt>
<pdfrwt beam="1">  1        2 0.78266731E-02 0.92357862E+02</pdfrwt>
<pdfrwt beam="2">  1       -2 0.64488733E-02 0.92357862E+02</pdfrwt>
<totfact> 0.97872627E+04</totfact>
</mgrwt>
</event>
<event>
 5    1  0.2799021E+000  0.9086994E+02  0.7818608E-02  0.1300759E+00
         -2   -1    0    0    0  501 -0.00000000000E+00  0.00000000000E+00  0.33375244006E+02  0.33375244107E+02  0.26000000000E-02 0.  1.
          2   -1    0    0  501    0  0.00000000000E+00 -0.00000000000E+00 -0.61852325913E+02  0.61852325967E+02  0.26000000000E-02 0. -1.
         23    2    1    2    0    0  0.00000000000E+00  0.00000000000E+00 -0.28477081907E+02  0.95227570075E+02  0.90869939520E+02 0.  0.
        -11    1    3    3    0    0 -0.74143267342E+01  0.42836098840E+02 -0.28079195509E+02  0.51752727710E+02  0.51100000000E-03 0. -1.
         11    1    3    3    0    0  0.74143267342E+01 -0.42836098840E+02 -0.39788639818E+00  0.43474842365E+02  0.51100000000E-03 0.  1.
<mgrwt>
<rscale>  0 0.90869940E+02</rscale>
<asrwt>0</asrwt>
<pdfrwt beam="2">  1        2 0.95157424E-02 0.90869940E+02</pdfrwt>
<pdfrwt beam="1">  1       -2 0.51346530E-02 0.90869940E+02</pdfrwt>
<totfact> 0.10796044E+05</totfact>
</mgrwt>
</event>
<event>
 5    1  0.2799021E+000  0.9062326E+02  0.7818608E-02  0.1301349E+00
         -2   -1    0    0    0  501 -0.00000000000E+00  0.00000000000E+00  0.22973353082E+02  0.22973353229E+02  0.26000000000E-02 0. -1.
          2   -1    0    0  501    0  0.00000000000E+00 -0.00000000000E+00 -0.89370668038E+02  0.89370668075E+02  0.26000000000E-02 0.  1.
         23    2    1    2    0    0  0.00000000000E+00  0.00000000000E+00 -0.66397314956E+02  0.11234402130E+03  0.90623262408E+02 0.  0.
        -11    1    3    3    0    0 -0.16953142610E+02  0.42001495320E+02 -0.31626034778E+02  0.55242562663E+02  0.51100000000E-03 0.  1.
         11    1    3    3    0    0  0.16953142610E+02 -0.42001495320E+02 -0.34771280178E+02  0.57101458642E+02  0.51100000000E-03 0. -1.
<mgrwt>
<rscale>  0 0.90623262E+02</rscale>
<asrwt>0</asrwt>
<pdfrwt beam="2">  1        2 0.13749333E-01 0.90623262E+02</pdfrwt>
<pdfrwt beam="1">  1       -2 0.35343621E-02 0.90623262E+02</pdfrwt>
<totfact> 0.12062503E+05</totfact>
</mgrwt>
</event>
<event>
 5    1  0.2799021E+000  0.9079525E+02  0.7818608E-02  0.1300937E+00
         -2   -1    0    0    0  501 -0.00000000000E+00  0.00000000000E+00  0.47230516559E+02  0.47230516630E+02  0.26000000000E-02 0.  1.
          2   -1    0    0  501    0  0.00000000000E+00 -0.00000000000E+00 -0.43635864391E+02  0.43635864468E+02  0.26000000000E-02 0. -1.
         23    2    1    2    0    0  0.00000000000E+00  0.00000000000E+00  0.35946521679E+01  0.90866381099E+02  0.90795251472E+02 0.  0.
        -11    1    3    3    0    0 -0.32394000126E+01  0.27410651909E+02 -0.34274035514E+02  0.44006216166E+02  0.51100000000E-03 0.  1.
         11    1    3    3    0    0  0.32394000126E+01 -0.27410651909E+02  0.37868687682E+02  0.46860164933E+02  0.51100000000E-03 0. -1.
<mgrwt>
<rscale>  0 0.90795251E+02</rscale>
<asrwt>0</asrwt>
<pdfrwt beam="2">  1        2 0.67132100E-02 0.90795251E+02</pdfrwt>
<pdfrwt beam="1">  1       -2 0.72662333E-02 0.90795251E+02</pdfrwt>
<totfact> 0.98745061E+04</totfact>
</mgrwt>
</event>
<event>
 5    1  0.2799021E+000  0.9041419E+02  0.7818608E-02  0.1301852E+00
          2   -1    0    0  501    0  0.00000000000E+00  0.00000000000E+00  0.20515523864E+03  0.20515523866E+03  0.26000000000E-02 0. -1.
         -2   -1    0    0    0  501 -0.00000000000E+00 -0.00000000000E+00 -0.99616335678E+01  0.99616339071E+01  0.26000000000E-02 0.  1.
         23    2    1    2    0    0  0.00000000000E+00  0.00000000000E+00  0.19519360507E+03  0.21511687257E+03  0.90414188049E+02 0.  0.
        -11    1    3    3    0    0  0.36878155841E+02  0.25952392900E+02  0.10517917479E+03  0.11443855944E+03  0.51100000000E-03 0. -1.
         11    1    3    3    0    0 -0.36878155841E+02 -0.25952392900E+02  0.90014430283E+02  0.10067831313E+03  0.51100000000E-03 0.  1.
<mgrwt>
<rscale>  0 0.90414188E+02</rscale>
<asrwt>0</asrwt>
<pdfrwt beam="1">  1        2 0.31562344E-01 0.90414188E+02</pdfrwt>
<pdfrwt beam="2">  1       -2 0.15325590E-02 0.90414188E+02</pdfrwt>
<totfact> 0.15967726E+05</totfact>
</mgrwt>
</event>
<event>
 5    1  0.2799021E+000  0.9040388E+02  0.7818608E-02  0.1301877E+00
          2   -1    0    0  501    0  0.00000000000E+00  0.00000000000E+00  0.22618995352E+03  0.22618995353E+03  0.26000000000E-02 0.  1.
         -2   -1    0    0    0  501 -0.00000000000E+00 -0.00000000000E+00 -0.90331829007E+01  0.90331832749E+01  0.26000000000E-02 0. -1.
         23    2    1    2    0    0  0.00000000000E+00  0.00000000000E+00  0.21715677062E+03  0.23522313681E+03  0.90403877488E+02 0.  0.
        -11    1    3    3    0    0 -0.29192957732E+01  0.44447086264E+02  0.12858937282E+03  0.13608560749E+03  0.51100000000E-03 0.  1.
         11    1    3    3    0    0  0.29192957732E+01 -0.44447086264E+02  0.88567397801E+02  0.99137529315E+02  0.51100000000E-03 0. -1.
<mgrwt>
<rscale>  0 0.90403877E+02</rscale>
<asrwt>0</asrwt>
<pdfrwt beam="1">  1        2 0.34798457E-01 0.90403877E+02</pdfrwt>
<pdfrwt beam="2">  1       -2 0.13897204E-02 0.90403877E+02</pdfrwt>
<totfact> 0.16551432E+05</totfact>
</mgrwt>
</event>
<event>
 5    1  0.2799021E+000  0.8995344E+02  0.7818608E-02  0.1302964E+00
         -2   -1    0    0    0  501 -0.00000000000E+00  0.00000000000E+00  0.75292405299E+01  0.75292409789E+01  0.26000000000E-02 0.  1.
          2   -1    0    0  501    0  0.00000000000E+00 -0.00000000000E+00 -0.26867322389E+03  0.26867322391E+03  0.26000000000E-02 0. -1.
         23    2    1    2    0    0  0.00000000000E+00  0.00000000000E+00 -0.26114398336E+03  0.27620246488E+03  0.89953441077E+02 0.  0.
        -11    1    3    3    0    0  0.29825609925E+02 -0.30030781335E+02 -0.17728914879E+03  0.18227138315E+03  0.51100000000E-03 0.  1.
         11    1    3    3    0    0 -0.29825609925E+02  0.30030781335E+02 -0.83854834569E+02  0.93931081734E+02  0.51100000000E-03 0. -1.
<mgrwt>
<rscale>  0 0.89953441E+02</rscale>
<asrwt>0</asrwt>
<pdfrwt beam="2">  1        2 0.41334335E-01 0.89953441E+02</pdfrwt>
<pdfrwt beam="1">  1       -2 0.11583449E-02 0.89953441E+02</pdfrwt>
<totfact> 0.17875295E+05</totfact>
</mgrwt>
</event>
<event>
 5    1  0.2799021E+000  0.9225640E+02  0.7818608E-02  0.1297478E+00
          2   -1    0    0  501    0  0.00000000000E+00  0.00000000000E+00  0.17462160819E+03  0.17462160821E+03  0.26000000000E-02 0. -1.
         -2   -1    0    0    0  501 -0.00000000000E+00 -0.00000000000E+00 -0.12185266518E+02  0.12185266795E+02  0.26000000000E-02 0.  1.
         23    2    1    2    0    0  0.00000000000E+00  0.00000000000E+00  0.16243634167E+03  0.18680687501E+03  0.92256400607E+02 0.  0.
        -11    1    3    3    0    0  0.16431723691E+02  0.22163868317E+02  0.63645782026E+01  0.28315127727E+02  0.51100000000E-03 0.  1.
         11    1    3    3    0    0 -0.16431723691E+02 -0.22163868317E+02  0.15607176347E+03  0.15849174728E+03  0.51100000000E-03 0. -1.
<mgrwt>
<rscale>  0 0.92256401E+02</rscale>
<asrwt>0</asrwt>
<pdfrwt beam="1">  1        2 0.26864863E-01 0.92256401E+02</pdfrwt>
<pdfrwt beam="2">  1       -2 0.18746564E-02 0.92256401E+02</pdfrwt>
<totfact> 0.14273806E+05</totfact>
</mgrwt>
</event>
<event>
 5    1  0.2799021E+000  0.9052767E+02  0.7818608E-02  0.1301579E+00
          2   -1    0    0  501    0  0.00000000000E+00  0.00000000000E+00  0.80379959351E+02  0.80379959393E+02  0.26000000000E-02 0.  1.
         -2   -1    0    0    0  501 -0.00000000000E+00 -0.00000000000E+00 -0.25489124491E+02  0.25489124624E+02  0.26000000000E-02 0. -1.
         23    2    1    2    0    0  0.00000000000E+00  0.00000000000E+00  0.54890834859E+02  0.10586908402E+03  0.90527670902E+02 0.  0.
        -11    1    3    3    0    0 -0.40965403970E+02 -0.29299831738E+01  0.51927802949E+01  0.41397029981E+02  0.51100000000E-03 0. -1.
         11    1    3    3    0    0  0.40965403970E+02  0.29299831738E+01  0.49698054564E+02  0.64472054036E+02  0.51100000000E-03 0.  1.
<mgrwt>
<rscale>  0 0.90527671E+02</rscale>
<asrwt>0</asrwt>
<pdfrwt beam="1">  1        2 0.12366147E-01 0.90527671E+02</pdfrwt>
<pdfrwt beam="2">  1       -2 0.39214038E-02 0.90527671E+02</pdfrwt>
<totfact> 0.11731528E+05</totfact>
</mgrwt>
</event>
<event>
 5    1  0.2799021E+000  0.9070039E+02  0.7818608E-02  0.1301164E+00
          2   -1    0    0  501    0  0.00000000000E+00  0.00000000000E+00  0.58539732115E+02  0.58539732173E+02  0.26000000000E-02 0.  1.
         -2   -1    0    0    0  501 -0.00000000000E+00 -0.00000000000E+00 -0.35132382493E+02  0.35132382589E+02  0.26000000000E-02 0. -1.
         23    2    1    2    0    0  0.00000000000E+00  0.00000000000E+00  0.23407349622E+02  0.93672114762E+02  0.90700391772E+02 0.  0.
        -11    1    3    3    0    0 -0.18085610610E+02  0.61634977478E+01 -0.30772476043E+02  0.36221862151E+02  0.51100000000E-03 0. -1.
         11    1    3    3    0    0  0.18085610610E+02 -0.61634977478E+01  0.54179825666E+02  0.57450252611E+02  0.51100000000E-03 0.  1.
<mgrwt>
<rscale>  0 0.90700392E+02</rscale>
<asrwt>0</asrwt>
<pdfrwt beam="1">  1        2 0.90061125E-02 0.90700392E+02</pdfrwt>
<pdfrwt beam="2">  1       -2 0.54049820E-02 0.90700392E+02</pdfrwt>
<totfact> 0.10694155E+05</totfact>
</mgrwt>
</event>
<event>
 5    1  0.2799021E+000  0.9079783E+02  0.7818608E-02  0.1300931E+00
          2   -1    0    0  501    0  0.00000000000E+00  0.00000000000E+00  0.15982979978E+02  0.15982980190E+02  0.26000000000E-02 0. -1.
         -2   -1    0    0    0  501 -0.00000000000E+00 -0.00000000000E+00 -0.12895352252E+03  0.12895352254E+03  0.26000000000E-02 0.  1.
         23    2    1    2    0    0  0.00000000000E+00  0.00000000000E+00 -0.11297054254E+03  0.14493650273E+03  0.90797832258E+02 0.  0.
        -11    1    3    3    0    0 -0.32466117108E+02 -0.12590091035E+01 -0.58704479427E+01  0.33016602238E+02  0.51100000000E-03 0. -1.
         11    1    3    3    0    0  0.32466117108E+02  0.12590091035E+01 -0.10710009460E+03  0.11191990049E+03  0.51100000000E-03 0.  1.
<mgrwt>
<rscale>  0 0.90797832E+02</rscale>
<asrwt>0</asrwt>
<pdfrwt beam="1">  1        2 0.24589201E-02 0.90797832E+02</pdfrwt>
<pdfrwt beam="2">  1       -2 0.19839003E-01 0.90797832E+02</pdfrwt>
<totfact> 0.74424086E+04</totfact>
</mgrwt>
</event>
<event>
 5    1  0.2799021E+000  0.9203002E+02  0.7818608E-02  0.1298009E+00
         -2   -1    0    0    0  501 -0.00000000000E+00  0.00000000000E+00  0.92199171298E+01  0.92199174963E+01  0.26000000000E-02 0.  1.
          2   -1    0    0  501    0  0.00000000000E+00 -0.00000000000E+00 -0.22965292857E+03  0.22965292858E+03  0.26000000000E-02 0. -1.
         23    2    1    2    0    0  0.00000000000E+00  0.00000000000E+00 -0.22043301144E+03  0.23887284608E+03  0.92030017180E+02 0.  0.
        -11    1    3    3    0    0 -0.29947185840E+02  0.15135940275E+02 -0.28488147577E+02  0.44017100999E+02  0.51100000000E-03 0.  1.
         11    1    3    3    0    0  0.29947185840E+02 -0.15135940275E+02 -0.19194486386E+03  0.19485574508E+03  0.51100000000E-03 0. -1.
<mgrwt>
<rscale>  0 0.92030017E+02</rscale>
<asrwt>0</asrwt>
<pdfrwt beam="2">  1        2 0.35331216E-01 0.92030017E+02</pdfrwt>
<pdfrwt beam="1">  1       -2 0.14184490E-02 0.92030017E+02</pdfrwt>
<totfact> 0.15866346E+05</totfact>
</mgrwt>
</event>
<event>
 5    1  0.2799021E+000  0.8844514E+02  0.7818608E-02  0.1306661E+00
         -2   -1    0    0    0  501 -0.00000000000E+00  0.00000000000E+00  0.69568717452E+02  0.69568717501E+02  0.26000000000E-02 0.  1.
          2   -1    0    0  501    0  0.00000000000E+00 -0.00000000000E+00 -0.28110848617E+02  0.28110848738E+02  0.26000000000E-02 0. -1.
         23    2    1    2    0    0  0.00000000000E+00  0.00000000000E+00  0.41457868835E+02  0.97679566239E+02  0.88445139902E+02 0.  0.
        -11    1    3    3    0    0 -0.36567748776E+02  0.20246383585E+02  0.47810537914E+01  0.42071068140E+02  0.51100000000E-03 0. -1.
         11    1    3    3    0    0  0.36567748776E+02 -0.20246383585E+02  0.36676815044E+02  0.55608498099E+02  0.51100000000E-03 0.  1.
<mgrwt>
<rscale>  0 0.88445140E+02</rscale>
<asrwt>0</asrwt>
<pdfrwt beam="2">  1        2 0.43247460E-02 0.88445140E+02</pdfrwt>
<pdfrwt beam="1">  1       -2 0.10702880E-01 0.88445140E+02</pdfrwt>
<totfact> 0.95158068E+04</totfact>
</mgrwt>
</event>
<event>
 5    1  0.2799021E+000  0.1097123E+03  0.7818608E-02  0.1261104E+00
         -2   -1    0    0    0  501 -0.00000000000E+00  0.00000000000E+00  0.30991304511E+03  0.30991304512E+03  0.26000000000E-02 0.  1.
          2   -1    0    0  501    0  0.00000000000E+00 -0.00000000000E+00 -0.97098183436E+01  0.97098186917E+01  0.26000000000E-02 0. -1.
         23    2    1    2    0    0  0.00000000000E+00  0.00000000000E+00  0.30020322676E+03  0.31962286381E+03  0.10971234074E+03 0.  0.
        -11    1    3    3    0    0  0.69737445246E+01  0.43372032417E+02  0.24581666258E+03  0.24971102881E+03  0.51100000000E-03 0.  1.
         11    1    3    3    0    0 -0.69737445246E+01 -0.43372032417E+02  0.54386564187E+02  0.69911835000E+02  0.51100000000E-03 0. -1.
<mgrwt>
<rscale>  0 0.10971234E+03</rscale>
<asrwt>0</asrwt>
<pdfrwt beam="2">  1        2 0.14938184E-02 0.10971234E+03</pdfrwt>
<pdfrwt beam="1">  1       -2 0.47678925E-01 0.10971234E+03</pdfrwt>
<totfact> 0.31020122E+04</totfact>
</mgrwt>
</event>
<event>
 5    1  0.2799021E+000  0.8954463E+02  0.7818608E-02  0.1303958E+00
          2   -1    0    0  501    0  0.00000000000E+00  0.00000000000E+00  0.10336906869E+03  0.10336906872E+03  0.26000000000E-02 0. -1.
         -2   -1    0    0    0  501 -0.00000000000E+00 -0.00000000000E+00 -0.19392263331E+02  0.19392263505E+02  0.26000000000E-02 0.  1.
         23    2    1    2    0    0  0.00000000000E+00  0.00000000000E+00  0.83976805359E+02  0.12276133223E+03  0.89544630503E+02 0.  0.
        -11    1    3    3    0    0  0.33838951541E+02 -0.29312824205E+02  0.42665475672E+02  0.61843828462E+02  0.51100000000E-03 0.  1.
         11    1    3    3    0    0 -0.33838951541E+02  0.29312824205E+02  0.41311329686E+02  0.60917503765E+02  0.51100000000E-03 0. -1.
<mgrwt>
<rscale>  0 0.89544631E+02</rscale>
<asrwt>0</asrwt>
<pdfrwt beam="1">  1        2 0.15902934E-01 0.89544631E+02</pdfrwt>
<pdfrwt beam="2">  1       -2 0.29834251E-02 0.89544631E+02</pdfrwt>
<totfact> 0.13022289E+05</totfact>
</mgrwt>
</event>
<event>
 5    1  0.2799021E+000  0.9534022E+02  0.7818608E-02  0.1290412E+00
          2   -1    0    0  501    0  0.00000000000E+00  0.00000000000E+00  0.22737090426E+02  0.22737090575E+02  0.26000000000E-02 0. -1.
         -2   -1    0    0    0  501 -0.00000000000E+00 -0.00000000000E+00 -0.99944157701E+02  0.99944157734E+02  0.26000000000E-02 0.  1.
         23    2    1    2    0    0  0.00000000000E+00  0.00000000000E+00 -0.77207067274E+02  0.12268124831E+03  0.95340219476E+02 0.  0.
        -11    1    3    3    0    0  0.83476234130E+01  0.46763439488E+02 -0.43740527438E+02  0.64573491699E+02  0.51100000000E-03 0. -1.
         11    1    3    3    0    0 -0.83476234130E+01 -0.46763439488E+02 -0.33466539837E+02  0.58107756610E+02  0.51100000000E-03 0.  1.
<mgrwt>
<rscale>  0 0.95340219E+02</rscale>
<asrwt>0</asrwt>
<pdfrwt beam="1">  1        2 0.34980140E-02 0.95340219E+02</pdfrwt>
<pdfrwt beam="2">  1       -2 0.15376024E-01 0.95340219E+02</pdfrwt>
<totfact> 0.71423484E+04</totfact>
</mgrwt>
</event>
<event>
 5    1  0.2799021E+000  0.1007733E+03  0.7818608E-02  0.1278678E+00
         -2   -1    0    0    0  501 -0.00000000000E+00  0.00000000000E+00  0.10057825417E+03  0.10057825421E+03  0.26000000000E-02 0.  1.
          2   -1    0    0  501    0  0.00000000000E+00 -0.00000000000E+00 -0.25242186704E+02  0.25242186838E+02  0.26000000000E-02 0. -1.
         23    2    1    2    0    0  0.00000000000E+00  0.00000000000E+00  0.75336067471E+02  0.12582044105E+03  0.10077331156E+03 0.  0.
        -11    1    3    3    0    0 -0.22753828463E+02  0.31297615220E+02  0.77962291487E+02  0.87036752710E+02  0.51100000000E-03 0.  1.
         11    1    3    3    0    0  0.22753828463E+02 -0.31297615220E+02 -0.26262240164E+01  0.38783688337E+02  0.51100000000E-03 0. -1.
<mgrwt>
<rscale>  0 0.10077331E+03</rscale>
<asrwt>0</asrwt>
<pdfrwt beam="2">  1        2 0.38834134E-02 0.10077331E+03</pdfrwt>
<pdfrwt beam="1">  1       -2 0.15473578E-01 0.10077331E+03</pdfrwt>
<totfact> 0.62114288E+04</totfact>
</mgrwt>
</event>
<event>
 5    1  0.2799021E+000  0.9495548E+02  0.7818608E-02  0.1291276E+00
         -2   -1    0    0    0  501 -0.00000000000E+00  0.00000000000E+00  0.48473401026E+02  0.48473401095E+02  0.26000000000E-02 0.  1.
          2   -1    0    0  501    0  0.00000000000E+00 -0.00000000000E+00 -0.46502532233E+02  0.46502532306E+02  0.26000000000E-02 0. -1.
         23    2    1    2    0    0  0.00000000000E+00  0.00000000000E+00  0.19708687923E+01  0.94975933401E+02  0.94955482210E+02 0.  0.
        -11    1    3    3    0    0 -0.18124602274E+02 -0.13961928876E+02  0.42596067884E+02  0.48351439120E+02  0.51100000000E-03 0.  1.
         11    1    3    3    0    0  0.18124602274E+02  0.13961928876E+02 -0.40625199091E+02  0.46624494282E+02  0.51100000000E-03 0. -1.
<mgrwt>
<rscale>  0 0.94955482E+02</rscale>
<asrwt>0</asrwt>
<pdfrwt beam="2">  1        2 0.71542357E-02 0.94955482E+02</pdfrwt>
<pdfrwt beam="1">  1       -2 0.74574463E-02 0.94955482E+02</pdfrwt>
<totfact> 0.88236782E+04</totfact>
</mgrwt>
</event>
<event>
 5    1  0.2799021E+000  0.9123207E+02  0.7818608E-02  0.1299895E+00
         -2   -1    0    0    0  501 -0.00000000000E+00  0.00000000000E+00  0.53558839248E+02  0.53558839311E+02  0.26000000000E-02 0.  1.
          2   -1    0    0  501    0  0.00000000000E+00 -0.00000000000E+00 -0.38851150682E+02  0.38851150769E+02  0.26000000000E-02 0. -1.
         23    2    1    2    0    0  0.00000000000E+00  0.00000000000E+00  0.14707688566E+02  0.92409990080E+02  0.91232067628E+02 0.  0.
        -11    1    3    3    0    0 -0.46757798815E+01 -0.13071432255E+02  0.51367109578E+02  0.53210010387E+02  0.51100000000E-03 0.  1.
         11    1    3    3    0    0  0.46757798815E+01  0.13071432255E+02 -0.36659421013E+02  0.39199979693E+02  0.51100000000E-03 0. -1.
<mgrwt>
<rscale>  0 0.91232068E+02</rscale>
<asrwt>0</asrwt>
<pdfrwt beam="2">  1        2 0.59771001E-02 0.91232068E+02</pdfrwt>
<pdfrwt beam="1">  1       -2 0.82398214E-02 0.91232068E+02</pdfrwt>
<totfact> 0.94504920E+04</totfact>
</mgrwt>
</event>
<event>
 5    1  0.2799021E+000  0.9492995E+02  0.7818608E-02  0.1291334E+00
         -2   -1    0    0    0  501 -0.00000000000E+00  0.00000000000E+00  0.46988893203E+02  0.46988893275E+02  0.26000000000E-02 0. -1.
          2   -1    0    0  501    0  0.00000000000E+00 -0.00000000000E+00 -0.47945884500E+02  0.47945884570E+02  0.26000000000E-02 0.  1.
         23    2    1    2    0    0  0.00000000000E+00  0.00000000000E+00 -0.95699129702E+00  0.94934777845E+02  0.94929954241E+02 0.  0.
        -11    1    3    3    0    0 -0.95756531178E+01 -0.29617714351E+02  0.35356576671E+02  0.47106152997E+02  0.51100000000E-03 0. -1.
         11    1    3    3    0    0  0.95756531178E+01  0.29617714351E+02 -0.36313567968E+02  0.47828624848E+02  0.51100000000E-03 0.  1.
<mgrwt>
<rscale>  0 0.94929954E+02</rscale>
<asrwt>0</asrwt>
<pdfrwt beam="2">  1        2 0.73762899E-02 0.94929954E+02</pdfrwt>
<pdfrwt beam="1">  1       -2 0.72290606E-02 0.94929954E+02</pdfrwt>
<totfact> 0.89032054E+04</totfact>
</mgrwt>
</event>
<event>
 5    1  0.2799021E+000  0.9137651E+02  0.7818608E-02  0.1299552E+00
          2   -1    0    0  501    0  0.00000000000E+00  0.00000000000E+00  0.22961851214E+03  0.22961851215E+03  0.26000000000E-02 0. -1.
         -2   -1    0    0    0  501 -0.00000000000E+00 -0.00000000000E+00 -0.90908028331E+01  0.90908032049E+01  0.26000000000E-02 0.  1.
         23    2    1    2    0    0  0.00000000000E+00  0.00000000000E+00  0.22052770930E+03  0.23870931536E+03  0.91376510478E+02 0.  0.
        -11    1    3    3    0    0 -0.32378300222E+02 -0.32228494089E+02  0.11188796372E+03  0.12085506437E+03  0.51100000000E-03 0. -1.
         11    1    3    3    0    0  0.32378300222E+02  0.32228494089E+02  0.10863974558E+03  0.11785425099E+03  0.51100000000E-03 0.  1.
<mgrwt>
<rscale>  0 0.91376510E+02</rscale>
<asrwt>0</asrwt>
<pdfrwt beam="1">  1        2 0.35325924E-01 0.91376510E+02</pdfrwt>
<pdfrwt beam="2">  1       -2 0.13985851E-02 0.91376510E+02</pdfrwt>
<totfact> 0.16172221E+05</totfact>
</mgrwt>
</event>
<event>
 5    1  0.2799021E+000  0.9210628E+02  0.7818608E-02  0.1297830E+00
         -2   -1    0    0    0  501 -0.00000000000E+00  0.00000000000E+00  0.17912574634E+03  0.17912574636E+03  0.26000000000E-02 0.  1.
          2   -1    0    0  501    0  0.00000000000E+00 -0.00000000000E+00 -0.11840240047E+02  0.11840240332E+02  0.26000000000E-02 0. -1.
         23    2    1    2    0    0  0.00000000000E+00  0.00000000000E+00  0.16728550630E+03  0.19096598670E+03  0.92106283485E+02 0.  0.
        -11    1    3    3    0    0 -0.37235674778E+02 -0.26814320927E+02  0.75509467017E+02  0.88358264427E+02  0.51100000000E-03 0. -1.
         11    1    3    3    0    0  0.37235674778E+02  0.26814320927E+02  0.91776039280E+02  0.10260772227E+03  0.51100000000E-03 0.  1.
<mgrwt>
<rscale>  0 0.92106283E+02</rscale>
<asrwt>0</asrwt>
<pdfrwt beam="2">  1        2 0.18215754E-02 0.92106283E+02</pdfrwt>
<pdfrwt beam="1">  1       -2 0.27557807E-01 0.92106283E+02</pdfrwt>
<totfact> 0.63597043E+04</totfact>
</mgrwt>
</event>
<event>
 5    1  0.2799021E+000  0.8743640E+02  0.7818608E-02  0.1309181E+00
         -2   -1    0    0    0  501 -0.00000000000E+00  0.00000000000E+00  0.11798597251E+02  0.11798597538E+02  0.26000000000E-02 0. -1.
          2   -1    0    0  501    0  0.00000000000E+00 -0.00000000000E+00 -0.16199221362E+03  0.16199221364E+03  0.26000000000E-02 0.  1.
         23    2    1    2    0    0  0.00000000000E+00  0.00000000000E+00 -0.15019361637E+03  0.17379081118E+03  0.87436397755E+02 0.  0.
        -11    1    3    3    0    0  0.30713395122E+02  0.22700057354E+02 -0.11738587769E+03  0.12344249481E+03  0.51100000000E-03 0.  1.
         11    1    3    3    0    0 -0.30713395122E+02 -0.22700057354E+02 -0.32807738683E+02  0.50348316372E+02  0.51100000000E-03 0. -1.
<mgrwt>
<rscale>  0 0.87436398E+02</rscale>
<asrwt>0</asrwt>
<pdfrwt beam="2">  1        2 0.24921877E-01 0.87436398E+02</pdfrwt>
<pdfrwt beam="1">  1       -2 0.18151689E-02 0.87436398E+02</pdfrwt>
<totfact> 0.16072890E+05</totfact>
</mgrwt>
</event>
<event>
 5    1  0.2799021E+000  0.8717738E+02  0.7818608E-02  0.1309835E+00
          2   -1    0    0  501    0  0.00000000000E+00  0.00000000000E+00  0.30775478362E+03  0.30775478363E+03  0.26000000000E-02 0. -1.
         -2   -1    0    0    0  501 -0.00000000000E+00 -0.00000000000E+00 -0.61736607284E+01  0.61736612759E+01  0.26000000000E-02 0.  1.
         23    2    1    2    0    0  0.00000000000E+00  0.00000000000E+00  0.30158112289E+03  0.31392844491E+03  0.87177375718E+02 0.  0.
        -11    1    3    3    0    0  0.38303548854E+02 -0.20760801013E+02  0.15562318756E+03  0.16160677343E+03  0.51100000000E-03 0. -1.
         11    1    3    3    0    0 -0.38303548854E+02  0.20760801013E+02  0.14595793534E+03  0.15232167148E+03  0.51100000000E-03 0.  1.
<mgrwt>
<rscale>  0 0.87177376E+02</rscale>
<asrwt>0</asrwt>
<pdfrwt beam="1">  1        2 0.47346898E-01 0.87177376E+02</pdfrwt>
<pdfrwt beam="2">  1       -2 0.94979385E-03 0.87177376E+02</pdfrwt>
<totfact> 0.20434932E+05</totfact>
</mgrwt>
</event>
<event>
 5    1  0.2799021E+000  0.8459461E+02  0.7818608E-02  0.1316496E+00
          2   -1    0    0  501    0  0.00000000000E+00  0.00000000000E+00  0.84017616497E+01  0.84017620519E+01  0.26000000000E-02 0.  1.
         -2   -1    0    0    0  501 -0.00000000000E+00 -0.00000000000E+00 -0.21293892985E+03  0.21293892987E+03  0.26000000000E-02 0. -1.
         23    2    1    2    0    0  0.00000000000E+00  0.00000000000E+00 -0.20453716820E+03  0.22134069192E+03  0.84594614033E+02 0.  0.
        -11    1    3    3    0    0  0.29906736811E+02  0.27028869146E+01 -0.24327852280E+02  0.38646641525E+02  0.51100000000E-03 0.  1.
         11    1    3    3    0    0 -0.29906736811E+02 -0.27028869146E+01 -0.18020931592E+03  0.18269405040E+03  0.51100000000E-03 0. -1.
<mgrwt>
<rscale>  0 0.84594614E+02</rscale>
<asrwt>0</asrwt>
<pdfrwt beam="1">  1        2 0.12925789E-02 0.84594614E+02</pdfrwt>
<pdfrwt beam="2">  1       -2 0.32759831E-01 0.84594614E+02</pdfrwt>
<totfact> 0.73395149E+04</totfact>
</mgrwt>
</event>
<event>
 5    1  0.2799021E+000  0.9088989E+02  0.7818608E-02  0.1300711E+00
          2   -1    0    0  501    0  0.00000000000E+00  0.00000000000E+00  0.12903986279E+03  0.12903986282E+03  0.26000000000E-02 0.  1.
         -2   -1    0    0    0  501 -0.00000000000E+00 -0.00000000000E+00 -0.16004690058E+02  0.16004690269E+02  0.26000000000E-02 0. -1.
         23    2    1    2    0    0  0.00000000000E+00  0.00000000000E+00  0.11303517273E+03  0.14504455308E+03  0.90889890005E+02 0.  0.
        -11    1    3    3    0    0 -0.13107726307E+02  0.39252730745E+02  0.86485744239E+02  0.95876865389E+02  0.51100000000E-03 0.  1.
         11    1    3    3    0    0  0.13107726307E+02 -0.39252730745E+02  0.26549428492E+02  0.49167687696E+02  0.51100000000E-03 0. -1.
<mgrwt>
<rscale>  0 0.90889890E+02</rscale>
<asrwt>0</asrwt>
<pdfrwt beam="1">  1        2 0.19852287E-01 0.90889890E+02</pdfrwt>
<pdfrwt beam="2">  1       -2 0.24622599E-02 0.90889890E+02</pdfrwt>
<totfact> 0.13410482E+05</totfact>
</mgrwt>
</event>
<event>
 5    1  0.2799021E+000  0.9547504E+02  0.7818608E-02  0.1290110E+00
          2   -1    0    0  501    0  0.00000000000E+00  0.00000000000E+00  0.48471702109E+02  0.48471702179E+02  0.26000000000E-02 0.  1.
         -2   -1    0    0    0  501 -0.00000000000E+00 -0.00000000000E+00 -0.47014462303E+02  0.47014462375E+02  0.26000000000E-02 0. -1.
         23    2    1    2    0    0  0.00000000000E+00  0.00000000000E+00  0.14572398060E+01  0.95486164554E+02  0.95475044244E+02 0.  0.
        -11    1    3    3    0    0  0.22072544708E+01  0.37276954036E+02 -0.29014173851E+02  0.47289169574E+02  0.51100000000E-03 0. -1.
         11    1    3    3    0    0 -0.22072544708E+01 -0.37276954036E+02  0.30471413657E+02  0.48196994979E+02  0.51100000000E-03 0.  1.
<mgrwt>
<rscale>  0 0.95475044E+02</rscale>
<asrwt>0</asrwt>
<pdfrwt beam="1">  1        2 0.74571849E-02 0.95475044E+02</pdfrwt>
<pdfrwt beam="2">  1       -2 0.72329943E-02 0.95475044E+02</pdfrwt>
<totfact> 0.87830198E+04</totfact>
</mgrwt>
</event>
<event>
 5    1  0.2799021E+000  0.7901562E+02  0.7818608E-02  0.1331868E+00
         -2   -1    0    0    0  501 -0.00000000000E+00  0.00000000000E+00  0.47268760081E+02  0.47268760153E+02  0.26000000000E-02 0.  1.
          2   -1    0    0  501    0  0.00000000000E+00 -0.00000000000E+00 -0.33021114259E+02  0.33021114361E+02  0.26000000000E-02 0. -1.
         23    2    1    2    0    0  0.00000000000E+00  0.00000000000E+00  0.14247645822E+02  0.80289874514E+02  0.79015622113E+02 0.  0.
        -11    1    3    3    0    0  0.22259205655E+02 -0.25307076569E+00 -0.26041945800E+02  0.34259585849E+02  0.51100000000E-03 0. -1.
         11    1    3    3    0    0 -0.22259205655E+02  0.25307076569E+00  0.40289591623E+02  0.46030288665E+02  0.51100000000E-03 0.  1.
<mgrwt>
<rscale>  0 0.79015622E+02</rscale>
<asrwt>0</asrwt>
<pdfrwt beam="2">  1        2 0.50801715E-02 0.79015622E+02</pdfrwt>
<pdfrwt beam="1">  1       -2 0.72721169E-02 0.79015622E+02</pdfrwt>
<totfact> 0.13729177E+05</totfact>
</mgrwt>
</event>
<event>
 5    1  0.2799021E+000  0.9389234E+02  0.7818608E-02  0.1293690E+00
         -2   -1    0    0    0  501 -0.00000000000E+00  0.00000000000E+00  0.42272245450E+02  0.42272245530E+02  0.26000000000E-02 0.  1.
          2   -1    0    0  501    0  0.00000000000E+00 -0.00000000000E+00 -0.52136880208E+02  0.52136880272E+02  0.26000000000E-02 0. -1.
         23    2    1    2    0    0  0.00000000000E+00  0.00000000000E+00 -0.98646347579E+01  0.94409125802E+02  0.93892342690E+02 0.  0.
        -11    1    3    3    0    0 -0.31640513436E+02  0.28133908027E+01 -0.39689984987E+02  0.50836327236E+02  0.51100000000E-03 0. -1.
         11    1    3    3    0    0  0.31640513436E+02 -0.28133908027E+01  0.29825350229E+02  0.43572798566E+02  0.51100000000E-03 0.  1.
<mgrwt>
<rscale>  0 0.93892343E+02</rscale>
<asrwt>0</asrwt>
<pdfrwt beam="2">  1        2 0.80210585E-02 0.93892343E+02</pdfrwt>
<pdfrwt beam="1">  1       -2 0.65034224E-02 0.93892343E+02</pdfrwt>
<totfact> 0.93977144E+04</totfact>
</mgrwt>
</event>
<event>
 5    1  0.2799021E+000  0.7161130E+02  0.7818608E-02  0.1354698E+00
         -2   -1    0    0    0  501 -0.00000000000E+00  0.00000000000E+00  0.20681271336E+02  0.20681271500E+02  0.26000000000E-02 0.  1.
          2   -1    0    0  501    0  0.00000000000E+00 -0.00000000000E+00 -0.61990611797E+02  0.61990611851E+02  0.26000000000E-02 0. -1.
         23    2    1    2    0    0  0.00000000000E+00  0.00000000000E+00 -0.41309340461E+02  0.82671883351E+02  0.71611302792E+02 0.  0.
        -11    1    3    3    0    0 -0.95573754459E+01 -0.20269308532E+02 -0.52893819334E+02  0.57445142682E+02  0.51100000000E-03 0. -1.
         11    1    3    3    0    0  0.95573754459E+01  0.20269308532E+02  0.11584478873E+02  0.25226740669E+02  0.51100000000E-03 0.  1.
<mgrwt>
<rscale>  0 0.71611303E+02</rscale>
<asrwt>0</asrwt>
<pdfrwt beam="2">  1        2 0.95370171E-02 0.71611303E+02</pdfrwt>
<pdfrwt beam="1">  1       -2 0.31817341E-02 0.71611303E+02</pdfrwt>
<totfact> 0.20825193E+05</totfact>
</mgrwt>
</event>
<event>
 5    1  0.2799021E+000  0.9383581E+02  0.7818608E-02  0.1293820E+00
          2   -1    0    0  501    0  0.00000000000E+00  0.00000000000E+00  0.26335677407E+03  0.26335677408E+03  0.26000000000E-02 0. -1.
         -2   -1    0    0    0  501 -0.00000000000E+00 -0.00000000000E+00 -0.83585832733E+01  0.83585836777E+01  0.26000000000E-02 0.  1.
         23    2    1    2    0    0  0.00000000000E+00  0.00000000000E+00  0.25499819079E+03  0.27171535776E+03  0.93835805177E+02 0.  0.
        -11    1    3    3    0    0  0.37861462993E+02 -0.18149860084E+02  0.66871289706E+02  0.78959972063E+02  0.51100000000E-03 0.  1.
         11    1    3    3    0    0 -0.37861462993E+02  0.18149860084E+02  0.18812690109E+03  0.19275538569E+03  0.51100000000E-03 0. -1.
<mgrwt>
<rscale>  0 0.93835805E+02</rscale>
<asrwt>0</asrwt>
<pdfrwt beam="1">  1        2 0.40516434E-01 0.93835805E+02</pdfrwt>
<pdfrwt beam="2">  1       -2 0.12859357E-02 0.93835805E+02</pdfrwt>
<totfact> 0.15844403E+05</totfact>
</mgrwt>
</event>
<event>
 5    1  0.2799021E+000  0.9134767E+02  0.7818608E-02  0.1299621E+00
          2   -1    0    0  501    0  0.00000000000E+00  0.00000000000E+00  0.25185538686E+02  0.25185538821E+02  0.26000000000E-02 0. -1.
         -2   -1    0    0    0  501 -0.00000000000E+00 -0.00000000000E+00 -0.82829239690E+02  0.82829239731E+02  0.26000000000E-02 0.  1.
         23    2    1    2    0    0  0.00000000000E+00  0.00000000000E+00 -0.57643701004E+02  0.10801477855E+03  0.91347666199E+02 0.  0.
        -11    1    3    3    0    0 -0.11961967399E+02  0.79728027332E+01 -0.80084436249E+02  0.81364434349E+02  0.51100000000E-03 0.  1.
         11    1    3    3    0    0  0.11961967399E+02 -0.79728027332E+01  0.22440735245E+02  0.26650344202E+02  0.51100000000E-03 0. -1.
<mgrwt>
<rscale>  0 0.91347666E+02</rscale>
<asrwt>0</asrwt>
<pdfrwt beam="1">  1        2 0.38746983E-02 0.91347666E+02</pdfrwt>
<pdfrwt beam="2">  1       -2 0.12742960E-01 0.91347666E+02</pdfrwt>
<totfact> 0.83874116E+04</totfact>
</mgrwt>
</event>
<event>
 5    1  0.2799021E+000  0.9115571E+02  0.7818608E-02  0.1300077E+00
         -2   -1    0    0    0  501 -0.00000000000E+00  0.00000000000E+00  0.17511797020E+02  0.17511797213E+02  0.26000000000E-02 0.  1.
          2   -1    0    0  501    0  0.00000000000E+00 -0.00000000000E+00 -0.11862521830E+03  0.11862521832E+03  0.26000000000E-02 0. -1.
         23    2    1    2    0    0  0.00000000000E+00  0.00000000000E+00 -0.10111342128E+03  0.13613701554E+03  0.91155707650E+02 0.  0.
        -11    1    3    3    0    0  0.10524222158E+02 -0.38695878825E+02 -0.82906853685E+02  0.92096018798E+02  0.51100000000E-03 0. -1.
         11    1    3    3    0    0 -0.10524222158E+02  0.38695878825E+02 -0.18206567591E+02  0.44040996739E+02  0.51100000000E-03 0.  1.
<mgrwt>
<rscale>  0 0.91155708E+02</rscale>
<asrwt>0</asrwt>
<pdfrwt beam="2">  1        2 0.18250033E-01 0.91155708E+02</pdfrwt>
<pdfrwt beam="1">  1       -2 0.26941227E-02 0.91155708E+02</pdfrwt>
<totfact> 0.12946873E+05</totfact>
</mgrwt>
</event>
<event>
 5    1  0.2799021E+000  0.9109590E+02  0.7818608E-02  0.1300219E+00
          2   -1    0    0  501    0  0.00000000000E+00  0.00000000000E+00  0.25532037132E+03  0.25532037133E+03  0.26000000000E-02 0. -1.
         -2   -1    0    0    0  501 -0.00000000000E+00 -0.00000000000E+00 -0.81255396183E+01  0.81255400342E+01  0.26000000000E-02 0.  1.
         23    2    1    2    0    0  0.00000000000E+00  0.00000000000E+00  0.24719483170E+03  0.26344591136E+03  0.91095902192E+02 0.  0.
        -11    1    3    3    0    0 -0.37961613044E+02  0.19491893544E+02  0.16965121071E+03  0.17493584903E+03  0.51100000000E-03 0. -1.
         11    1    3    3    0    0  0.37961613044E+02 -0.19491893544E+02  0.77543620987E+02  0.88510062337E+02  0.51100000000E-03 0.  1.
<mgrwt>
<rscale>  0 0.91095902E+02</rscale>
<asrwt>0</asrwt>
<pdfrwt beam="1">  1        2 0.39280054E-01 0.91095902E+02</pdfrwt>
<pdfrwt beam="2">  1       -2 0.12500832E-02 0.91095902E+02</pdfrwt>
<totfact> 0.16957737E+05</totfact>
</mgrwt>
</event>
<event>
 5    1  0.2799021E+000  0.9594365E+02  0.7818608E-02  0.1289065E+00
         -2   -1    0    0    0  501 -0.00000000000E+00  0.00000000000E+00  0.39540675401E+03  0.39540675402E+03  0.26000000000E-02 0. -1.
          2   -1    0    0  501    0  0.00000000000E+00 -0.00000000000E+00 -0.58200722696E+01  0.58200728503E+01  0.26000000000E-02 0.  1.
         23    2    1    2    0    0  0.00000000000E+00  0.00000000000E+00  0.38958668174E+03  0.40122682687E+03  0.95943650180E+02 0.  0.
        -11    1    3    3    0    0  0.44996906744E+02  0.11911008027E+02  0.24332902871E+03  0.24774101385E+03  0.51100000000E-03 0. -1.
         11    1    3    3    0    0 -0.44996906744E+02 -0.11911008027E+02  0.14625765303E+03  0.15348581302E+03  0.51100000000E-03 0.  1.
<mgrwt>
<rscale>  0 0.95943650E+02</rscale>
<asrwt>0</asrwt>
<pdfrwt beam="2">  1        2 0.89539586E-03 0.95943650E+02</pdfrwt>
<pdfrwt beam="1">  1       -2 0.60831803E-01 0.95943650E+02</pdfrwt>
<totfact> 0.37706685E+04</totfact>
</mgrwt>
</event>
<event>
 5    1  0.2799021E+000  0.8886588E+02  0.7818608E-02  0.1305622E+00
          2   -1    0    0  501    0  0.00000000000E+00  0.00000000000E+00  0.30569441624E+02  0.30569441735E+02  0.26000000000E-02 0. -1.
         -2   -1    0    0    0  501 -0.00000000000E+00 -0.00000000000E+00 -0.64583644049E+02  0.64583644102E+02  0.26000000000E-02 0.  1.
         23    2    1    2    0    0  0.00000000000E+00  0.00000000000E+00 -0.34014202425E+02  0.95153085836E+02  0.88865875214E+02 0.  0.
        -11    1    3    3    0    0 -0.20889472790E+02  0.52327907268E+00 -0.58994162417E+02  0.62585582157E+02  0.51100000000E-03 0.  1.
         11    1    3    3    0    0  0.20889472790E+02 -0.52327907268E+00  0.24979959992E+02  0.32567503679E+02  0.51100000000E-03 0. -1.
<mgrwt>
<rscale>  0 0.88865875E+02</rscale>
<asrwt>0</asrwt>
<pdfrwt beam="1">  1        2 0.47029910E-02 0.88865875E+02</pdfrwt>
<pdfrwt beam="2">  1       -2 0.99359452E-02 0.88865875E+02</pdfrwt>
<totfact> 0.95908071E+04</totfact>
</mgrwt>
</event>
<event>
 5    1  0.2799021E+000  0.9162611E+02  0.7818608E-02  0.1298961E+00
          2   -1    0    0  501    0  0.00000000000E+00  0.00000000000E+00  0.97897119543E+02  0.97897119578E+02  0.26000000000E-02 0. -1.
         -2   -1    0    0    0  501 -0.00000000000E+00 -0.00000000000E+00 -0.21439200414E+02  0.21439200571E+02  0.26000000000E-02 0.  1.
         23    2    1    2    0    0  0.00000000000E+00  0.00000000000E+00  0.76457919130E+02  0.11933632015E+03  0.91626109320E+02 0.  0.
        -11    1    3    3    0    0  0.32511610879E+02  0.20915767554E+02  0.62103918980E+01  0.39154094832E+02  0.51100000000E-03 0. -1.
         11    1    3    3    0    0 -0.32511610879E+02 -0.20915767554E+02  0.70247527232E+02  0.80182225317E+02  0.51100000000E-03 0.  1.
<mgrwt>
<rscale>  0 0.91626109E+02</rscale>
<asrwt>0</asrwt>
<pdfrwt beam="1">  1        2 0.15061095E-01 0.91626109E+02</pdfrwt>
<pdfrwt beam="2">  1       -2 0.32983385E-02 0.91626109E+02</pdfrwt>
<totfact> 0.12024541E+05</totfact>
</mgrwt>
</event>
<event>
 5    1  0.2799021E+000  0.9252875E+02  0.7818608E-02  0.1296841E+00
         -2   -1    0    0    0  501 -0.00000000000E+00  0.00000000000E+00  0.72621543331E+02  0.72621543378E+02  0.26000000000E-02 0.  1.
          2   -1    0    0  501    0  0.00000000000E+00 -0.00000000000E+00 -0.29473242260E+02  0.29473242374E+02  0.26000000000E-02 0. -1.
         23    2    1    2    0    0  0.00000000000E+00  0.00000000000E+00  0.43148301071E+02  0.10209478575E+03  0.92528749005E+02 0.  0.
        -11    1    3    3    0    0 -0.15223811612E+02  0.31213354652E+02  0.55301536995E+02  0.65301592193E+02  0.51100000000E-03 0.  1.
         11    1    3    3    0    0  0.15223811612E+02 -0.31213354652E+02 -0.12153235924E+02  0.36793193559E+02  0.51100000000E-03 0. -1.
<mgrwt>
<rscale>  0 0.92528749E+02</rscale>
<asrwt>0</asrwt>
<pdfrwt beam="2">  1        2 0.45343451E-02 0.92528749E+02</pdfrwt>
<pdfrwt beam="1">  1       -2 0.11172545E-01 0.92528749E+02</pdfrwt>
<totfact> 0.84268426E+04</totfact>
</mgrwt>
</event>
<event>
 5    1  0.2799021E+000  0.9319355E+02  0.7818608E-02  0.1295297E+00
          2   -1    0    0  501    0  0.00000000000E+00  0.00000000000E+00  0.34292420333E+03  0.34292420334E+03  0.26000000000E-02 0. -1.
         -2   -1    0    0    0  501 -0.00000000000E+00 -0.00000000000E+00 -0.63316016391E+01  0.63316021729E+01  0.26000000000E-02 0.  1.
         23    2    1    2    0    0  0.00000000000E+00  0.00000000000E+00  0.33659260169E+03  0.34925580551E+03  0.93193552198E+02 0.  0.
        -11    1    3    3    0    0  0.77028789286E+01 -0.45565261850E+02  0.19069831706E+03  0.19621767393E+03  0.51100000000E-03 0.  1.
         11    1    3    3    0    0 -0.77028789286E+01  0.45565261850E+02  0.14589428463E+03  0.15303813158E+03  0.51100000000E-03 0. -1.
<mgrwt>
<rscale>  0 0.93193552E+02</rscale>
<asrwt>0</asrwt>
<pdfrwt beam="1">  1        2 0.52757568E-01 0.93193552E+02</pdfrwt>
<pdfrwt beam="2">  1       -2 0.97409263E-03 0.93193552E+02</pdfrwt>
<totfact> 0.17808146E+05</totfact>
</mgrwt>
</event>
<event>
 5    1  0.2799021E+000  0.9159898E+02  0.7818608E-02  0.1299025E+00
          2   -1    0    0  501    0  0.00000000000E+00  0.00000000000E+00  0.90058837597E+02  0.90058837634E+02  0.26000000000E-02 0. -1.
         -2   -1    0    0    0  501 -0.00000000000E+00 -0.00000000000E+00 -0.23291362689E+02  0.23291362834E+02  0.26000000000E-02 0.  1.
         23    2    1    2    0    0  0.00000000000E+00  0.00000000000E+00  0.66767474908E+02  0.11335020047E+03  0.91598975107E+02 0.  0.
        -11    1    3    3    0    0 -0.31800049759E+02  0.14576095190E+01 -0.73628686158E+01  0.32673837007E+02  0.51100000000E-03 0.  1.
         11    1    3    3    0    0  0.31800049759E+02 -0.14576095190E+01  0.74130343523E+02  0.80676363462E+02  0.51100000000E-03 0. -1.
<mgrwt>
<rscale>  0 0.91598975E+02</rscale>
<asrwt>0</asrwt>
<pdfrwt beam="1">  1        2 0.13855206E-01 0.91598975E+02</pdfrwt>
<pdfrwt beam="2">  1       -2 0.35832865E-02 0.91598975E+02</pdfrwt>
<totfact> 0.11737080E+05</totfact>
</mgrwt>
</event>
<event>
 5    1  0.2799021E+000  0.8654172E+02  0.7818608E-02  0.1311449E+00
         -2   -1    0    0    0  501 -0.00000000000E+00  0.00000000000E+00  0.66860127159E+02  0.66860127209E+02  0.26000000000E-02 0.  1.
          2   -1    0    0  501    0  0.00000000000E+00 -0.00000000000E+00 -0.28004246218E+02  0.28004246338E+02  0.26000000000E-02 0. -1.
         23    2    1    2    0    0  0.00000000000E+00  0.00000000000E+00  0.38855880941E+02  0.94864373547E+02  0.86541723376E+02 0.  0.
        -11    1    3    3    0    0  0.19998540681E+02  0.38024327039E+02  0.25078944762E+02  0.49746804388E+02  0.51100000000E-03 0. -1.
         11    1    3    3    0    0 -0.19998540681E+02 -0.38024327039E+02  0.13776936179E+02  0.45117569160E+02  0.51100000000E-03 0.  1.
<mgrwt>
<rscale>  0 0.86541723E+02</rscale>
<asrwt>0</asrwt>
<pdfrwt beam="2">  1        2 0.43083456E-02 0.86541723E+02</pdfrwt>
<pdfrwt beam="1">  1       -2 0.10286173E-01 0.86541723E+02</pdfrwt>
<totfact> 0.10137244E+05</totfact>
</mgrwt>
</event>
<event>
 5    1  0.2799021E+000  0.7952352E+02  0.7818608E-02  0.1330409E+00
          2   -1    0    0  501    0  0.00000000000E+00  0.00000000000E+00  0.82970148631E+02  0.82970148671E+02  0.26000000000E-02 0.  1.
         -2   -1    0    0    0  501 -0.00000000000E+00 -0.00000000000E+00 -0.19055014666E+02  0.19055014843E+02  0.26000000000E-02 0. -1.
         23    2    1    2    0    0  0.00000000000E+00  0.00000000000E+00  0.63915133965E+02  0.10202516351E+03  0.79523516273E+02 0.  0.
        -11    1    3    3    0    0  0.11878136621E+02  0.37715323130E+02  0.26596456527E+02  0.47654036854E+02  0.51100000000E-03 0.  1.
         11    1    3    3    0    0 -0.11878136621E+02 -0.37715323130E+02  0.37318677437E+02  0.54371126661E+02  0.51100000000E-03 0. -1.
<mgrwt>
<rscale>  0 0.79523516E+02</rscale>
<asrwt>0</asrwt>
<pdfrwt beam="1">  1        2 0.12764639E-01 0.79523516E+02</pdfrwt>
<pdfrwt beam="2">  1       -2 0.29315407E-02 0.79523516E+02</pdfrwt>
<totfact> 0.16891820E+05</totfact>
</mgrwt>
</event>
<event>
 5    1  0.2799021E+000  0.9140269E+02  0.7818608E-02  0.1299490E+00
          2   -1    0    0  501    0  0.00000000000E+00  0.00000000000E+00  0.77296424599E+02  0.77296424643E+02  0.26000000000E-02 0. -1.
         -2   -1    0    0    0  501 -0.00000000000E+00 -0.00000000000E+00 -0.27020821673E+02  0.27020821798E+02  0.26000000000E-02 0.  1.
         23    2    1    2    0    0  0.00000000000E+00  0.00000000000E+00  0.50275602926E+02  0.10431724644E+03  0.91402689542E+02 0.  0.
        -11    1    3    3    0    0 -0.41905654304E+02  0.17658324165E+02  0.19943647073E+02  0.49655305193E+02  0.51100000000E-03 0.  1.
         11    1    3    3    0    0  0.41905654304E+02 -0.17658324165E+02  0.30331955853E+02  0.54661941249E+02  0.51100000000E-03 0. -1.
<mgrwt>
<rscale>  0 0.91402690E+02</rscale>
<asrwt>0</asrwt>
<pdfrwt beam="1">  1        2 0.11891758E-01 0.91402690E+02</pdfrwt>
<pdfrwt beam="2">  1       -2 0.41570495E-02 0.91402690E+02</pdfrwt>
<totfact> 0.11295523E+05</totfact>
</mgrwt>
</event>
<event>
 5    1  0.2799021E+000  0.9106318E+02  0.7818608E-02  0.1300297E+00
         -2   -1    0    0    0  501 -0.00000000000E+00  0.00000000000E+00  0.72311234237E+01  0.72311238911E+01  0.26000000000E-02 0.  1.
          2   -1    0    0  501    0  0.00000000000E+00 -0.00000000000E+00 -0.28669484482E+03  0.28669484484E+03  0.26000000000E-02 0. -1.
         23    2    1    2    0    0  0.00000000000E+00  0.00000000000E+00 -0.27946372140E+03  0.29392596873E+03  0.91063184181E+02 0.  0.
        -11    1    3    3    0    0  0.23471334411E+02  0.35838631479E+02 -0.89956479426E+02  0.99636736379E+02  0.51100000000E-03 0.  1.
         11    1    3    3    0    0 -0.23471334411E+02 -0.35838631479E+02 -0.18950724197E+03  0.19428923235E+03  0.51100000000E-03 0. -1.
<mgrwt>
<rscale>  0 0.91063184E+02</rscale>
<asrwt>0</asrwt>
<pdfrwt beam="2">  1        2 0.44106890E-01 0.91063184E+02</pdfrwt>
<pdfrwt beam="1">  1       -2 0.11124808E-02 0.91063184E+02</pdfrwt>
<totfact> 0.17723743E+05</totfact>
</mgrwt>
</event>
<event>
 5    1  0.2799021E+000  0.8785464E+02  0.7818608E-02  0.1308132E+00
          2   -1    0    0  501    0  0.00000000000E+00  0.00000000000E+00  0.25922512136E+03  0.25922512137E+03  0.26000000000E-02 0. -1.
         -2   -1    0    0    0  501 -0.00000000000E+00 -0.00000000000E+00 -0.74437590062E+01  0.74437594603E+01  0.26000000000E-02 0.  1.
         23    2    1    2    0    0  0.00000000000E+00  0.00000000000E+00  0.25178136236E+03  0.26666888083E+03  0.87854638900E+02 0.  0.
        -11    1    3    3    0    0  0.23656035238E+02 -0.31885149217E+02  0.18294692967E+03  0.18720536803E+03  0.51100000000E-03 0. -1.
         11    1    3    3    0    0 -0.23656035238E+02  0.31885149217E+02  0.68834432684E+02  0.79463512803E+02  0.51100000000E-03 0.  1.
<mgrwt>
<rscale>  0 0.87854639E+02</rscale>
<asrwt>0</asrwt>
<pdfrwt beam="1">  1        2 0.39880792E-01 0.87854639E+02</pdfrwt>
<pdfrwt beam="2">  1       -2 0.11451936E-02 0.87854639E+02</pdfrwt>
<totfact> 0.18784853E+05</totfact>
</mgrwt>
</event>
<event>
 5    1  0.2799021E+000  0.9162424E+02  0.7818608E-02  0.1298965E+00
         -2   -1    0    0    0  501 -0.00000000000E+00  0.00000000000E+00  0.16996530544E+02  0.16996530743E+02  0.26000000000E-02 0.  1.
          2   -1    0    0  501    0  0.00000000000E+00 -0.00000000000E+00 -0.12348111217E+03  0.12348111220E+03  0.26000000000E-02 0. -1.
         23    2    1    2    0    0  0.00000000000E+00  0.00000000000E+00 -0.10648458162E+03  0.14047764294E+03  0.91624243746E+02 0.  0.
        -11    1    3    3    0    0 -0.27954982503E+02  0.76010497929E+01  0.11697198893E+01  0.28993538066E+02  0.51100000000E-03 0.  1.
         11    1    3    3    0    0  0.27954982503E+02 -0.76010497929E+01 -0.10765430151E+03  0.11148410487E+03  0.51100000000E-03 0. -1.
<mgrwt>
<rscale>  0 0.91624244E+02</rscale>
<asrwt>0</asrwt>
<pdfrwt beam="2">  1        2 0.18997094E-01 0.91624244E+02</pdfrwt>
<pdfrwt beam="1">  1       -2 0.26148509E-02 0.91624244E+02</pdfrwt>
<totfact> 0.12932226E+05</totfact>
</mgrwt>
</event>
<event>
 5    1  0.2799021E+000  0.8959300E+02  0.7818608E-02  0.1303840E+00
         -2   -1    0    0    0  501 -0.00000000000E+00  0.00000000000E+00  0.73884241889E+01  0.73884246464E+01  0.26000000000E-02 0. -1.
          2   -1    0    0  501    0  0.00000000000E+00 -0.00000000000E+00 -0.27160413373E+03  0.27160413375E+03  0.26000000000E-02 0.  1.
         23    2    1    2    0    0  0.00000000000E+00  0.00000000000E+00 -0.26421570954E+03  0.27899255839E+03  0.89593004572E+02 0.  0.
        -11    1    3    3    0    0  0.37748229489E+02  0.22849656709E+02 -0.10804911602E+03  0.11671181223E+03  0.51100000000E-03 0.  1.
         11    1    3    3    0    0 -0.37748229489E+02 -0.22849656709E+02 -0.15616659353E+03  0.16228074616E+03  0.51100000000E-03 0. -1.
<mgrwt>
<rscale>  0 0.89593005E+02</rscale>
<asrwt>0</asrwt>
<pdfrwt beam="2">  1        2 0.41785244E-01 0.89593005E+02</pdfrwt>
<pdfrwt beam="1">  1       -2 0.11366809E-02 0.89593005E+02</pdfrwt>
<totfact> 0.18140889E+05</totfact>
</mgrwt>
</event>
<event>
 5    1  0.2799021E+000  0.9004600E+02  0.7818608E-02  0.1302740E+00
          2   -1    0    0  501    0  0.00000000000E+00  0.00000000000E+00  0.15650552099E+02  0.15650552315E+02  0.26000000000E-02 0. -1.
         -2   -1    0    0    0  501 -0.00000000000E+00 -0.00000000000E+00 -0.12952070730E+03  0.12952070733E+03  0.26000000000E-02 0.  1.
         23    2    1    2    0    0  0.00000000000E+00  0.00000000000E+00 -0.11387015520E+03  0.14517125964E+03  0.90046001466E+02 0.  0.
        -11    1    3    3    0    0  0.17970127490E+02  0.29908005061E+02 -0.10280907385E+03  0.10856850333E+03  0.51100000000E-03 0.  1.
         11    1    3    3    0    0 -0.17970127490E+02 -0.29908005061E+02 -0.11061081351E+02  0.36602756313E+02  0.51100000000E-03 0. -1.
<mgrwt>
<rscale>  0 0.90046001E+02</rscale>
<asrwt>0</asrwt>
<pdfrwt beam="1">  1        2 0.24077773E-02 0.90046001E+02</pdfrwt>
<pdfrwt beam="2">  1       -2 0.19926262E-01 0.90046001E+02</pdfrwt>
<totfact> 0.75884874E+04</totfact>
</mgrwt>
</event>
<event>
 5    1  0.2799021E+000  0.9277877E+02  0.7818608E-02  0.1296259E+00
          2   -1    0    0  501    0  0.00000000000E+00  0.00000000000E+00  0.49182286369E+02  0.49182286437E+02  0.26000000000E-02 0. -1.
         -2   -1    0    0    0  501 -0.00000000000E+00 -0.00000000000E+00 -0.43755082532E+02  0.43755082609E+02  0.26000000000E-02 0.  1.
         23    2    1    2    0    0  0.00000000000E+00  0.00000000000E+00  0.54272038372E+01  0.92937369046E+02  0.92778769251E+02 0.  0.
        -11    1    3    3    0    0 -0.46611935453E+01  0.40317182754E+02 -0.19791959379E+02  0.45154441718E+02  0.51100000000E-03 0.  1.
         11    1    3    3    0    0  0.46611935453E+01 -0.40317182754E+02  0.25219163216E+02  0.47782927329E+02  0.51100000000E-03 0. -1.
<mgrwt>
<rscale>  0 0.92778769E+02</rscale>
<asrwt>0</asrwt>
<pdfrwt beam="1">  1        2 0.75665056E-02 0.92778769E+02</pdfrwt>
<pdfrwt beam="2">  1       -2 0.67315512E-02 0.92778769E+02</pdfrwt>
<totfact> 0.95747286E+04</totfact>
</mgrwt>
</event>
<event>
 5    1  0.2799021E+000  0.9132779E+02  0.7818608E-02  0.1299668E+00
         -2   -1    0    0    0  501 -0.00000000000E+00  0.00000000000E+00  0.62993230410E+01  0.62993235776E+01  0.26000000000E-02 0.  1.
          2   -1    0    0  501    0  0.00000000000E+00 -0.00000000000E+00 -0.33101832168E+03  0.33101832169E+03  0.26000000000E-02 0. -1.
         23    2    1    2    0    0  0.00000000000E+00  0.00000000000E+00 -0.32471899864E+03  0.33731764527E+03  0.91327792768E+02 0.  0.
        -11    1    3    3    0    0  0.28769775781E+01  0.44722290972E+02 -0.12998487864E+03  0.13749337797E+03  0.51100000000E-03 0.  1.
         11    1    3    3    0    0 -0.28769775781E+01 -0.44722290972E+02 -0.19473411999E+03  0.19982426729E+03  0.51100000000E-03 0. -1.
<mgrwt>
<rscale>  0 0.91327793E+02</rscale>
<asrwt>0</asrwt>
<pdfrwt beam="2">  1        2 0.50925882E-01 0.91327793E+02</pdfrwt>
<pdfrwt beam="1">  1       -2 0.96912692E-03 0.91327793E+02</pdfrwt>
<totfact> 0.18551856E+05</totfact>
</mgrwt>
</event>
<event>
 5    1  0.2799021E+000  0.9002315E+02  0.7818608E-02  0.1302796E+00
          2   -1    0    0  501    0  0.00000000000E+00  0.00000000000E+00  0.16419879482E+03  0.16419879484E+03  0.26000000000E-02 0.  1.
         -2   -1    0    0    0  501 -0.00000000000E+00 -0.00000000000E+00 -0.12338956513E+02  0.12338956787E+02  0.26000000000E-02 0. -1.
         23    2    1    2    0    0  0.00000000000E+00  0.00000000000E+00  0.15185983831E+03  0.17653775163E+03  0.90023148464E+02 0.  0.
        -11    1    3    3    0    0  0.24764726214E+02 -0.15962564550E+02  0.91989127345E+01  0.30866083769E+02  0.51100000000E-03 0.  1.
         11    1    3    3    0    0 -0.24764726214E+02  0.15962564550E+02  0.14266092557E+03  0.14567166786E+03  0.51100000000E-03 0. -1.
<mgrwt>
<rscale>  0 0.90023148E+02</rscale>
<asrwt>0</asrwt>
<pdfrwt beam="1">  1        2 0.25261353E-01 0.90023148E+02</pdfrwt>
<pdfrwt beam="2">  1       -2 0.18983010E-02 0.90023148E+02</pdfrwt>
<totfact> 0.14927359E+05</totfact>
</mgrwt>
</event>
<event>
 5    1  0.2799021E+000  0.9127091E+02  0.7818608E-02  0.1299803E+00
         -2   -1    0    0    0  501 -0.00000000000E+00  0.00000000000E+00  0.29954062660E+03  0.29954062661E+03  0.26000000000E-02 0.  1.
          2   -1    0    0  501    0  0.00000000000E+00 -0.00000000000E+00 -0.69526291179E+01  0.69526296041E+01  0.26000000000E-02 0. -1.
         23    2    1    2    0    0  0.00000000000E+00  0.00000000000E+00  0.29258799748E+03  0.30649325621E+03  0.91270914507E+02 0.  0.
        -11    1    3    3    0    0  0.30097090021E+02 -0.29222607033E+02  0.85961007232E+02  0.95650877435E+02  0.51100000000E-03 0. -1.
         11    1    3    3    0    0 -0.30097090021E+02  0.29222607033E+02  0.20662699025E+03  0.21084237878E+03  0.51100000000E-03 0.  1.
<mgrwt>
<rscale>  0 0.91270915E+02</rscale>
<asrwt>0</asrwt>
<pdfrwt beam="2">  1        2 0.10696352E-02 0.91270915E+02</pdfrwt>
<pdfrwt beam="1">  1       -2 0.46083176E-01 0.91270915E+02</pdfrwt>
<totfact> 0.50909767E+04</totfact>
</mgrwt>
</event>
<event>
 5    1  0.2799021E+000  0.9270744E+02  0.7818608E-02  0.1296425E+00
          2   -1    0    0  501    0  0.00000000000E+00  0.00000000000E+00  0.48574574922E+02  0.48574574992E+02  0.26000000000E-02 0. -1.
         -2   -1    0    0    0  501 -0.00000000000E+00 -0.00000000000E+00 -0.44234405676E+02  0.44234405753E+02  0.26000000000E-02 0.  1.
         23    2    1    2    0    0  0.00000000000E+00  0.00000000000E+00  0.43401692460E+01  0.92808980745E+02  0.92707442192E+02 0.  0.
        -11    1    3    3    0    0 -0.36241783085E+01  0.42772865342E+02 -0.15342353201E+02  0.45585529282E+02  0.51100000000E-03 0.  1.
         11    1    3    3    0    0  0.36241783085E+01 -0.42772865342E+02  0.19682522447E+02  0.47223451463E+02  0.51100000000E-03 0. -1.
<mgrwt>
<rscale>  0 0.92707442E+02</rscale>
<asrwt>0</asrwt>
<pdfrwt beam="1">  1        2 0.74730116E-02 0.92707442E+02</pdfrwt>
<pdfrwt beam="2">  1       -2 0.68052932E-02 0.92707442E+02</pdfrwt>
<totfact> 0.95644159E+04</totfact>
</mgrwt>
</event>
<event>
 5    1  0.2799021E+000  0.9007262E+02  0.7818608E-02  0.1302676E+00
         -2   -1    0    0    0  501 -0.00000000000E+00  0.00000000000E+00  0.48070469651E+02  0.48070469722E+02  0.26000000000E-02 0.  1.
          2   -1    0    0  501    0  0.00000000000E+00 -0.00000000000E+00 -0.42193661362E+02  0.42193661442E+02  0.26000000000E-02 0. -1.
         23    2    1    2    0    0  0.00000000000E+00  0.00000000000E+00  0.58768082895E+01  0.90264131163E+02  0.90072617920E+02 0.  0.
        -11    1    3    3    0    0 -0.32919673821E+02  0.14943757102E+02 -0.23974764270E+02  0.43379835441E+02  0.51100000000E-03 0. -1.
         11    1    3    3    0    0  0.32919673821E+02 -0.14943757102E+02  0.29851572560E+02  0.46884295722E+02  0.51100000000E-03 0.  1.
<mgrwt>
<rscale>  0 0.90072618E+02</rscale>
<asrwt>0</asrwt>
<pdfrwt beam="2">  1        2 0.64913325E-02 0.90072618E+02</pdfrwt>
<pdfrwt beam="1">  1       -2 0.73954569E-02 0.90072618E+02</pdfrwt>
<totfact> 0.10016927E+05</totfact>
</mgrwt>
</event>
<event>
 5    1  0.2799021E+000  0.9241926E+02  0.7818608E-02  0.1297097E+00
         -2   -1    0    0    0  501 -0.00000000000E+00  0.00000000000E+00  0.25765436728E+02  0.25765436860E+02  0.26000000000E-02 0. -1.
          2   -1    0    0  501    0  0.00000000000E+00 -0.00000000000E+00 -0.82875743142E+02  0.82875743183E+02  0.26000000000E-02 0.  1.
         23    2    1    2    0    0  0.00000000000E+00  0.00000000000E+00 -0.57110306414E+02  0.10864118004E+03  0.92419256123E+02 0.  0.
        -11    1    3    3    0    0  0.31215487618E+02 -0.19038759888E+02  0.46614722294E+01  0.36859332182E+02  0.51100000000E-03 0. -1.
         11    1    3    3    0    0 -0.31215487618E+02  0.19038759888E+02 -0.61771778643E+02  0.71781847861E+02  0.51100000000E-03 0.  1.
<mgrwt>
<rscale>  0 0.92419256E+02</rscale>
<asrwt>0</asrwt>
<pdfrwt beam="2">  1        2 0.12750114E-01 0.92419256E+02</pdfrwt>
<pdfrwt beam="1">  1       -2 0.39639134E-02 0.92419256E+02</pdfrwt>
<totfact> 0.11174227E+05</totfact>
</mgrwt>
</event>
<event>
 5    1  0.2799021E+000  0.8475500E+02  0.7818608E-02  0.1316074E+00
         -2   -1    0    0    0  501 -0.00000000000E+00  0.00000000000E+00  0.11824254455E+03  0.11824254458E+03  0.26000000000E-02 0. -1.
          2   -1    0    0  501    0  0.00000000000E+00 -0.00000000000E+00 -0.15187871382E+02  0.15187871604E+02  0.26000000000E-02 0.  1.
         23    2    1    2    0    0  0.00000000000E+00  0.00000000000E+00  0.10305467317E+03  0.13343041618E+03  0.84755001628E+02 0.  0.
        -11    1    3    3    0    0 -0.22352402036E+02 -0.35995408512E+02  0.50356339548E+02  0.65810791241E+02  0.51100000000E-03 0.  1.
         11    1    3    3    0    0  0.22352402036E+02  0.35995408512E+02  0.52698333619E+02  0.67619624942E+02  0.51100000000E-03 0. -1.
<mgrwt>
<rscale>  0 0.84755002E+02</rscale>
<asrwt>0</asrwt>
<pdfrwt beam="2">  1        2 0.23365956E-02 0.84755002E+02</pdfrwt>
<pdfrwt beam="1">  1       -2 0.18191161E-01 0.84755002E+02</pdfrwt>
<totfact> 0.90997368E+04</totfact>
</mgrwt>
</event>
<event>
 5    1  0.2799021E+000  0.9306928E+02  0.7818608E-02  0.1295585E+00
          2   -1    0    0  501    0  0.00000000000E+00  0.00000000000E+00  0.14791705460E+03  0.14791705463E+03  0.26000000000E-02 0. -1.
         -2   -1    0    0    0  501 -0.00000000000E+00 -0.00000000000E+00 -0.14639778414E+02  0.14639778645E+02  0.26000000000E-02 0.  1.
         23    2    1    2    0    0  0.00000000000E+00  0.00000000000E+00  0.13327727619E+03  0.16255683327E+03  0.93069284379E+02 0.  0.
        -11    1    3    3    0    0  0.91525259608E+01 -0.45590148275E+02  0.63493471268E+02  0.78699753780E+02  0.51100000000E-03 0.  1.
         11    1    3    3    0    0 -0.91525259608E+01  0.45590148275E+02  0.69783804923E+02  0.83857079492E+02  0.51100000000E-03 0. -1.
<mgrwt>
<rscale>  0 0.93069284E+02</rscale>
<asrwt>0</asrwt>
<pdfrwt beam="1">  1        2 0.22756470E-01 0.93069284E+02</pdfrwt>
<pdfrwt beam="2">  1       -2 0.22522736E-02 0.93069284E+02</pdfrwt>
<totfact> 0.13158209E+05</totfact>
</mgrwt>
</event>
<event>
 5    1  0.2799021E+000  0.9320714E+02  0.7818608E-02  0.1295266E+00
         -2   -1    0    0    0  501 -0.00000000000E+00  0.00000000000E+00  0.82480551375E+02  0.82480551416E+02  0.26000000000E-02 0.  1.
          2   -1    0    0  501    0  0.00000000000E+00 -0.00000000000E+00 -0.26332178534E+02  0.26332178662E+02  0.26000000000E-02 0. -1.
         23    2    1    2    0    0  0.00000000000E+00  0.00000000000E+00  0.56148372842E+02  0.10881273008E+03  0.93207137357E+02 0.  0.
        -11    1    3    3    0    0  0.36939510904E+02 -0.23141091103E+02  0.47322790489E+02  0.64338822364E+02  0.51100000000E-03 0.  1.
         11    1    3    3    0    0 -0.36939510904E+02  0.23141091103E+02  0.88255823532E+01  0.44473907714E+02  0.51100000000E-03 0. -1.
<mgrwt>
<rscale>  0 0.93207137E+02</rscale>
<asrwt>0</asrwt>
<pdfrwt beam="2">  1        2 0.40511043E-02 0.93207137E+02</pdfrwt>
<pdfrwt beam="1">  1       -2 0.12689316E-01 0.93207137E+02</pdfrwt>
<totfact> 0.79907136E+04</totfact>
</mgrwt>
</event>
<event>
 5    1  0.2799021E+000  0.9032488E+02  0.7818608E-02  0.1302067E+00
          2   -1    0    0  501    0  0.00000000000E+00  0.00000000000E+00  0.26150089331E+02  0.26150089460E+02  0.26000000000E-02 0. -1.
         -2   -1    0    0    0  501 -0.00000000000E+00 -0.00000000000E+00 -0.77997669545E+02  0.77997669589E+02  0.26000000000E-02 0.  1.
         23    2    1    2    0    0  0.00000000000E+00  0.00000000000E+00 -0.51847580215E+02  0.10414775905E+03  0.90324881073E+02 0.  0.
        -11    1    3    3    0    0  0.17021128900E+02 -0.31722251356E+02  0.55189080688E+01  0.36420851262E+02  0.51100000000E-03 0.  1.
         11    1    3    3    0    0 -0.17021128900E+02  0.31722251356E+02 -0.57366488283E+02  0.67726907787E+02  0.51100000000E-03 0. -1.
<mgrwt>
<rscale>  0 0.90324881E+02</rscale>
<asrwt>0</asrwt>
<pdfrwt beam="1">  1        2 0.40230907E-02 0.90324881E+02</pdfrwt>
<pdfrwt beam="2">  1       -2 0.11999641E-01 0.90324881E+02</pdfrwt>
<totfact> 0.87669063E+04</totfact>
</mgrwt>
</event>
<event>
 5    1  0.2799021E+000  0.9056874E+02  0.7818608E-02  0.1301480E+00
          2   -1    0    0  501    0  0.00000000000E+00  0.00000000000E+00  0.16795492364E+03  0.16795492366E+03  0.26000000000E-02 0.  1.
         -2   -1    0    0    0  501 -0.00000000000E+00 -0.00000000000E+00 -0.12209668669E+02  0.12209668945E+02  0.26000000000E-02 0. -1.
         23    2    1    2    0    0  0.00000000000E+00  0.00000000000E+00  0.15574525497E+03  0.18016459260E+03  0.90568736230E+02 0.  0.
        -11    1    3    3    0    0 -0.19444413672E+02  0.40378377684E+02  0.90791382989E+02  0.10125005596E+03  0.51100000000E-03 0.  1.
         11    1    3    3    0    0  0.19444413672E+02 -0.40378377684E+02  0.64953871978E+02  0.78914536637E+02  0.51100000000E-03 0. -1.
<mgrwt>
<rscale>  0 0.90568736E+02</rscale>
<asrwt>0</asrwt>
<pdfrwt beam="1">  1        2 0.25839217E-01 0.90568736E+02</pdfrwt>
<pdfrwt beam="2">  1       -2 0.18784108E-02 0.90568736E+02</pdfrwt>
<totfact> 0.14801561E+05</totfact>
</mgrwt>
</event>
<event>
 5    1  0.2799021E+000  0.9203843E+02  0.7818608E-02  0.1297989E+00
          2   -1    0    0  501    0  0.00000000000E+00  0.00000000000E+00  0.10559527919E+03  0.10559527922E+03  0.26000000000E-02 0. -1.
         -2   -1    0    0    0  501 -0.00000000000E+00 -0.00000000000E+00 -0.20055520518E+02  0.20055520687E+02  0.26000000000E-02 0.  1.
         23    2    1    2    0    0  0.00000000000E+00  0.00000000000E+00  0.85539758671E+02  0.12565079991E+03  0.92038433298E+02 0.  0.
        -11    1    3    3    0    0 -0.23369138054E+02 -0.20499162613E+02 -0.35551759024E+01  0.31288521173E+02  0.51100000000E-03 0.  1.
         11    1    3    3    0    0  0.23369138054E+02  0.20499162613E+02  0.89094934573E+02  0.94362278735E+02  0.51100000000E-03 0. -1.
<mgrwt>
<rscale>  0 0.92038433E+02</rscale>
<asrwt>0</asrwt>
<pdfrwt beam="1">  1        2 0.16245428E-01 0.92038433E+02</pdfrwt>
<pdfrwt beam="2">  1       -2 0.30854647E-02 0.92038433E+02</pdfrwt>
<totfact> 0.12155593E+05</totfact>
</mgrwt>
</event>
<event>
 5    1  0.2799021E+000  0.9142164E+02  0.7818608E-02  0.1299445E+00
          2   -1    0    0  501    0  0.00000000000E+00  0.00000000000E+00  0.62184339185E+02  0.62184339240E+02  0.26000000000E-02 0.  1.
         -2   -1    0    0    0  501 -0.00000000000E+00 -0.00000000000E+00 -0.33601371399E+02  0.33601371500E+02  0.26000000000E-02 0. -1.
         23    2    1    2    0    0  0.00000000000E+00  0.00000000000E+00  0.28582967786E+02  0.95785710740E+02  0.91421640406E+02 0.  0.
        -11    1    3    3    0    0  0.34808207220E+02 -0.57742259441E+01  0.44739447824E+02  0.56978690464E+02  0.51100000000E-03 0.  1.
         11    1    3    3    0    0 -0.34808207220E+02  0.57742259441E+01 -0.16156480038E+02  0.38807020275E+02  0.51100000000E-03 0. -1.
<mgrwt>
<rscale>  0 0.91421640E+02</rscale>
<asrwt>0</asrwt>
<pdfrwt beam="1">  1        2 0.95668213E-02 0.91421640E+02</pdfrwt>
<pdfrwt beam="2">  1       -2 0.51694418E-02 0.91421640E+02</pdfrwt>
<totfact> 0.10628901E+05</totfact>
</mgrwt>
</event>
<event>
 5    1  0.2799021E+000  0.9001105E+02  0.7818608E-02  0.1302825E+00
         -2   -1    0    0    0  501 -0.00000000000E+00  0.00000000000E+00  0.84319951865E+01  0.84319955873E+01  0.26000000000E-02 0.  1.
          2   -1    0    0  501    0  0.00000000000E+00 -0.00000000000E+00 -0.24021565736E+03  0.24021565738E+03  0.26000000000E-02 0. -1.
         23    2    1    2    0    0  0.00000000000E+00  0.00000000000E+00 -0.23178366218E+03  0.24864765296E+03  0.90011050837E+02 0.  0.
        -11    1    3    3    0    0 -0.37828954869E+02  0.80179790880E+01 -0.17949811143E+03  0.18361614804E+03  0.51100000000E-03 0. -1.
         11    1    3    3    0    0  0.37828954869E+02 -0.80179790880E+01 -0.52285550746E+02  0.65031504920E+02  0.51100000000E-03 0.  1.
<mgrwt>
<rscale>  0 0.90011051E+02</rscale>
<asrwt>0</asrwt>
<pdfrwt beam="2">  1        2 0.36956250E-01 0.90011051E+02</pdfrwt>
<pdfrwt beam="1">  1       -2 0.12972302E-02 0.90011051E+02</pdfrwt>
<totfact> 0.17119874E+05</totfact>
</mgrwt>
</event>
<event>
 5    1  0.2799021E+000  0.9180033E+02  0.7818608E-02  0.1298550E+00
          2   -1    0    0  501    0  0.00000000000E+00  0.00000000000E+00  0.12508520243E+03  0.12508520245E+03  0.26000000000E-02 0. -1.
         -2   -1    0    0    0  501 -0.00000000000E+00 -0.00000000000E+00 -0.16843121392E+02  0.16843121592E+02  0.26000000000E-02 0.  1.
         23    2    1    2    0    0  0.00000000000E+00  0.00000000000E+00  0.10824208103E+03  0.14192832404E+03  0.91800332568E+02 0.  0.
        -11    1    3    3    0    0  0.35597846900E+02 -0.11681148765E+01  0.93587135868E+01  0.36826033136E+02  0.51100000000E-03 0.  1.
         11    1    3    3    0    0 -0.35597846900E+02  0.11681148765E+01  0.98883367447E+02  0.10510229091E+03  0.51100000000E-03 0. -1.
<mgrwt>
<rscale>  0 0.91800333E+02</rscale>
<asrwt>0</asrwt>
<pdfrwt beam="1">  1        2 0.19243878E-01 0.91800333E+02</pdfrwt>
<pdfrwt beam="2">  1       -2 0.25912493E-02 0.91800333E+02</pdfrwt>
<totfact> 0.12918514E+05</totfact>
</mgrwt>
</event>
<event>
 5    1  0.2799021E+000  0.8877755E+02  0.7818608E-02  0.1305839E+00
         -2   -1    0    0    0  501 -0.00000000000E+00  0.00000000000E+00  0.73861936472E+01  0.73861941048E+01  0.26000000000E-02 0.  1.
          2   -1    0    0  501    0  0.00000000000E+00 -0.00000000000E+00 -0.26676303224E+03  0.26676303225E+03  0.26000000000E-02 0. -1.
         23    2    1    2    0    0  0.00000000000E+00  0.00000000000E+00 -0.25937683859E+03  0.27414922636E+03  0.88777552985E+02 0.  0.
        -11    1    3    3    0    0 -0.17313787246E+02 -0.40868726431E+02 -0.13149815524E+03  0.13878683245E+03  0.51100000000E-03 0.  1.
         11    1    3    3    0    0  0.17313787246E+02  0.40868726431E+02 -0.12787868335E+03  0.13536239391E+03  0.51100000000E-03 0. -1.
<mgrwt>
<rscale>  0 0.88777553E+02</rscale>
<asrwt>0</asrwt>
<pdfrwt beam="2">  1        2 0.41040459E-01 0.88777553E+02</pdfrwt>
<pdfrwt beam="1">  1       -2 0.11363377E-02 0.88777553E+02</pdfrwt>
<totfact> 0.18464524E+05</totfact>
</mgrwt>
</event>
<event>
 5    1  0.2799021E+000  0.9411322E+02  0.7818608E-02  0.1293186E+00
          2   -1    0    0  501    0  0.00000000000E+00  0.00000000000E+00  0.47771884533E+02  0.47771884604E+02  0.26000000000E-02 0. -1.
         -2   -1    0    0    0  501 -0.00000000000E+00 -0.00000000000E+00 -0.46352042908E+02  0.46352042981E+02  0.26000000000E-02 0.  1.
         23    2    1    2    0    0  0.00000000000E+00  0.00000000000E+00  0.14198416248E+01  0.94123927585E+02  0.94113217955E+02 0.  0.
        -11    1    3    3    0    0  0.27613070377E+02  0.18702271398E+02 -0.32491263977E+02  0.46561130207E+02  0.51100000000E-03 0.  1.
         11    1    3    3    0    0 -0.27613070377E+02 -0.18702271398E+02  0.33911105602E+02  0.47562797378E+02  0.51100000000E-03 0. -1.
<mgrwt>
<rscale>  0 0.94113218E+02</rscale>
<asrwt>0</asrwt>
<pdfrwt beam="1">  1        2 0.73495207E-02 0.94113218E+02</pdfrwt>
<pdfrwt beam="2">  1       -2 0.71310836E-02 0.94113218E+02</pdfrwt>
<totfact> 0.91189505E+04</totfact>
</mgrwt>
</event>
<event>
 5    1  0.2799021E+000  0.7058680E+02  0.7818608E-02  0.1358109E+00
          2   -1    0    0  501    0  0.00000000000E+00  0.00000000000E+00  0.28646972982E+02  0.28646973100E+02  0.26000000000E-02 0. -1.
         -2   -1    0    0    0  501 -0.00000000000E+00 -0.00000000000E+00 -0.43481878933E+02  0.43481879011E+02  0.26000000000E-02 0.  1.
         23    2    1    2    0    0  0.00000000000E+00  0.00000000000E+00 -0.14834905952E+02  0.72128852111E+02  0.70586803811E+02 0.  0.
        -11    1    3    3    0    0  0.24696663357E+02  0.16569170740E+02  0.12001968969E+02  0.32070389137E+02  0.51100000000E-03 0. -1.
         11    1    3    3    0    0 -0.24696663357E+02 -0.16569170740E+02 -0.26836874921E+02  0.40058462973E+02  0.51100000000E-03 0.  1.
<mgrwt>
<rscale>  0 0.70586804E+02</rscale>
<asrwt>0</asrwt>
<pdfrwt beam="1">  1        2 0.44072266E-02 0.70586804E+02</pdfrwt>
<pdfrwt beam="2">  1       -2 0.66895199E-02 0.70586804E+02</pdfrwt>
<totfact> 0.18302108E+05</totfact>
</mgrwt>
</event>
<event>
 5    1  0.2799021E+000  0.9090400E+02  0.7818608E-02  0.1300677E+00
          2   -1    0    0  501    0  0.00000000000E+00  0.00000000000E+00  0.16509219178E+03  0.16509219180E+03  0.26000000000E-02 0. -1.
         -2   -1    0    0    0  501 -0.00000000000E+00 -0.00000000000E+00 -0.12513519979E+02  0.12513520249E+02  0.26000000000E-02 0.  1.
         23    2    1    2    0    0  0.00000000000E+00  0.00000000000E+00  0.15257867180E+03  0.17760571205E+03  0.90904003565E+02 0.  0.
        -11    1    3    3    0    0 -0.22919812289E+02 -0.16925063094E+02  0.14547905144E+03  0.14824280746E+03  0.51100000000E-03 0. -1.
         11    1    3    3    0    0  0.22919812289E+02  0.16925063094E+02  0.70996203561E+01  0.29362904583E+02  0.51100000000E-03 0.  1.
<mgrwt>
<rscale>  0 0.90904004E+02</rscale>
<asrwt>0</asrwt>
<pdfrwt beam="1">  1        2 0.25398798E-01 0.90904004E+02</pdfrwt>
<pdfrwt beam="2">  1       -2 0.19251570E-02 0.90904004E+02</pdfrwt>
<totfact> 0.14567199E+05</totfact>
</mgrwt>
</event>
<event>
 5    1  0.2799021E+000  0.9521248E+02  0.7818608E-02  0.1290698E+00
         -2   -1    0    0    0  501 -0.00000000000E+00  0.00000000000E+00  0.95480105049E+01  0.95480108589E+01  0.26000000000E-02 0.  1.
          2   -1    0    0  501    0  0.00000000000E+00 -0.00000000000E+00 -0.23736399274E+03  0.23736399275E+03  0.26000000000E-02 0. -1.
         23    2    1    2    0    0  0.00000000000E+00  0.00000000000E+00 -0.22781598224E+03  0.24691200361E+03  0.95212476948E+02 0.  0.
        -11    1    3    3    0    0  0.36943593331E+02  0.22413870099E+02 -0.62098091443E+02  0.75653047673E+02  0.51100000000E-03 0.  1.
         11    1    3    3    0    0 -0.36943593331E+02 -0.22413870099E+02 -0.16571789079E+03  0.17125895594E+03  0.51100000000E-03 0. -1.
<mgrwt>
<rscale>  0 0.95212477E+02</rscale>
<asrwt>0</asrwt>
<pdfrwt beam="2">  1        2 0.36517533E-01 0.95212477E+02</pdfrwt>
<pdfrwt beam="1">  1       -2 0.14689249E-02 0.95212477E+02</pdfrwt>
<totfact> 0.14656621E+05</totfact>
</mgrwt>
</event>
<event>
 5    1  0.2799021E+000  0.9147740E+02  0.7818608E-02  0.1299313E+00
          2   -1    0    0  501    0  0.00000000000E+00  0.00000000000E+00  0.89148065483E+02  0.89148065521E+02  0.26000000000E-02 0. -1.
         -2   -1    0    0    0  501 -0.00000000000E+00 -0.00000000000E+00 -0.23466897654E+02  0.23466897798E+02  0.26000000000E-02 0.  1.
         23    2    1    2    0    0  0.00000000000E+00  0.00000000000E+00  0.65681167829E+02  0.11261496332E+03  0.91477396968E+02 0.  0.
        -11    1    3    3    0    0 -0.35537452031E+02  0.94284803874E+01  0.66334292477E+02  0.75842238218E+02  0.51100000000E-03 0. -1.
         11    1    3    3    0    0  0.35537452031E+02 -0.94284803874E+01 -0.65312464830E+00  0.36772725101E+02  0.51100000000E-03 0.  1.
<mgrwt>
<rscale>  0 0.91477397E+02</rscale>
<asrwt>0</asrwt>
<pdfrwt beam="1">  1        2 0.13715087E-01 0.91477397E+02</pdfrwt>
<pdfrwt beam="2">  1       -2 0.36102919E-02 0.91477397E+02</pdfrwt>
<totfact> 0.11744968E+05</totfact>
</mgrwt>
</event>
<event>
 5    1  0.2799021E+000  0.9076096E+02  0.7818608E-02  0.1301019E+00
          2   -1    0    0  501    0  0.00000000000E+00  0.00000000000E+00  0.73647444987E+02  0.73647445033E+02  0.26000000000E-02 0. -1.
         -2   -1    0    0    0  501 -0.00000000000E+00 -0.00000000000E+00 -0.27962790678E+02  0.27962790799E+02  0.26000000000E-02 0.  1.
         23    2    1    2    0    0  0.00000000000E+00  0.00000000000E+00  0.45684654309E+02  0.10161023583E+03  0.90760962900E+02 0.  0.
        -11    1    3    3    0    0 -0.10952272854E+02  0.27791807341E+02 -0.15403435942E+02  0.33609562256E+02  0.51100000000E-03 0.  1.
         11    1    3    3    0    0  0.10952272854E+02 -0.27791807341E+02  0.61088090251E+02  0.68000673576E+02  0.51100000000E-03 0. -1.
<mgrwt>
<rscale>  0 0.90760963E+02</rscale>
<asrwt>0</asrwt>
<pdfrwt beam="1">  1        2 0.11330376E-01 0.90760963E+02</pdfrwt>
<pdfrwt beam="2">  1       -2 0.43019678E-02 0.90760963E+02</pdfrwt>
<totfact> 0.11363611E+05</totfact>
</mgrwt>
</event>
<event>
 5    1  0.2799021E+000  0.8288494E+02  0.7818608E-02  0.1321058E+00
         -2   -1    0    0    0  501 -0.00000000000E+00  0.00000000000E+00  0.28508207611E+02  0.28508207730E+02  0.26000000000E-02 0.  1.
          2   -1    0    0  501    0  0.00000000000E+00 -0.00000000000E+00 -0.60245048493E+02  0.60245048549E+02  0.26000000000E-02 0. -1.
         23    2    1    2    0    0  0.00000000000E+00  0.00000000000E+00 -0.31736840881E+02  0.88753256279E+02  0.82884940918E+02 0.  0.
        -11    1    3    3    0    0  0.25706976435E+02 -0.30201646518E+02 -0.28739884888E+02  0.48979271876E+02  0.51100000000E-03 0. -1.
         11    1    3    3    0    0 -0.25706976435E+02  0.30201646518E+02 -0.29969559929E+01  0.39773984403E+02  0.51100000000E-03 0.  1.
<mgrwt>
<rscale>  0 0.82884941E+02</rscale>
<asrwt>0</asrwt>
<pdfrwt beam="2">  1        2 0.92684690E-02 0.82884941E+02</pdfrwt>
<pdfrwt beam="1">  1       -2 0.43858781E-02 0.82884941E+02</pdfrwt>
<totfact> 0.13860653E+05</totfact>
</mgrwt>
</event>
<event>
 5    1  0.2799021E+000  0.9699664E+02  0.7818608E-02  0.1286741E+00
          2   -1    0    0  501    0  0.00000000000E+00  0.00000000000E+00  0.16778867742E+02  0.16778867943E+02  0.26000000000E-02 0.  1.
         -2   -1    0    0    0  501 -0.00000000000E+00 -0.00000000000E+00 -0.14018152021E+03  0.14018152024E+03  0.26000000000E-02 0. -1.
         23    2    1    2    0    0  0.00000000000E+00  0.00000000000E+00 -0.12340265247E+03  0.15696038818E+03  0.96996643348E+02 0.  0.
        -11    1    3    3    0    0 -0.74936879045E+01  0.47809893263E+02 -0.66855745903E+02  0.82532611814E+02  0.51100000000E-03 0. -1.
         11    1    3    3    0    0  0.74936879045E+01 -0.47809893263E+02 -0.56546906568E+02  0.74427776367E+02  0.51100000000E-03 0.  1.
<mgrwt>
<rscale>  0 0.96996643E+02</rscale>
<asrwt>0</asrwt>
<pdfrwt beam="1">  1        2 0.25813644E-02 0.96996643E+02</pdfrwt>
<pdfrwt beam="2">  1       -2 0.21566387E-01 0.96996643E+02</pdfrwt>
<totfact> 0.61205959E+04</totfact>
</mgrwt>
</event>
<event>
 5    1  0.2799021E+000  0.8732673E+02  0.7818608E-02  0.1309458E+00
          2   -1    0    0  501    0  0.00000000000E+00  0.00000000000E+00  0.69419921326E+02  0.69419921375E+02  0.26000000000E-02 0.  1.
         -2   -1    0    0    0  501 -0.00000000000E+00 -0.00000000000E+00 -0.27463148498E+02  0.27463148621E+02  0.26000000000E-02 0. -1.
         23    2    1    2    0    0  0.00000000000E+00  0.00000000000E+00  0.41956772828E+02  0.96883069996E+02  0.87326733969E+02 0.  0.
        -11    1    3    3    0    0  0.18444482004E+02 -0.38214348323E+02  0.95585487385E+01  0.43495990486E+02  0.51100000000E-03 0.  1.
         11    1    3    3    0    0 -0.18444482004E+02  0.38214348323E+02  0.32398224089E+02  0.53387079509E+02  0.51100000000E-03 0. -1.
<mgrwt>
<rscale>  0 0.87326734E+02</rscale>
<asrwt>0</asrwt>
<pdfrwt beam="1">  1        2 0.10679988E-01 0.87326734E+02</pdfrwt>
<pdfrwt beam="2">  1       -2 0.42250998E-02 0.87326734E+02</pdfrwt>
<totfact> 0.12446342E+05</totfact>
</mgrwt>
</event>
<event>
 5    1  0.2799021E+000  0.9189108E+02  0.7818608E-02  0.1298336E+00
          2   -1    0    0  501    0  0.00000000000E+00  0.00000000000E+00  0.17952887104E+03  0.17952887106E+03  0.26000000000E-02 0.  1.
         -2   -1    0    0    0  501 -0.00000000000E+00 -0.00000000000E+00 -0.11758513361E+02  0.11758513648E+02  0.26000000000E-02 0. -1.
         23    2    1    2    0    0  0.00000000000E+00  0.00000000000E+00  0.16777035768E+03  0.19128738470E+03  0.91891080265E+02 0.  0.
        -11    1    3    3    0    0  0.21047991335E+02 -0.29556105823E+02  0.14255782647E+03  0.14710307685E+03  0.51100000000E-03 0.  1.
         11    1    3    3    0    0 -0.21047991335E+02  0.29556105823E+02  0.25212531211E+02  0.44184307859E+02  0.51100000000E-03 0. -1.
<mgrwt>
<rscale>  0 0.91891080E+02</rscale>
<asrwt>0</asrwt>
<pdfrwt beam="1">  1        2 0.27619827E-01 0.91891080E+02</pdfrwt>
<pdfrwt beam="2">  1       -2 0.18090020E-02 0.91891080E+02</pdfrwt>
<totfact> 0.14570182E+05</totfact>
</mgrwt>
</event>
<event>
 5    1  0.2799021E+000  0.9010514E+02  0.7818608E-02  0.1302597E+00
          2   -1    0    0  501    0  0.00000000000E+00  0.00000000000E+00  0.20591472497E+03  0.20591472498E+03  0.26000000000E-02 0. -1.
         -2   -1    0    0    0  501 -0.00000000000E+00 -0.00000000000E+00 -0.98571579513E+01  0.98571582942E+01  0.26000000000E-02 0.  1.
         23    2    1    2    0    0  0.00000000000E+00  0.00000000000E+00  0.19605756702E+03  0.21577188328E+03  0.90105138750E+02 0.  0.
        -11    1    3    3    0    0 -0.42083185838E+02 -0.15270907862E+02  0.11013047172E+03  0.11888194126E+03  0.51100000000E-03 0. -1.
         11    1    3    3    0    0  0.42083185838E+02  0.15270907862E+02  0.85927095300E+02  0.96889942018E+02  0.51100000000E-03 0.  1.
<mgrwt>
<rscale>  0 0.90105139E+02</rscale>
<asrwt>0</asrwt>
<pdfrwt beam="1">  1        2 0.31679189E-01 0.90105139E+02</pdfrwt>
<pdfrwt beam="2">  1       -2 0.15164858E-02 0.90105139E+02</pdfrwt>
<totfact> 0.16136808E+05</totfact>
</mgrwt>
</event>
<event>
 5    1  0.2799021E+000  0.9154697E+02  0.7818608E-02  0.1299148E+00
         -2   -1    0    0    0  501 -0.00000000000E+00  0.00000000000E+00  0.10525440770E+03  0.10525440774E+03  0.26000000000E-02 0.  1.
          2   -1    0    0  501    0  0.00000000000E+00 -0.00000000000E+00 -0.19906169496E+02  0.19906169666E+02  0.26000000000E-02 0. -1.
         23    2    1    2    0    0  0.00000000000E+00  0.00000000000E+00  0.85348238207E+02  0.12516057740E+03  0.91546973573E+02 0.  0.
        -11    1    3    3    0    0  0.27495987630E+02  0.11093932856E+02 -0.50029482454E+01  0.30068823944E+02  0.51100000000E-03 0. -1.
         11    1    3    3    0    0 -0.27495987630E+02 -0.11093932856E+02  0.90351186452E+02  0.95091753457E+02  0.51100000000E-03 0.  1.
<mgrwt>
<rscale>  0 0.91546974E+02</rscale>
<asrwt>0</asrwt>
<pdfrwt beam="2">  1        2 0.30624875E-02 0.91546974E+02</pdfrwt>
<pdfrwt beam="1">  1       -2 0.16192986E-01 0.91546974E+02</pdfrwt>
<totfact> 0.77792577E+04</totfact>
</mgrwt>
</event>
<event>
 5    1  0.2799021E+000  0.8932279E+02  0.7818608E-02  0.1304500E+00
         -2   -1    0    0    0  501 -0.00000000000E+00  0.00000000000E+00  0.14053191372E+03  0.14053191374E+03  0.26000000000E-02 0.  1.
          2   -1    0    0  501    0  0.00000000000E+00 -0.00000000000E+00 -0.14193503421E+02  0.14193503659E+02  0.26000000000E-02 0. -1.
         23    2    1    2    0    0  0.00000000000E+00  0.00000000000E+00  0.12633841030E+03  0.15472541740E+03  0.89322790337E+02 0.  0.
        -11    1    3    3    0    0  0.17199247860E+02 -0.38536167352E+02  0.88496742851E+02  0.98043479216E+02  0.51100000000E-03 0. -1.
         11    1    3    3    0    0 -0.17199247860E+02  0.38536167352E+02  0.37841667447E+02  0.56681938187E+02  0.51100000000E-03 0.  1.
<mgrwt>
<rscale>  0 0.89322790E+02</rscale>
<asrwt>0</asrwt>
<pdfrwt beam="2">  1        2 0.21836160E-02 0.89322790E+02</pdfrwt>
<pdfrwt beam="1">  1       -2 0.21620294E-01 0.89322790E+02</pdfrwt>
<totfact> 0.75309216E+04</totfact>
</mgrwt>
</event>
<event>
 5    1  0.2799021E+000  0.9205662E+02  0.7818608E-02  0.1297946E+00
          2   -1    0    0  501    0  0.00000000000E+00  0.00000000000E+00  0.89210347270E+01  0.89210351058E+01  0.26000000000E-02 0. -1.
         -2   -1    0    0    0  501 -0.00000000000E+00 -0.00000000000E+00 -0.23748423755E+03  0.23748423757E+03  0.26000000000E-02 0.  1.
         23    2    1    2    0    0  0.00000000000E+00  0.00000000000E+00 -0.22856320283E+03  0.24640527267E+03  0.92056616899E+02 0.  0.
        -11    1    3    3    0    0 -0.40465781224E+02 -0.27162665066E+01 -0.17254133698E+03  0.17724381659E+03  0.51100000000E-03 0.  1.
         11    1    3    3    0    0  0.40465781224E+02  0.27162665066E+01 -0.56021865848E+02  0.69161456081E+02  0.51100000000E-03 0. -1.
<mgrwt>
<rscale>  0 0.92056617E+02</rscale>
<asrwt>0</asrwt>
<pdfrwt beam="1">  1        2 0.13724671E-02 0.92056617E+02</pdfrwt>
<pdfrwt beam="2">  1       -2 0.36536032E-01 0.92056617E+02</pdfrwt>
<totfact> 0.56208880E+04</totfact>
</mgrwt>
</event>
<event>
 5    1  0.2799021E+000  0.9157416E+02  0.7818608E-02  0.1299084E+00
          2   -1    0    0  501    0  0.00000000000E+00  0.00000000000E+00  0.19165802590E+03  0.19165802592E+03  0.26000000000E-02 0. -1.
         -2   -1    0    0    0  501 -0.00000000000E+00 -0.00000000000E+00 -0.10938529072E+02  0.10938529381E+02  0.26000000000E-02 0.  1.
         23    2    1    2    0    0  0.00000000000E+00  0.00000000000E+00  0.18071949683E+03  0.20259655530E+03  0.91574164945E+02 0.  0.
        -11    1    3    3    0    0  0.39282738177E+02  0.22634561750E+02  0.76193622189E+02  0.88661857452E+02  0.51100000000E-03 0.  1.
         11    1    3    3    0    0 -0.39282738177E+02 -0.22634561750E+02  0.10452587464E+03  0.11393469785E+03  0.51100000000E-03 0. -1.
<mgrwt>
<rscale>  0 0.91574165E+02</rscale>
<asrwt>0</asrwt>
<pdfrwt beam="1">  1        2 0.29485851E-01 0.91574165E+02</pdfrwt>
<pdfrwt beam="2">  1       -2 0.16828506E-02 0.91574165E+02</pdfrwt>
<totfact> 0.15054604E+05</totfact>
</mgrwt>
</event>
<event>
 5    1  0.2799021E+000  0.8137797E+02  0.7818608E-02  0.1325186E+00
         -2   -1    0    0    0  501 -0.00000000000E+00  0.00000000000E+00  0.17720990832E+02  0.17720991023E+02  0.26000000000E-02 0.  1.
          2   -1    0    0  501    0  0.00000000000E+00 -0.00000000000E+00 -0.93425555731E+02  0.93425555767E+02  0.26000000000E-02 0. -1.
         23    2    1    2    0    0  0.00000000000E+00  0.00000000000E+00 -0.75704564899E+02  0.11114654679E+03  0.81377968252E+02 0.  0.
        -11    1    3    3    0    0  0.14029738609E+02 -0.25677588672E+02 -0.76469145339E+02  0.81876140081E+02  0.51100000000E-03 0. -1.
         11    1    3    3    0    0 -0.14029738609E+02  0.25677588672E+02  0.76458044044E+00  0.29270406709E+02  0.51100000000E-03 0.  1.
<mgrwt>
<rscale>  0 0.81377968E+02</rscale>
<asrwt>0</asrwt>
<pdfrwt beam="2">  1        2 0.14373162E-01 0.81377968E+02</pdfrwt>
<pdfrwt beam="1">  1       -2 0.27263064E-02 0.81377968E+02</pdfrwt>
<totfact> 0.16403346E+05</totfact>
</mgrwt>
</event>
<event>
 5    1  0.2799021E+000  0.9493449E+02  0.7818608E-02  0.1291324E+00
          2   -1    0    0  501    0  0.00000000000E+00  0.00000000000E+00  0.64320578909E+02  0.64320578961E+02  0.26000000000E-02 0. -1.
         -2   -1    0    0    0  501 -0.00000000000E+00 -0.00000000000E+00 -0.35029836110E+02  0.35029836206E+02  0.26000000000E-02 0.  1.
         23    2    1    2    0    0  0.00000000000E+00  0.00000000000E+00  0.29290742799E+02  0.99350415167E+02  0.94934489940E+02 0.  0.
        -11    1    3    3    0    0 -0.17953532541E+02  0.33997939732E+01 -0.31201700047E+02  0.36158457044E+02  0.51100000000E-03 0.  1.
         11    1    3    3    0    0  0.17953532541E+02 -0.33997939732E+01  0.60492442846E+02  0.63191958123E+02  0.51100000000E-03 0. -1.
<mgrwt>
<rscale>  0 0.94934490E+02</rscale>
<asrwt>0</asrwt>
<pdfrwt beam="1">  1        2 0.98954736E-02 0.94934490E+02</pdfrwt>
<pdfrwt beam="2">  1       -2 0.53892056E-02 0.94934490E+02</pdfrwt>
<totfact> 0.96436816E+04</totfact>
</mgrwt>
</event>
<event>
 5    1  0.2799021E+000  0.9241904E+02  0.7818608E-02  0.1297097E+00
         -2   -1    0    0    0  501 -0.00000000000E+00  0.00000000000E+00  0.33819611441E+02  0.33819611541E+02  0.26000000000E-02 0.  1.
          2   -1    0    0  501    0  0.00000000000E+00 -0.00000000000E+00 -0.63138505730E+02  0.63138505784E+02  0.26000000000E-02 0. -1.
         23    2    1    2    0    0  0.00000000000E+00  0.00000000000E+00 -0.29318894289E+02  0.96958117325E+02  0.92419039991E+02 0.  0.
        -11    1    3    3    0    0  0.89259073094E+01  0.42911625687E+02 -0.30015277392E+02  0.53122465281E+02  0.51100000000E-03 0. -1.
         11    1    3    3    0    0 -0.89259073094E+01 -0.42911625687E+02  0.69638310298E+00  0.43835652044E+02  0.51100000000E-03 0.  1.
<mgrwt>
<rscale>  0 0.92419040E+02</rscale>
<asrwt>0</asrwt>
<pdfrwt beam="2">  1        2 0.97136162E-02 0.92419040E+02</pdfrwt>
<pdfrwt beam="1">  1       -2 0.52030172E-02 0.92419040E+02</pdfrwt>
<totfact> 0.10351274E+05</totfact>
</mgrwt>
</event>
<event>
 5    1  0.2799021E+000  0.9034504E+02  0.7818608E-02  0.1302018E+00
         -2   -1    0    0    0  501 -0.00000000000E+00  0.00000000000E+00  0.18374580662E+02  0.18374580846E+02  0.26000000000E-02 0.  1.
          2   -1    0    0  501    0  0.00000000000E+00 -0.00000000000E+00 -0.11105322456E+03  0.11105322459E+03  0.26000000000E-02 0. -1.
         23    2    1    2    0    0  0.00000000000E+00  0.00000000000E+00 -0.92678643898E+02  0.12942780544E+03  0.90345037415E+02 0.  0.
        -11    1    3    3    0    0 -0.29277708632E+02  0.20909505106E+02 -0.72065447948E+01  0.36692314109E+02  0.51100000000E-03 0.  1.
         11    1    3    3    0    0  0.29277708632E+02 -0.20909505106E+02 -0.85472099103E+02  0.92735491328E+02  0.51100000000E-03 0. -1.
<mgrwt>
<rscale>  0 0.90345037E+02</rscale>
<asrwt>0</asrwt>
<pdfrwt beam="2">  1        2 0.17085111E-01 0.90345037E+02</pdfrwt>
<pdfrwt beam="1">  1       -2 0.28268586E-02 0.90345037E+02</pdfrwt>
<totfact> 0.12993543E+05</totfact>
</mgrwt>
</event>
<event>
 5    1  0.2799021E+000  0.1236229E+03  0.7818608E-02  0.1237237E+00
          2   -1    0    0  501    0  0.00000000000E+00  0.00000000000E+00  0.64807862503E+02  0.64807862555E+02  0.26000000000E-02 0. -1.
         -2   -1    0    0    0  501 -0.00000000000E+00 -0.00000000000E+00 -0.58953589867E+02  0.58953589924E+02  0.26000000000E-02 0.  1.
         23    2    1    2    0    0  0.00000000000E+00  0.00000000000E+00  0.58542726360E+01  0.12376145248E+03  0.12362291297E+03 0.  0.
        -11    1    3    3    0    0  0.34110532678E+02  0.46854634010E+02 -0.18585802653E+02  0.60863102356E+02  0.51100000000E-03 0.  1.
         11    1    3    3    0    0 -0.34110532678E+02 -0.46854634010E+02  0.24440075289E+02  0.62898350123E+02  0.51100000000E-03 0. -1.
<mgrwt>
<rscale>  0 0.12362291E+03</rscale>
<asrwt>0</asrwt>
<pdfrwt beam="1">  1        2 0.99704404E-02 0.12362291E+03</pdfrwt>
<pdfrwt beam="2">  1       -2 0.90697831E-02 0.12362291E+03</pdfrwt>
<totfact> 0.44883940E+04</totfact>
</mgrwt>
</event>
<event>
 5    1  0.2799021E+000  0.9370497E+02  0.7818608E-02  0.1294120E+00
         -2   -1    0    0    0  501 -0.00000000000E+00  0.00000000000E+00  0.42175989268E+02  0.42175989348E+02  0.26000000000E-02 0.  1.
          2   -1    0    0  501    0  0.00000000000E+00 -0.00000000000E+00 -0.52047513198E+02  0.52047513262E+02  0.26000000000E-02 0. -1.
         23    2    1    2    0    0  0.00000000000E+00  0.00000000000E+00 -0.98715239295E+01  0.94223502611E+02  0.93704970303E+02 0.  0.
        -11    1    3    3    0    0 -0.38770317938E+02  0.15423237131E+02  0.16492761384E+02  0.44866746873E+02  0.51100000000E-03 0.  1.
         11    1    3    3    0    0  0.38770317938E+02 -0.15423237131E+02 -0.26364285314E+02  0.49356755738E+02  0.51100000000E-03 0. -1.
<mgrwt>
<rscale>  0 0.93704970E+02</rscale>
<asrwt>0</asrwt>
<pdfrwt beam="2">  1        2 0.80073098E-02 0.93704970E+02</pdfrwt>
<pdfrwt beam="1">  1       -2 0.64886137E-02 0.93704970E+02</pdfrwt>
<totfact> 0.94472720E+04</totfact>
</mgrwt>
</event>
<event>
 5    1  0.2799021E+000  0.9203102E+02  0.7818608E-02  0.1298007E+00
          2   -1    0    0  501    0  0.00000000000E+00  0.00000000000E+00  0.50746996501E+02  0.50746996568E+02  0.26000000000E-02 0. -1.
         -2   -1    0    0    0  501 -0.00000000000E+00 -0.00000000000E+00 -0.41725171285E+02  0.41725171366E+02  0.26000000000E-02 0.  1.
         23    2    1    2    0    0  0.00000000000E+00  0.00000000000E+00  0.90218252161E+01  0.92472167934E+02  0.92031019293E+02 0.  0.
        -11    1    3    3    0    0 -0.20678963365E+02  0.17323963070E+02  0.41968124370E+02  0.49890506970E+02  0.51100000000E-03 0. -1.
         11    1    3    3    0    0  0.20678963365E+02 -0.17323963070E+02 -0.32946299154E+02  0.42581660964E+02  0.51100000000E-03 0.  1.
<mgrwt>
<rscale>  0 0.92031019E+02</rscale>
<asrwt>0</asrwt>
<pdfrwt beam="1">  1        2 0.78072302E-02 0.92031019E+02</pdfrwt>
<pdfrwt beam="2">  1       -2 0.64192572E-02 0.92031019E+02</pdfrwt>
<totfact> 0.98804490E+04</totfact>
</mgrwt>
</event>
<event>
 5    1  0.2799021E+000  0.9168275E+02  0.7818608E-02  0.1298827E+00
         -2   -1    0    0    0  501 -0.00000000000E+00  0.00000000000E+00  0.13588243740E+02  0.13588243989E+02  0.26000000000E-02 0.  1.
          2   -1    0    0  501    0  0.00000000000E+00 -0.00000000000E+00 -0.15465070194E+03  0.15465070196E+03  0.26000000000E-02 0. -1.
         23    2    1    2    0    0  0.00000000000E+00  0.00000000000E+00 -0.14106245820E+03  0.16823894595E+03  0.91682745493E+02 0.  0.
        -11    1    3    3    0    0 -0.57787461359E+01 -0.38981386665E+02 -0.27555534342E+02  0.48085859526E+02  0.51100000000E-03 0.  1.
         11    1    3    3    0    0  0.57787461359E+01  0.38981386665E+02 -0.11350692386E+03  0.12015308642E+03  0.51100000000E-03 0. -1.
<mgrwt>
<rscale>  0 0.91682745E+02</rscale>
<asrwt>0</asrwt>
<pdfrwt beam="2">  1        2 0.23792414E-01 0.91682745E+02</pdfrwt>
<pdfrwt beam="1">  1       -2 0.20904992E-02 0.91682745E+02</pdfrwt>
<totfact> 0.13916813E+05</totfact>
</mgrwt>
</event>
<event>
 5    1  0.2799021E+000  0.8678581E+02  0.7818608E-02  0.1310827E+00
          2   -1    0    0  501    0  0.00000000000E+00  0.00000000000E+00  0.38855277376E+02  0.38855277463E+02  0.26000000000E-02 0. -1.
         -2   -1    0    0    0  501 -0.00000000000E+00 -0.00000000000E+00 -0.48460452117E+02  0.48460452187E+02  0.26000000000E-02 0.  1.
         23    2    1    2    0    0  0.00000000000E+00  0.00000000000E+00 -0.96051747414E+01  0.87315729650E+02  0.86785812565E+02 0.  0.
        -11    1    3    3    0    0  0.32746571603E+02 -0.28237237784E+02 -0.11382660529E+01  0.43254770827E+02  0.51100000000E-03 0. -1.
         11    1    3    3    0    0 -0.32746571603E+02  0.28237237784E+02 -0.84669086885E+01  0.44060958823E+02  0.51100000000E-03 0.  1.
<mgrwt>
<rscale>  0 0.86785813E+02</rscale>
<asrwt>0</asrwt>
<pdfrwt beam="1">  1        2 0.59777350E-02 0.86785813E+02</pdfrwt>
<pdfrwt beam="2">  1       -2 0.74554542E-02 0.86785813E+02</pdfrwt>
<totfact> 0.10916339E+05</totfact>
</mgrwt>
</event>
<event>
 5    1  0.2799021E+000  0.9155920E+02  0.7818608E-02  0.1299119E+00
         -2   -1    0    0    0  501 -0.00000000000E+00  0.00000000000E+00  0.58086323997E+02  0.58086324055E+02  0.26000000000E-02 0.  1.
          2   -1    0    0  501    0  0.00000000000E+00 -0.00000000000E+00 -0.36080299249E+02  0.36080299343E+02  0.26000000000E-02 0. -1.
         23    2    1    2    0    0  0.00000000000E+00  0.00000000000E+00  0.22006024748E+02  0.94166623398E+02  0.91559203999E+02 0.  0.
        -11    1    3    3    0    0 -0.41245029592E+02 -0.17758584819E+02  0.20158901780E+02  0.49222973519E+02  0.51100000000E-03 0.  1.
         11    1    3    3    0    0  0.41245029592E+02  0.17758584819E+02  0.18471229679E+01  0.44943649878E+02  0.51100000000E-03 0. -1.
<mgrwt>
<rscale>  0 0.91559204E+02</rscale>
<asrwt>0</asrwt>
<pdfrwt beam="2">  1        2 0.55508153E-02 0.91559204E+02</pdfrwt>
<pdfrwt beam="1">  1       -2 0.89363575E-02 0.91559204E+02</pdfrwt>
<totfact> 0.91741325E+04</totfact>
</mgrwt>
</event>
<event>
 5    1  0.2799021E+000  0.6848299E+02  0.7818608E-02  0.1365329E+00
         -2   -1    0    0    0  501 -0.00000000000E+00  0.00000000000E+00  0.33979735917E+02  0.33979736017E+02  0.26000000000E-02 0.  1.
          2   -1    0    0  501    0  0.00000000000E+00 -0.00000000000E+00 -0.34505273977E+02  0.34505274075E+02  0.26000000000E-02 0. -1.
         23    2    1    2    0    0  0.00000000000E+00  0.00000000000E+00 -0.52553806007E+00  0.68485010092E+02  0.68482993634E+02 0.  0.
        -11    1    3    3    0    0 -0.25340777456E+02 -0.21497252068E+02 -0.85209329516E+01  0.34305876278E+02  0.51100000000E-03 0. -1.
         11    1    3    3    0    0  0.25340777456E+02  0.21497252068E+02  0.79953948916E+01  0.34179133814E+02  0.51100000000E-03 0.  1.
<mgrwt>
<rscale>  0 0.68482994E+02</rscale>
<asrwt>0</asrwt>
<pdfrwt beam="2">  1        2 0.53085037E-02 0.68482994E+02</pdfrwt>
<pdfrwt beam="1">  1       -2 0.52276517E-02 0.68482994E+02</pdfrwt>
<totfact> 0.20688833E+05</totfact>
</mgrwt>
</event>
<event>
 5    1  0.2799021E+000  0.9092966E+02  0.7818608E-02  0.1300616E+00
         -2   -1    0    0    0  501 -0.00000000000E+00  0.00000000000E+00  0.14998271068E+03  0.14998271071E+03  0.26000000000E-02 0.  1.
          2   -1    0    0  501    0  0.00000000000E+00 -0.00000000000E+00 -0.13781925623E+02  0.13781925868E+02  0.26000000000E-02 0. -1.
         23    2    1    2    0    0  0.00000000000E+00  0.00000000000E+00  0.13620078506E+03  0.16376463658E+03  0.90929656005E+02 0.  0.
        -11    1    3    3    0    0 -0.33726061766E+02 -0.27325935162E+02  0.92457034149E+02  0.10213940052E+03  0.51100000000E-03 0. -1.
         11    1    3    3    0    0  0.33726061766E+02  0.27325935162E+02  0.43743750912E+02  0.61625236055E+02  0.51100000000E-03 0.  1.
<mgrwt>
<rscale>  0 0.90929656E+02</rscale>
<asrwt>0</asrwt>
<pdfrwt beam="2">  1        2 0.21202962E-02 0.90929656E+02</pdfrwt>
<pdfrwt beam="1">  1       -2 0.23074264E-01 0.90929656E+02</pdfrwt>
<totfact> 0.70341364E+04</totfact>
</mgrwt>
</event>
<event>
 5    1  0.2799021E+000  0.9021516E+02  0.7818608E-02  0.1302331E+00
         -2   -1    0    0    0  501 -0.00000000000E+00  0.00000000000E+00  0.46426064795E+02  0.46426064868E+02  0.26000000000E-02 0.  1.
          2   -1    0    0  501    0  0.00000000000E+00 -0.00000000000E+00 -0.43826538253E+02  0.43826538330E+02  0.26000000000E-02 0. -1.
         23    2    1    2    0    0  0.00000000000E+00  0.00000000000E+00  0.25995265421E+01  0.90252603198E+02  0.90215158625E+02 0.  0.
        -11    1    3    3    0    0 -0.54465872965E+01 -0.42681130169E+02 -0.12246518826E+02  0.44736130916E+02  0.51100000000E-03 0. -1.
         11    1    3    3    0    0  0.54465872965E+01  0.42681130169E+02  0.14846045368E+02  0.45516472282E+02  0.51100000000E-03 0.  1.
<mgrwt>
<rscale>  0 0.90215159E+02</rscale>
<asrwt>0</asrwt>
<pdfrwt beam="2">  1        2 0.67425444E-02 0.90215159E+02</pdfrwt>
<pdfrwt beam="1">  1       -2 0.71424715E-02 0.90215159E+02</pdfrwt>
<totfact> 0.10069184E+05</totfact>
</mgrwt>
</event>
<event>
 5    1  0.2799021E+000  0.9148236E+02  0.7818608E-02  0.1299301E+00
         -2   -1    0    0    0  501 -0.00000000000E+00  0.00000000000E+00  0.73720412106E+01  0.73720416691E+01  0.26000000000E-02 0.  1.
          2   -1    0    0  501    0  0.00000000000E+00 -0.00000000000E+00 -0.28380949596E+03  0.28380949597E+03  0.26000000000E-02 0. -1.
         23    2    1    2    0    0  0.00000000000E+00  0.00000000000E+00 -0.27643745475E+03  0.29118153764E+03  0.91482356083E+02 0.  0.
        -11    1    3    3    0    0  0.39240986758E+02 -0.54887932295E+01 -0.21095909289E+03  0.21464789951E+03  0.51100000000E-03 0. -1.
         11    1    3    3    0    0 -0.39240986758E+02  0.54887932295E+01 -0.65478361860E+02  0.76533638127E+02  0.51100000000E-03 0.  1.
<mgrwt>
<rscale>  0 0.91482356E+02</rscale>
<asrwt>0</asrwt>
<pdfrwt beam="2">  1        2 0.43662991E-01 0.91482356E+02</pdfrwt>
<pdfrwt beam="1">  1       -2 0.11341604E-02 0.91482356E+02</pdfrwt>
<totfact> 0.17441548E+05</totfact>
</mgrwt>
</event>
<event>
 5    1  0.2799021E+000  0.9143207E+02  0.7818608E-02  0.1299420E+00
         -2   -1    0    0    0  501 -0.00000000000E+00  0.00000000000E+00  0.32172447986E+02  0.32172448091E+02  0.26000000000E-02 0.  1.
          2   -1    0    0  501    0  0.00000000000E+00 -0.00000000000E+00 -0.64961039728E+02  0.64961039780E+02  0.26000000000E-02 0. -1.
         23    2    1    2    0    0  0.00000000000E+00  0.00000000000E+00 -0.32788591742E+02  0.97133487870E+02  0.91432066133E+02 0.  0.
        -11    1    3    3    0    0  0.33794334244E+02 -0.10947338909E+02 -0.46964609229E+02  0.58886125501E+02  0.51100000000E-03 0. -1.
         11    1    3    3    0    0 -0.33794334244E+02  0.10947338909E+02  0.14176017487E+02  0.38247362370E+02  0.51100000000E-03 0.  1.
<mgrwt>
<rscale>  0 0.91432066E+02</rscale>
<asrwt>0</asrwt>
<pdfrwt beam="2">  1        2 0.99940061E-02 0.91432066E+02</pdfrwt>
<pdfrwt beam="1">  1       -2 0.49496074E-02 0.91432066E+02</pdfrwt>
<totfact> 0.10752368E+05</totfact>
</mgrwt>
</event>
<event>
 5    1  0.2799021E+000  0.9116349E+02  0.7818608E-02  0.1300058E+00
         -2   -1    0    0    0  501 -0.00000000000E+00  0.00000000000E+00  0.93431131135E+01  0.93431134753E+01  0.26000000000E-02 0.  1.
          2   -1    0    0  501    0  0.00000000000E+00 -0.00000000000E+00 -0.22237720988E+03  0.22237720990E+03  0.26000000000E-02 0. -1.
         23    2    1    2    0    0  0.00000000000E+00  0.00000000000E+00 -0.21303409677E+03  0.23172032337E+03  0.91163489830E+02 0.  0.
        -11    1    3    3    0    0 -0.66557928241E+01 -0.44553490910E+02 -0.88836871194E+02  0.99605736854E+02  0.51100000000E-03 0.  1.
         11    1    3    3    0    0  0.66557928241E+01  0.44553490910E+02 -0.12419722558E+03  0.13211458652E+03  0.51100000000E-03 0. -1.
<mgrwt>
<rscale>  0 0.91163490E+02</rscale>
<asrwt>0</asrwt>
<pdfrwt beam="2">  1        2 0.34211874E-01 0.91163490E+02</pdfrwt>
<pdfrwt beam="1">  1       -2 0.14374022E-02 0.91163490E+02</pdfrwt>
<totfact> 0.16083538E+05</totfact>
</mgrwt>
</event>
<event>
 5    1  0.2799021E+000  0.1013734E+03  0.7818608E-02  0.1277434E+00
         -2   -1    0    0    0  501 -0.00000000000E+00  0.00000000000E+00  0.12989801143E+02  0.12989801403E+02  0.26000000000E-02 0.  1.
          2   -1    0    0  501    0  0.00000000000E+00 -0.00000000000E+00 -0.19778153817E+03  0.19778153818E+03  0.26000000000E-02 0. -1.
         23    2    1    2    0    0  0.00000000000E+00  0.00000000000E+00 -0.18479173702E+03  0.21077133959E+03  0.10137342610E+03 0.  0.
        -11    1    3    3    0    0 -0.25983008209E+02  0.36410769652E+02 -0.14196021541E+03  0.14884073240E+03  0.51100000000E-03 0. -1.
         11    1    3    3    0    0  0.25983008209E+02 -0.36410769652E+02 -0.42831521614E+02  0.61930607185E+02  0.51100000000E-03 0.  1.
<mgrwt>
<rscale>  0 0.10137343E+03</rscale>
<asrwt>0</asrwt>
<pdfrwt beam="2">  1        2 0.30427927E-01 0.10137343E+03</pdfrwt>
<pdfrwt beam="1">  1       -2 0.19984311E-02 0.10137343E+03</pdfrwt>
<totfact> 0.11556549E+05</totfact>
</mgrwt>
</event>
<event>
 5    1  0.2799021E+000  0.9045560E+02  0.7818608E-02  0.1301752E+00
          2   -1    0    0  501    0  0.00000000000E+00  0.00000000000E+00  0.89584612932E+02  0.89584612969E+02  0.26000000000E-02 0. -1.
         -2   -1    0    0    0  501 -0.00000000000E+00 -0.00000000000E+00 -0.22833763858E+02  0.22833764006E+02  0.26000000000E-02 0.  1.
         23    2    1    2    0    0  0.00000000000E+00  0.00000000000E+00  0.66750849074E+02  0.11241837697E+03  0.90455600322E+02 0.  0.
        -11    1    3    3    0    0  0.30376911708E+01 -0.42401985246E+02  0.52564459864E+02  0.67603094319E+02  0.51100000000E-03 0.  1.
         11    1    3    3    0    0 -0.30376911708E+01  0.42401985246E+02  0.14186389210E+02  0.44815282656E+02  0.51100000000E-03 0. -1.
<mgrwt>
<rscale>  0 0.90455600E+02</rscale>
<asrwt>0</asrwt>
<pdfrwt beam="1">  1        2 0.13782248E-01 0.90455600E+02</pdfrwt>
<pdfrwt beam="2">  1       -2 0.35128868E-02 0.90455600E+02</pdfrwt>
<totfact> 0.12132849E+05</totfact>
</mgrwt>
</event>
<event>
 5    1  0.2799021E+000  0.9222034E+02  0.7818608E-02  0.1297562E+00
         -2   -1    0    0    0  501 -0.00000000000E+00  0.00000000000E+00  0.82667332389E+02  0.82667332429E+02  0.26000000000E-02 0.  1.
          2   -1    0    0  501    0  0.00000000000E+00 -0.00000000000E+00 -0.25719325031E+02  0.25719325162E+02  0.26000000000E-02 0. -1.
         23    2    1    2    0    0  0.00000000000E+00  0.00000000000E+00  0.56948007358E+02  0.10838665759E+03  0.92220344837E+02 0.  0.
        -11    1    3    3    0    0  0.76860999214E+01 -0.15026334062E+02  0.78906345594E+02  0.80691252454E+02  0.51100000000E-03 0.  1.
         11    1    3    3    0    0 -0.76860999214E+01  0.15026334062E+02 -0.21958338236E+02  0.27695405137E+02  0.51100000000E-03 0. -1.
<mgrwt>
<rscale>  0 0.92220345E+02</rscale>
<asrwt>0</asrwt>
<pdfrwt beam="2">  1        2 0.39568192E-02 0.92220345E+02</pdfrwt>
<pdfrwt beam="1">  1       -2 0.12718051E-01 0.92220345E+02</pdfrwt>
<totfact> 0.81976878E+04</totfact>
</mgrwt>
</event>
<event>
 4    1  0.2799021E+000  0.3544761E+02  0.7818608E-02  0.1544661E+00
         -2   -1    0    0    0  501 -0.00000000000E+00  0.00000000000E+00  0.45855683624E+01  0.45855690995E+01  0.26000000000E-02 0. -1.
          2   -1    0    0  501    0  0.00000000000E+00 -0.00000000000E+00 -0.68504736219E+02  0.68504736268E+02  0.26000000000E-02 0.  1.
        -11    1    1    2    0    0 -0.96854928848E+01  0.14721037170E+02 -0.35880209458E+02  0.39973830674E+02  0.51100000000E-03 0. -1.
         11    1    1    2    0    0  0.96854928848E+01 -0.14721037170E+02 -0.28038958399E+02  0.33116474693E+02  0.51100000000E-03 0.  1.
<mgrwt>
<rscale>  0 0.35447605E+02</rscale>
<asrwt>0</asrwt>
<pdfrwt beam="2">  1        2 0.10539189E-01 0.35447605E+02</pdfrwt>
<pdfrwt beam="1">  1       -2 0.70547217E-03 0.35447605E+02</pdfrwt>
<totfact> 0.12888791E+06</totfact>
</mgrwt>
</event>
<event>
 5    1  0.2799021E+000  0.9389930E+02  0.7818608E-02  0.1293675E+00
          2   -1    0    0  501    0  0.00000000000E+00  0.00000000000E+00  0.15315068583E+03  0.15315068585E+03  0.26000000000E-02 0. -1.
         -2   -1    0    0    0  501 -0.00000000000E+00 -0.00000000000E+00 -0.14392815239E+02  0.14392815474E+02  0.26000000000E-02 0.  1.
         23    2    1    2    0    0  0.00000000000E+00  0.00000000000E+00  0.13875787059E+03  0.16754350133E+03  0.93899298110E+02 0.  0.
        -11    1    3    3    0    0 -0.41571327381E+02  0.64041964230E+01  0.10659668215E+03  0.11459512048E+03  0.51100000000E-03 0. -1.
         11    1    3    3    0    0  0.41571327381E+02 -0.64041964230E+01  0.32161188441E+02  0.52948380846E+02  0.51100000000E-03 0.  1.
<mgrwt>
<rscale>  0 0.93899298E+02</rscale>
<asrwt>0</asrwt>
<pdfrwt beam="1">  1        2 0.23561644E-01 0.93899298E+02</pdfrwt>
<pdfrwt beam="2">  1       -2 0.22142793E-02 0.93899298E+02</pdfrwt>
<totfact> 0.12997588E+05</totfact>
</mgrwt>
</event>
<event>
 5    1  0.2799021E+000  0.9169509E+02  0.7818608E-02  0.1298798E+00
          2   -1    0    0  501    0  0.00000000000E+00  0.00000000000E+00  0.30939370623E+03  0.30939370624E+03  0.26000000000E-02 0. -1.
         -2   -1    0    0    0  501 -0.00000000000E+00 -0.00000000000E+00 -0.67939232463E+01  0.67939237438E+01  0.26000000000E-02 0.  1.
         23    2    1    2    0    0  0.00000000000E+00  0.00000000000E+00  0.30259978298E+03  0.31618762998E+03  0.91695085438E+02 0.  0.
        -11    1    3    3    0    0 -0.42656679007E+02 -0.13477082120E+02  0.11668433889E+03  0.12496583113E+03  0.51100000000E-03 0.  1.
         11    1    3    3    0    0  0.42656679007E+02  0.13477082120E+02  0.18591544409E+03  0.19122179885E+03  0.51100000000E-03 0. -1.
<mgrwt>
<rscale>  0 0.91695085E+02</rscale>
<asrwt>0</asrwt>
<pdfrwt beam="1">  1        2 0.47599035E-01 0.91695085E+02</pdfrwt>
<pdfrwt beam="2">  1       -2 0.10452189E-02 0.91695085E+02</pdfrwt>
<totfact> 0.17900405E+05</totfact>
</mgrwt>
</event>
<event>
 5    1  0.2799021E+000  0.9200500E+02  0.7818608E-02  0.1298068E+00
          2   -1    0    0  501    0  0.00000000000E+00  0.00000000000E+00  0.15593931529E+02  0.15593931746E+02  0.26000000000E-02 0. -1.
         -2   -1    0    0    0  501 -0.00000000000E+00 -0.00000000000E+00 -0.13570854963E+03  0.13570854965E+03  0.26000000000E-02 0.  1.
         23    2    1    2    0    0  0.00000000000E+00  0.00000000000E+00 -0.12011461810E+03  0.15130248140E+03  0.92004996583E+02 0.  0.
        -11    1    3    3    0    0 -0.11062340885E+01 -0.45286812833E+02 -0.73224702815E+02  0.86104449786E+02  0.51100000000E-03 0. -1.
         11    1    3    3    0    0  0.11062340885E+01  0.45286812833E+02 -0.46889915281E+02  0.65198031610E+02  0.51100000000E-03 0.  1.
<mgrwt>
<rscale>  0 0.92004997E+02</rscale>
<asrwt>0</asrwt>
<pdfrwt beam="1">  1        2 0.23990665E-02 0.92004997E+02</pdfrwt>
<pdfrwt beam="2">  1       -2 0.20878238E-01 0.92004997E+02</pdfrwt>
<totfact> 0.70745496E+04</totfact>
</mgrwt>
</event>
<event>
 5    1  0.2799021E+000  0.9217741E+02  0.7818608E-02  0.1297663E+00
         -2   -1    0    0    0  501 -0.00000000000E+00  0.00000000000E+00  0.54493620344E+02  0.54493620406E+02  0.26000000000E-02 0.  1.
          2   -1    0    0  501    0  0.00000000000E+00 -0.00000000000E+00 -0.38980132207E+02  0.38980132294E+02  0.26000000000E-02 0. -1.
         23    2    1    2    0    0  0.00000000000E+00  0.00000000000E+00  0.15513488137E+02  0.93473752700E+02  0.92177405744E+02 0.  0.
        -11    1    3    3    0    0  0.24553896064E+02 -0.13454701266E+02  0.44880970626E+02  0.52898244987E+02  0.51100000000E-03 0.  1.
         11    1    3    3    0    0 -0.24553896064E+02  0.13454701266E+02 -0.29367482490E+02  0.40575507713E+02  0.51100000000E-03 0. -1.
<mgrwt>
<rscale>  0 0.92177406E+02</rscale>
<asrwt>0</asrwt>
<pdfrwt beam="2">  1        2 0.59969435E-02 0.92177406E+02</pdfrwt>
<pdfrwt beam="1">  1       -2 0.83836338E-02 0.92177406E+02</pdfrwt>
<totfact> 0.91792046E+04</totfact>
</mgrwt>
</event>
<event>
 5    1  0.2799021E+000  0.9054509E+02  0.7818608E-02  0.1301537E+00
         -2   -1    0    0    0  501 -0.00000000000E+00  0.00000000000E+00  0.33908206317E+02  0.33908206416E+02  0.26000000000E-02 0.  1.
          2   -1    0    0  501    0  0.00000000000E+00 -0.00000000000E+00 -0.60445641418E+02  0.60445641474E+02  0.26000000000E-02 0. -1.
         23    2    1    2    0    0  0.00000000000E+00  0.00000000000E+00 -0.26537435102E+02  0.94353847890E+02  0.90545089044E+02 0.  0.
        -11    1    3    3    0    0  0.20996668764E+02 -0.36435125004E+02  0.42064587497E+01  0.42261953678E+02  0.51100000000E-03 0.  1.
         11    1    3    3    0    0 -0.20996668764E+02  0.36435125004E+02 -0.30743893851E+02  0.52091894212E+02  0.51100000000E-03 0. -1.
<mgrwt>
<rscale>  0 0.90545089E+02</rscale>
<asrwt>0</asrwt>
<pdfrwt beam="2">  1        2 0.92993294E-02 0.90545089E+02</pdfrwt>
<pdfrwt beam="1">  1       -2 0.52166472E-02 0.90545089E+02</pdfrwt>
<totfact> 0.10838185E+05</totfact>
</mgrwt>
</event>
<event>
 5    1  0.2799021E+000  0.9208277E+02  0.7818608E-02  0.1297885E+00
         -2   -1    0    0    0  501 -0.00000000000E+00  0.00000000000E+00  0.66696390486E+01  0.66696395554E+01  0.26000000000E-02 0.  1.
          2   -1    0    0  501    0  0.00000000000E+00 -0.00000000000E+00 -0.31782963351E+03  0.31782963352E+03  0.26000000000E-02 0. -1.
         23    2    1    2    0    0  0.00000000000E+00  0.00000000000E+00 -0.31115999446E+03  0.32449927308E+03  0.92082767517E+02 0.  0.
        -11    1    3    3    0    0 -0.23315388818E+02  0.39480839353E+02 -0.17030717370E+03  0.17637141902E+03  0.51100000000E-03 0. -1.
         11    1    3    3    0    0  0.23315388818E+02 -0.39480839353E+02 -0.14085282076E+03  0.14812785406E+03  0.51100000000E-03 0.  1.
<mgrwt>
<rscale>  0 0.92082768E+02</rscale>
<asrwt>0</asrwt>
<pdfrwt beam="2">  1        2 0.48896855E-01 0.92082768E+02</pdfrwt>
<pdfrwt beam="1">  1       -2 0.10260986E-02 0.92082768E+02</pdfrwt>
<totfact> 0.17877712E+05</totfact>
</mgrwt>
</event>
<event>
 5    1  0.2799021E+000  0.9386463E+02  0.7818608E-02  0.1293754E+00
         -2   -1    0    0    0  501 -0.00000000000E+00  0.00000000000E+00  0.18741193994E+02  0.18741194174E+02  0.26000000000E-02 0.  1.
          2   -1    0    0  501    0  0.00000000000E+00 -0.00000000000E+00 -0.11752944462E+03  0.11752944464E+03  0.26000000000E-02 0. -1.
         23    2    1    2    0    0  0.00000000000E+00  0.00000000000E+00 -0.98788250622E+02  0.13627063882E+03  0.93864628818E+02 0.  0.
        -11    1    3    3    0    0  0.30202696589E+02 -0.23515141048E+02 -0.99688548384E+01  0.39554302001E+02  0.51100000000E-03 0.  1.
         11    1    3    3    0    0 -0.30202696589E+02  0.23515141048E+02 -0.88819395783E+02  0.96716336817E+02  0.51100000000E-03 0. -1.
<mgrwt>
<rscale>  0 0.93864629E+02</rscale>
<asrwt>0</asrwt>
<pdfrwt beam="2">  1        2 0.18081453E-01 0.93864629E+02</pdfrwt>
<pdfrwt beam="1">  1       -2 0.28832607E-02 0.93864629E+02</pdfrwt>
<totfact> 0.11912001E+05</totfact>
</mgrwt>
</event>
<event>
 5    1  0.2799021E+000  0.6602871E+02  0.7818608E-02  0.1374143E+00
          2   -1    0    0  501    0  0.00000000000E+00  0.00000000000E+00  0.45115217866E+02  0.45115217941E+02  0.26000000000E-02 0. -1.
         -2   -1    0    0    0  501 -0.00000000000E+00 -0.00000000000E+00 -0.24159203091E+02  0.24159203230E+02  0.26000000000E-02 0.  1.
         23    2    1    2    0    0  0.00000000000E+00  0.00000000000E+00  0.20956014775E+02  0.69274421171E+02  0.66028712492E+02 0.  0.
        -11    1    3    3    0    0  0.27903959735E+02  0.16842769195E+02  0.15993602790E+02  0.36305718193E+02  0.51100000000E-03 0. -1.
         11    1    3    3    0    0 -0.27903959735E+02 -0.16842769195E+02  0.49624119850E+01  0.32968702978E+02  0.51100000000E-03 0.  1.
<mgrwt>
<rscale>  0 0.66028712E+02</rscale>
<asrwt>0</asrwt>
<pdfrwt beam="1">  1        2 0.69408027E-02 0.66028712E+02</pdfrwt>
<pdfrwt beam="2">  1       -2 0.37168005E-02 0.66028712E+02</pdfrwt>
<totfact> 0.24154153E+05</totfact>
</mgrwt>
</event>
<event>
 5    1  0.2799021E+000  0.8917941E+02  0.7818608E-02  0.1304851E+00
          2   -1    0    0  501    0  0.00000000000E+00  0.00000000000E+00  0.32094846775E+03  0.32094846776E+03  0.26000000000E-02 0. -1.
         -2   -1    0    0    0  501 -0.00000000000E+00 -0.00000000000E+00 -0.61948935074E+01  0.61948940530E+01  0.26000000000E-02 0.  1.
         23    2    1    2    0    0  0.00000000000E+00  0.00000000000E+00  0.31475357424E+03  0.32714336181E+03  0.89179407265E+02 0.  0.
        -11    1    3    3    0    0  0.40751772780E+02 -0.42395394183E+00  0.91005080361E+02  0.99713646877E+02  0.51100000000E-03 0. -1.
         11    1    3    3    0    0 -0.40751772780E+02  0.42395394183E+00  0.22374849388E+03  0.22742971494E+03  0.51100000000E-03 0.  1.
<mgrwt>
<rscale>  0 0.89179407E+02</rscale>
<asrwt>0</asrwt>
<pdfrwt beam="1">  1        2 0.49376704E-01 0.89179407E+02</pdfrwt>
<pdfrwt beam="2">  1       -2 0.95306026E-03 0.89179407E+02</pdfrwt>
<totfact> 0.19540348E+05</totfact>
</mgrwt>
</event>
<event>
 5    1  0.2799021E+000  0.9233964E+02  0.7818608E-02  0.1297283E+00
         -2   -1    0    0    0  501 -0.00000000000E+00  0.00000000000E+00  0.20381199515E+03  0.20381199517E+03  0.26000000000E-02 0.  1.
          2   -1    0    0  501    0  0.00000000000E+00 -0.00000000000E+00 -0.10458913741E+02  0.10458914064E+02  0.26000000000E-02 0. -1.
         23    2    1    2    0    0  0.00000000000E+00  0.00000000000E+00  0.19335308141E+03  0.21427090923E+03  0.92339636411E+02 0.  0.
        -11    1    3    3    0    0  0.26117796572E+02 -0.37711459866E+02  0.10881384013E+03  0.11808787112E+03  0.51100000000E-03 0.  1.
         11    1    3    3    0    0 -0.26117796572E+02  0.37711459866E+02  0.84539241286E+02  0.96183038112E+02  0.51100000000E-03 0. -1.
<mgrwt>
<rscale>  0 0.92339636E+02</rscale>
<asrwt>0</asrwt>
<pdfrwt beam="2">  1        2 0.16090637E-02 0.92339636E+02</pdfrwt>
<pdfrwt beam="1">  1       -2 0.31355691E-01 0.92339636E+02</pdfrwt>
<totfact> 0.59837711E+04</totfact>
</mgrwt>
</event>
<event>
 5    1  0.2799021E+000  0.9613398E+02  0.7818608E-02  0.1288642E+00
          2   -1    0    0  501    0  0.00000000000E+00  0.00000000000E+00  0.43463403004E+02  0.43463403082E+02  0.26000000000E-02 0. -1.
         -2   -1    0    0    0  501 -0.00000000000E+00 -0.00000000000E+00 -0.53158183274E+02  0.53158183338E+02  0.26000000000E-02 0.  1.
         23    2    1    2    0    0  0.00000000000E+00  0.00000000000E+00 -0.96947802701E+01  0.96621586420E+02  0.96133980454E+02 0.  0.
        -11    1    3    3    0    0  0.14495765392E+02  0.42032327109E+02  0.13509746090E+02  0.46468881804E+02  0.51100000000E-03 0. -1.
         11    1    3    3    0    0 -0.14495765392E+02 -0.42032327109E+02 -0.23204526360E+02  0.50152704616E+02  0.51100000000E-03 0.  1.
<mgrwt>
<rscale>  0 0.96133980E+02</rscale>
<asrwt>0</asrwt>
<pdfrwt beam="1">  1        2 0.66866775E-02 0.96133980E+02</pdfrwt>
<pdfrwt beam="2">  1       -2 0.81781820E-02 0.96133980E+02</pdfrwt>
<totfact> 0.83599500E+04</totfact>
</mgrwt>
</event>
<event>
 5    1  0.2799021E+000  0.1061952E+03  0.7818608E-02  0.1267783E+00
          2   -1    0    0  501    0  0.00000000000E+00  0.00000000000E+00  0.19017269252E+02  0.19017269430E+02  0.26000000000E-02 0. -1.
         -2   -1    0    0    0  501 -0.00000000000E+00 -0.00000000000E+00 -0.14825228297E+03  0.14825228299E+03  0.26000000000E-02 0.  1.
         23    2    1    2    0    0  0.00000000000E+00  0.00000000000E+00 -0.12923501372E+03  0.16726955242E+03  0.10619517125E+03 0.  0.
        -11    1    3    3    0    0  0.36160792933E+02 -0.23107646505E+02 -0.11387069269E+03  0.12168854066E+03  0.51100000000E-03 0.  1.
         11    1    3    3    0    0 -0.36160792933E+02  0.23107646505E+02 -0.15364321022E+02  0.45581011763E+02  0.51100000000E-03 0. -1.
<mgrwt>
<rscale>  0 0.10619517E+03</rscale>
<asrwt>0</asrwt>
<pdfrwt beam="1">  1        2 0.29257338E-02 0.10619517E+03</pdfrwt>
<pdfrwt beam="2">  1       -2 0.22808043E-01 0.10619517E+03</pdfrwt>
<totfact> 0.47686528E+04</totfact>
</mgrwt>
</event>
<event>
 5    1  0.2799021E+000  0.9086944E+02  0.7818608E-02  0.1300760E+00
         -2   -1    0    0    0  501 -0.00000000000E+00  0.00000000000E+00  0.21895986094E+02  0.21895986248E+02  0.26000000000E-02 0.  1.
          2   -1    0    0  501    0  0.00000000000E+00 -0.00000000000E+00 -0.94278186102E+02  0.94278186138E+02  0.26000000000E-02 0. -1.
         23    2    1    2    0    0  0.00000000000E+00  0.00000000000E+00 -0.72382200008E+02  0.11617417239E+03  0.90869441792E+02 0.  0.
        -11    1    3    3    0    0  0.41122564036E+02 -0.14812638551E+02 -0.52048002574E+02  0.67966713220E+02  0.51100000000E-03 0.  1.
         11    1    3    3    0    0 -0.41122564036E+02  0.14812638551E+02 -0.20334197434E+02  0.48207459166E+02  0.51100000000E-03 0. -1.
<mgrwt>
<rscale>  0 0.90869442E+02</rscale>
<asrwt>0</asrwt>
<pdfrwt beam="2">  1        2 0.14504336E-01 0.90869442E+02</pdfrwt>
<pdfrwt beam="1">  1       -2 0.33686133E-02 0.90869442E+02</pdfrwt>
<totfact> 0.12164051E+05</totfact>
</mgrwt>
</event>
<event>
 5    1  0.2799021E+000  0.9079999E+02  0.7818608E-02  0.1300926E+00
         -2   -1    0    0    0  501 -0.00000000000E+00  0.00000000000E+00  0.59246316405E+02  0.59246316462E+02  0.26000000000E-02 0. -1.
          2   -1    0    0  501    0  0.00000000000E+00 -0.00000000000E+00 -0.34789666960E+02  0.34789667057E+02  0.26000000000E-02 0.  1.
         23    2    1    2    0    0  0.00000000000E+00  0.00000000000E+00  0.24456649445E+02  0.94035983520E+02  0.90799991709E+02 0.  0.
        -11    1    3    3    0    0 -0.20618836979E+01 -0.33399994125E+02 -0.19546525691E+02  0.38754066093E+02  0.51100000000E-03 0.  1.
         11    1    3    3    0    0  0.20618836979E+01  0.33399994125E+02  0.44003175137E+02  0.55281917426E+02  0.51100000000E-03 0. -1.
<mgrwt>
<rscale>  0 0.90799992E+02</rscale>
<asrwt>0</asrwt>
<pdfrwt beam="2">  1        2 0.53522565E-02 0.90799992E+02</pdfrwt>
<pdfrwt beam="1">  1       -2 0.91148178E-02 0.90799992E+02</pdfrwt>
<totfact> 0.93114890E+04</totfact>
</mgrwt>
</event>
<event>
 5    1  0.2799021E+000  0.8913890E+02  0.7818608E-02  0.1304950E+00
          2   -1    0    0  501    0  0.00000000000E+00  0.00000000000E+00  0.31627226083E+03  0.31627226084E+03  0.26000000000E-02 0. -1.
         -2   -1    0    0    0  501 -0.00000000000E+00 -0.00000000000E+00 -0.62807772314E+01  0.62807777696E+01  0.26000000000E-02 0.  1.
         23    2    1    2    0    0  0.00000000000E+00  0.00000000000E+00  0.30999148360E+03  0.32255303861E+03  0.89138896185E+02 0.  0.
        -11    1    3    3    0    0  0.25267490786E+02 -0.33101612020E+02  0.97522038672E+02  0.10604108089E+03  0.51100000000E-03 0. -1.
         11    1    3    3    0    0 -0.25267490786E+02  0.33101612020E+02  0.21246944493E+03  0.21651195772E+03  0.51100000000E-03 0.  1.
<mgrwt>
<rscale>  0 0.89138896E+02</rscale>
<asrwt>0</asrwt>
<pdfrwt beam="1">  1        2 0.48657274E-01 0.89138896E+02</pdfrwt>
<pdfrwt beam="2">  1       -2 0.96627341E-03 0.89138896E+02</pdfrwt>
<totfact> 0.19458116E+05</totfact>
</mgrwt>
</event>
<event>
 5    1  0.2799021E+000  0.9006091E+02  0.7818608E-02  0.1302704E+00
         -2   -1    0    0    0  501 -0.00000000000E+00  0.00000000000E+00  0.13691870303E+02  0.13691870550E+02  0.26000000000E-02 0.  1.
          2   -1    0    0  501    0  0.00000000000E+00 -0.00000000000E+00 -0.14809825039E+03  0.14809825042E+03  0.26000000000E-02 0. -1.
         23    2    1    2    0    0  0.00000000000E+00  0.00000000000E+00 -0.13440638009E+03  0.16179012097E+03  0.90060914017E+02 0.  0.
        -11    1    3    3    0    0  0.23634080526E+02  0.10183887760E+02 -0.82043754033E+00  0.25747901860E+02  0.51100000000E-03 0.  1.
         11    1    3    3    0    0 -0.23634080526E+02 -0.10183887760E+02 -0.13358594255E+03  0.13604221911E+03  0.51100000000E-03 0. -1.
<mgrwt>
<rscale>  0 0.90060914E+02</rscale>
<asrwt>0</asrwt>
<pdfrwt beam="2">  1        2 0.22784345E-01 0.90060914E+02</pdfrwt>
<pdfrwt beam="1">  1       -2 0.21064417E-02 0.90060914E+02</pdfrwt>
<totfact> 0.14393149E+05</totfact>
</mgrwt>
</event>
<event>
 5    1  0.2799021E+000  0.9370823E+02  0.7818608E-02  0.1294112E+00
          2   -1    0    0  501    0  0.00000000000E+00  0.00000000000E+00  0.18807306206E+02  0.18807306385E+02  0.26000000000E-02 0. -1.
         -2   -1    0    0    0  501 -0.00000000000E+00 -0.00000000000E+00 -0.11672635304E+03  0.11672635307E+03  0.26000000000E-02 0.  1.
         23    2    1    2    0    0  0.00000000000E+00  0.00000000000E+00 -0.97919046839E+02  0.13553365946E+03  0.93708233963E+02 0.  0.
        -11    1    3    3    0    0 -0.28259540548E+02  0.37348607197E+02 -0.47025437376E+02  0.66369509959E+02  0.51100000000E-03 0.  1.
         11    1    3    3    0    0  0.28259540548E+02 -0.37348607197E+02 -0.50893609463E+02  0.69164149500E+02  0.51100000000E-03 0. -1.
<mgrwt>
<rscale>  0 0.93708234E+02</rscale>
<asrwt>0</asrwt>
<pdfrwt beam="1">  1        2 0.28934318E-02 0.93708234E+02</pdfrwt>
<pdfrwt beam="2">  1       -2 0.17957900E-01 0.93708234E+02</pdfrwt>
<totfact> 0.71038233E+04</totfact>
</mgrwt>
</event>
<event>
 5    1  0.2799021E+000  0.9089715E+02  0.7818608E-02  0.1300694E+00
          2   -1    0    0  501    0  0.00000000000E+00  0.00000000000E+00  0.17200481819E+03  0.17200481821E+03  0.26000000000E-02 0. -1.
         -2   -1    0    0    0  501 -0.00000000000E+00 -0.00000000000E+00 -0.12008807338E+02  0.12008807619E+02  0.26000000000E-02 0.  1.
         23    2    1    2    0    0  0.00000000000E+00  0.00000000000E+00  0.15999601085E+03  0.18401362582E+03  0.90897145180E+02 0.  0.
        -11    1    3    3    0    0 -0.17675424301E+02  0.41835229729E+02  0.83484282068E+02  0.95038057763E+02  0.51100000000E-03 0. -1.
         11    1    3    3    0    0  0.17675424301E+02 -0.41835229729E+02  0.76511728779E+02  0.88975568061E+02  0.51100000000E-03 0.  1.
<mgrwt>
<rscale>  0 0.90897145E+02</rscale>
<asrwt>0</asrwt>
<pdfrwt beam="1">  1        2 0.26462279E-01 0.90897145E+02</pdfrwt>
<pdfrwt beam="2">  1       -2 0.18475089E-02 0.90897145E+02</pdfrwt>
<totfact> 0.14780102E+05</totfact>
</mgrwt>
</event>
<event>
 5    1  0.2799021E+000  0.8777013E+02  0.7818608E-02  0.1308343E+00
         -2   -1    0    0    0  501 -0.00000000000E+00  0.00000000000E+00  0.16261646086E+02  0.16261646294E+02  0.26000000000E-02 0.  1.
          2   -1    0    0  501    0  0.00000000000E+00 -0.00000000000E+00 -0.11843198185E+03  0.11843198187E+03  0.26000000000E-02 0. -1.
         23    2    1    2    0    0  0.00000000000E+00  0.00000000000E+00 -0.10217033576E+03  0.13469362817E+03  0.87770131366E+02 0.  0.
        -11    1    3    3    0    0  0.49772356882E+01 -0.40346903428E+02 -0.76452989108E+02  0.86589289379E+02  0.51100000000E-03 0. -1.
         11    1    3    3    0    0 -0.49772356882E+01  0.40346903428E+02 -0.25717346651E+02  0.48104338789E+02  0.51100000000E-03 0.  1.
<mgrwt>
<rscale>  0 0.87770131E+02</rscale>
<asrwt>0</asrwt>
<pdfrwt beam="2">  1        2 0.18220304E-01 0.87770131E+02</pdfrwt>
<pdfrwt beam="1">  1       -2 0.25017918E-02 0.87770131E+02</pdfrwt>
<totfact> 0.14346455E+05</totfact>
</mgrwt>
</event>
<event>
 5    1  0.2799021E+000  0.9140806E+02  0.7818608E-02  0.1299477E+00
          2   -1    0    0  501    0  0.00000000000E+00  0.00000000000E+00  0.14908759065E+02  0.14908759292E+02  0.26000000000E-02 0.  1.
         -2   -1    0    0    0  501 -0.00000000000E+00 -0.00000000000E+00 -0.14010946226E+03  0.14010946228E+03  0.26000000000E-02 0. -1.
         23    2    1    2    0    0  0.00000000000E+00  0.00000000000E+00 -0.12520070319E+03  0.15501822157E+03  0.91408057304E+02 0.  0.
        -11    1    3    3    0    0  0.36677178044E+02 -0.14792105121E+02 -0.23748629394E+02  0.46130458067E+02  0.51100000000E-03 0.  1.
         11    1    3    3    0    0 -0.36677178044E+02  0.14792105121E+02 -0.10145207380E+03  0.10888776351E+03  0.51100000000E-03 0. -1.
<mgrwt>
<rscale>  0 0.91408057E+02</rscale>
<asrwt>0</asrwt>
<pdfrwt beam="1">  1        2 0.22936553E-02 0.91408057E+02</pdfrwt>
<pdfrwt beam="2">  1       -2 0.21555301E-01 0.91408057E+02</pdfrwt>
<totfact> 0.71123329E+04</totfact>
</mgrwt>
</event>
<event>
 5    1  0.2799021E+000  0.8954530E+02  0.7818608E-02  0.1303957E+00
         -2   -1    0    0    0  501 -0.00000000000E+00  0.00000000000E+00  0.84978005231E+01  0.84978009208E+01  0.26000000000E-02 0.  1.
          2   -1    0    0  501    0  0.00000000000E+00 -0.00000000000E+00 -0.23589517554E+03  0.23589517556E+03  0.26000000000E-02 0. -1.
         23    2    1    2    0    0  0.00000000000E+00  0.00000000000E+00 -0.22739737502E+03  0.24439297648E+03  0.89545300189E+02 0.  0.
        -11    1    3    3    0    0 -0.43132786888E+02 -0.46378099750E+01 -0.14392383209E+03  0.15031971271E+03  0.51100000000E-03 0. -1.
         11    1    3    3    0    0  0.43132786888E+02  0.46378099750E+01 -0.83473542935E+02  0.94073263771E+02  0.51100000000E-03 0.  1.
<mgrwt>
<rscale>  0 0.89545300E+02</rscale>
<asrwt>0</asrwt>
<pdfrwt beam="2">  1        2 0.36291560E-01 0.89545300E+02</pdfrwt>
<pdfrwt beam="1">  1       -2 0.13073541E-02 0.89545300E+02</pdfrwt>
<totfact> 0.17243520E+05</totfact>
</mgrwt>
</event>
<event>
 5    1  0.2799021E+000  0.9176337E+02  0.7818608E-02  0.1298637E+00
          2   -1    0    0  501    0  0.00000000000E+00  0.00000000000E+00  0.27436613437E+02  0.27436613560E+02  0.26000000000E-02 0. -1.
         -2   -1    0    0    0  501 -0.00000000000E+00 -0.00000000000E+00 -0.76726997453E+02  0.76726997497E+02  0.26000000000E-02 0.  1.
         23    2    1    2    0    0  0.00000000000E+00  0.00000000000E+00 -0.49290384016E+02  0.10416361106E+03  0.91763369119E+02 0.  0.
        -11    1    3    3    0    0  0.17131158742E+02 -0.10302789917E+02  0.22233249211E+02  0.29898853668E+02  0.51100000000E-03 0. -1.
         11    1    3    3    0    0 -0.17131158742E+02  0.10302789917E+02 -0.71523633227E+02  0.74264757390E+02  0.51100000000E-03 0.  1.
<mgrwt>
<rscale>  0 0.91763369E+02</rscale>
<asrwt>0</asrwt>
<pdfrwt beam="1">  1        2 0.42210175E-02 0.91763369E+02</pdfrwt>
<pdfrwt beam="2">  1       -2 0.11804153E-01 0.91763369E+02</pdfrwt>
<totfact> 0.84717584E+04</totfact>
</mgrwt>
</event>
<event>
 5    1  0.2799021E+000  0.9111571E+02  0.7818608E-02  0.1300172E+00
          2   -1    0    0  501    0  0.00000000000E+00  0.00000000000E+00  0.28460143192E+02  0.28460143311E+02  0.26000000000E-02 0. -1.
         -2   -1    0    0    0  501 -0.00000000000E+00 -0.00000000000E+00 -0.72927189208E+02  0.72927189254E+02  0.26000000000E-02 0.  1.
         23    2    1    2    0    0  0.00000000000E+00  0.00000000000E+00 -0.44467046016E+02  0.10138733256E+03  0.91115712274E+02 0.  0.
        -11    1    3    3    0    0  0.32626487598E+02  0.15203259587E+02  0.88412171044E+01  0.37064726024E+02  0.51100000000E-03 0. -1.
         11    1    3    3    0    0 -0.32626487598E+02 -0.15203259587E+02 -0.53308263120E+02  0.64322606541E+02  0.51100000000E-03 0.  1.
<mgrwt>
<rscale>  0 0.91115712E+02</rscale>
<asrwt>0</asrwt>
<pdfrwt beam="1">  1        2 0.43784836E-02 0.91115712E+02</pdfrwt>
<pdfrwt beam="2">  1       -2 0.11219567E-01 0.91115712E+02</pdfrwt>
<totfact> 0.87398404E+04</totfact>
</mgrwt>
</event>
<event>
 5    1  0.2799021E+000  0.9291527E+02  0.7818608E-02  0.1295942E+00
         -2   -1    0    0    0  501 -0.00000000000E+00  0.00000000000E+00  0.13090346006E+02  0.13090346264E+02  0.26000000000E-02 0.  1.
          2   -1    0    0  501    0  0.00000000000E+00 -0.00000000000E+00 -0.16487813173E+03  0.16487813176E+03  0.26000000000E-02 0. -1.
         23    2    1    2    0    0  0.00000000000E+00  0.00000000000E+00 -0.15178778573E+03  0.17796847802E+03  0.92915269315E+02 0.  0.
        -11    1    3    3    0    0 -0.34560576419E+02  0.26405810129E+02 -0.10716876119E+03  0.11565830548E+03  0.51100000000E-03 0. -1.
         11    1    3    3    0    0  0.34560576419E+02 -0.26405810129E+02 -0.44619024543E+02  0.62310172543E+02  0.51100000000E-03 0.  1.
<mgrwt>
<rscale>  0 0.92915269E+02</rscale>
<asrwt>0</asrwt>
<pdfrwt beam="2">  1        2 0.25365865E-01 0.92915269E+02</pdfrwt>
<pdfrwt beam="1">  1       -2 0.20138995E-02 0.92915269E+02</pdfrwt>
<totfact> 0.13721947E+05</totfact>
</mgrwt>
</event>
<event>
 5    1  0.2799021E+000  0.9156184E+02  0.7818608E-02  0.1299113E+00
         -2   -1    0    0    0  501 -0.00000000000E+00  0.00000000000E+00  0.13381650163E+02  0.13381650415E+02  0.26000000000E-02 0.  1.
          2   -1    0    0  501    0  0.00000000000E+00 -0.00000000000E+00 -0.15662436439E+03  0.15662436442E+03  0.26000000000E-02 0. -1.
         23    2    1    2    0    0  0.00000000000E+00  0.00000000000E+00 -0.14324271423E+03  0.17000601483E+03  0.91561836473E+02 0.  0.
        -11    1    3    3    0    0  0.49574304024E+01  0.29410818580E+02 -0.71330352325E+01  0.30666798947E+02  0.51100000000E-03 0.  1.
         11    1    3    3    0    0 -0.49574304024E+01 -0.29410818580E+02 -0.13610967900E+03  0.13933921588E+03  0.51100000000E-03 0. -1.
<mgrwt>
<rscale>  0 0.91561836E+02</rscale>
<asrwt>0</asrwt>
<pdfrwt beam="2">  1        2 0.24096055E-01 0.91561836E+02</pdfrwt>
<pdfrwt beam="1">  1       -2 0.20587155E-02 0.91561836E+02</pdfrwt>
<totfact> 0.14027737E+05</totfact>
</mgrwt>
</event>
<event>
 5    1  0.2799021E+000  0.9973174E+02  0.7818608E-02  0.1280861E+00
         -2   -1    0    0    0  501 -0.00000000000E+00  0.00000000000E+00  0.52128377947E+01  0.52128384431E+01  0.26000000000E-02 0.  1.
          2   -1    0    0  501    0  0.00000000000E+00 -0.00000000000E+00 -0.47701560475E+03  0.47701560475E+03  0.26000000000E-02 0. -1.
         23    2    1    2    0    0  0.00000000000E+00  0.00000000000E+00 -0.47180276695E+03  0.48222844320E+03  0.99731742813E+02 0.  0.
        -11    1    3    3    0    0  0.47810738469E+02  0.14040762403E+02 -0.22673298313E+03  0.23214404012E+03  0.51100000000E-03 0.  1.
         11    1    3    3    0    0 -0.47810738469E+02 -0.14040762403E+02 -0.24506978382E+03  0.25008440308E+03  0.51100000000E-03 0. -1.
<mgrwt>
<rscale>  0 0.99731743E+02</rscale>
<asrwt>0</asrwt>
<pdfrwt beam="2">  1        2 0.73386981E-01 0.99731743E+02</pdfrwt>
<pdfrwt beam="1">  1       -2 0.80197548E-03 0.99731743E+02</pdfrwt>
<totfact> 0.16712769E+05</totfact>
</mgrwt>
</event>
<event>
 5    1  0.2799021E+000  0.8643839E+02  0.7818608E-02  0.1311713E+00
          2   -1    0    0  501    0  0.00000000000E+00  0.00000000000E+00  0.43924746860E+02  0.43924746937E+02  0.26000000000E-02 0. -1.
         -2   -1    0    0    0  501 -0.00000000000E+00 -0.00000000000E+00 -0.42524979039E+02  0.42524979118E+02  0.26000000000E-02 0.  1.
         23    2    1    2    0    0  0.00000000000E+00  0.00000000000E+00  0.13997678214E+01  0.86449726055E+02  0.86438393004E+02 0.  0.
        -11    1    3    3    0    0 -0.42259388028E+02 -0.67421109322E+01  0.67493966424E+01  0.43322814908E+02  0.51100000000E-03 0. -1.
         11    1    3    3    0    0  0.42259388028E+02  0.67421109322E+01 -0.53496288211E+01  0.43126911147E+02  0.51100000000E-03 0.  1.
<mgrwt>
<rscale>  0 0.86438393E+02</rscale>
<asrwt>0</asrwt>
<pdfrwt beam="1">  1        2 0.67576534E-02 0.86438393E+02</pdfrwt>
<pdfrwt beam="2">  1       -2 0.65423045E-02 0.86438393E+02</pdfrwt>
<totfact> 0.11383809E+05</totfact>
</mgrwt>
</event>
<event>
 5    1  0.2799021E+000  0.9530471E+02  0.7818608E-02  0.1290491E+00
          2   -1    0    0  501    0  0.00000000000E+00  0.00000000000E+00  0.53584143270E+02  0.53584143333E+02  0.26000000000E-02 0. -1.
         -2   -1    0    0    0  501 -0.00000000000E+00 -0.00000000000E+00 -0.42377215899E+02  0.42377215978E+02  0.26000000000E-02 0.  1.
         23    2    1    2    0    0  0.00000000000E+00  0.00000000000E+00  0.11206927371E+02  0.95961359311E+02  0.95304707438E+02 0.  0.
        -11    1    3    3    0    0  0.22358887624E+02 -0.23827486675E+02 -0.29320932156E+02  0.43902004963E+02  0.51100000000E-03 0.  1.
         11    1    3    3    0    0 -0.22358887624E+02  0.23827486675E+02  0.40527859527E+02  0.52059354348E+02  0.51100000000E-03 0. -1.
<mgrwt>
<rscale>  0 0.95304707E+02</rscale>
<asrwt>0</asrwt>
<pdfrwt beam="1">  1        2 0.82437143E-02 0.95304707E+02</pdfrwt>
<pdfrwt beam="2">  1       -2 0.65195717E-02 0.95304707E+02</pdfrwt>
<totfact> 0.90709889E+04</totfact>
</mgrwt>
</event>
<event>
 5    1  0.2799021E+000  0.9369156E+02  0.7818608E-02  0.1294151E+00
          2   -1    0    0  501    0  0.00000000000E+00  0.00000000000E+00  0.74288529312E+02  0.74288529358E+02  0.26000000000E-02 0. -1.
         -2   -1    0    0    0  501 -0.00000000000E+00 -0.00000000000E+00 -0.29540589482E+02  0.29540589596E+02  0.26000000000E-02 0.  1.
         23    2    1    2    0    0  0.00000000000E+00  0.00000000000E+00  0.44747939830E+02  0.10382911895E+03  0.93691556843E+02 0.  0.
        -11    1    3    3    0    0  0.76815539498E+01 -0.42232056096E+02  0.43164907790E+02  0.60874971030E+02  0.51100000000E-03 0. -1.
         11    1    3    3    0    0 -0.76815539498E+01  0.42232056096E+02  0.15830320406E+01  0.42954147924E+02  0.51100000000E-03 0.  1.
<mgrwt>
<rscale>  0 0.93691557E+02</rscale>
<asrwt>0</asrwt>
<pdfrwt beam="1">  1        2 0.11429005E-01 0.93691557E+02</pdfrwt>
<pdfrwt beam="2">  1       -2 0.45447061E-02 0.93691557E+02</pdfrwt>
<totfact> 0.10422505E+05</totfact>
</mgrwt>
</event>
<event>
 5    1  0.2799021E+000  0.9030419E+02  0.7818608E-02  0.1302117E+00
         -2   -1    0    0    0  501 -0.00000000000E+00  0.00000000000E+00  0.13495913797E+02  0.13495914048E+02  0.26000000000E-02 0.  1.
          2   -1    0    0  501    0  0.00000000000E+00 -0.00000000000E+00 -0.15106140700E+03  0.15106140702E+03  0.26000000000E-02 0. -1.
         23    2    1    2    0    0  0.00000000000E+00  0.00000000000E+00 -0.13756549320E+03  0.16455732107E+03  0.90304191473E+02 0.  0.
        -11    1    3    3    0    0 -0.14510328051E+02 -0.30561354416E+02 -0.14292557608E+02  0.36726328528E+02  0.51100000000E-03 0.  1.
         11    1    3    3    0    0  0.14510328051E+02  0.30561354416E+02 -0.12327293559E+03  0.12783099254E+03  0.51100000000E-03 0. -1.
<mgrwt>
<rscale>  0 0.90304191E+02</rscale>
<asrwt>0</asrwt>
<pdfrwt beam="2">  1        2 0.23240215E-01 0.90304191E+02</pdfrwt>
<pdfrwt beam="1">  1       -2 0.20762946E-02 0.90304191E+02</pdfrwt>
<totfact> 0.14384665E+05</totfact>
</mgrwt>
</event>
<event>
 5    1  0.2799021E+000  0.1000235E+03  0.7818608E-02  0.1280247E+00
         -2   -1    0    0    0  501 -0.00000000000E+00  0.00000000000E+00  0.22135466591E+02  0.22135466744E+02  0.26000000000E-02 0.  1.
          2   -1    0    0  501    0  0.00000000000E+00 -0.00000000000E+00 -0.11299400693E+03  0.11299400696E+03  0.26000000000E-02 0. -1.
         23    2    1    2    0    0  0.00000000000E+00  0.00000000000E+00 -0.90858540336E+02  0.13512947370E+03  0.10002349879E+03 0.  0.
        -11    1    3    3    0    0  0.19850597049E+02 -0.45894890539E+02 -0.46628445368E+02  0.68371039911E+02  0.51100000000E-03 0.  1.
         11    1    3    3    0    0 -0.19850597049E+02  0.45894890539E+02 -0.44230094968E+02  0.66758433789E+02  0.51100000000E-03 0. -1.
<mgrwt>
<rscale>  0 0.10002350E+03</rscale>
<asrwt>0</asrwt>
<pdfrwt beam="2">  1        2 0.17383693E-01 0.10002350E+03</pdfrwt>
<pdfrwt beam="1">  1       -2 0.34054565E-02 0.10002350E+03</pdfrwt>
<totfact> 0.98669678E+04</totfact>
</mgrwt>
</event>
<event>
 5    1  0.2799021E+000  0.9250250E+02  0.7818608E-02  0.1296902E+00
         -2   -1    0    0    0  501 -0.00000000000E+00  0.00000000000E+00  0.38347313307E+02  0.38347313395E+02  0.26000000000E-02 0.  1.
          2   -1    0    0  501    0  0.00000000000E+00 -0.00000000000E+00 -0.55784299785E+02  0.55784299845E+02  0.26000000000E-02 0. -1.
         23    2    1    2    0    0  0.00000000000E+00  0.00000000000E+00 -0.17436986478E+02  0.94131613240E+02  0.92502497879E+02 0.  0.
        -11    1    3    3    0    0  0.33647175202E+02  0.25912089914E+02  0.99237850440E+01  0.43612501794E+02  0.51100000000E-03 0.  1.
         11    1    3    3    0    0 -0.33647175202E+02 -0.25912089914E+02 -0.27360771522E+02  0.50519111447E+02  0.51100000000E-03 0. -1.
<mgrwt>
<rscale>  0 0.92502498E+02</rscale>
<asrwt>0</asrwt>
<pdfrwt beam="2">  1        2 0.85822000E-02 0.92502498E+02</pdfrwt>
<pdfrwt beam="1">  1       -2 0.58995867E-02 0.92502498E+02</pdfrwt>
<totfact> 0.99852597E+04</totfact>
</mgrwt>
</event>
<event>
 5    1  0.2799021E+000  0.9106921E+02  0.7818608E-02  0.1300283E+00
         -2   -1    0    0    0  501 -0.00000000000E+00  0.00000000000E+00  0.64853104796E+01  0.64853110008E+01  0.26000000000E-02 0.  1.
          2   -1    0    0  501    0  0.00000000000E+00 -0.00000000000E+00 -0.31970717180E+03  0.31970717181E+03  0.26000000000E-02 0. -1.
         23    2    1    2    0    0  0.00000000000E+00  0.00000000000E+00 -0.31322186132E+03  0.32619248281E+03  0.91069212326E+02 0.  0.
        -11    1    3    3    0    0 -0.36476673288E+02 -0.16705926959E+02 -0.23374587983E+03  0.23716401925E+03  0.51100000000E-03 0.  1.
         11    1    3    3    0    0  0.36476673288E+02  0.16705926959E+02 -0.79475981492E+02  0.89028463561E+02  0.51100000000E-03 0. -1.
<mgrwt>
<rscale>  0 0.91069212E+02</rscale>
<asrwt>0</asrwt>
<pdfrwt beam="2">  1        2 0.49185707E-01 0.91069212E+02</pdfrwt>
<pdfrwt beam="1">  1       -2 0.99774036E-03 0.91069212E+02</pdfrwt>
<totfact> 0.18453793E+05</totfact>
</mgrwt>
</event>
<event>
 5    1  0.2799021E+000  0.9130223E+02  0.7818608E-02  0.1299728E+00
          2   -1    0    0  501    0  0.00000000000E+00  0.00000000000E+00  0.14972812143E+03  0.14972812145E+03  0.26000000000E-02 0.  1.
         -2   -1    0    0    0  501 -0.00000000000E+00 -0.00000000000E+00 -0.13918723968E+02  0.13918724210E+02  0.26000000000E-02 0. -1.
         23    2    1    2    0    0  0.00000000000E+00  0.00000000000E+00  0.13580939746E+03  0.16364684566E+03  0.91302232483E+02 0.  0.
        -11    1    3    3    0    0  0.31930773201E+02  0.48852328064E+01  0.12572294926E+03  0.12980639333E+03  0.51100000000E-03 0.  1.
         11    1    3    3    0    0 -0.31930773201E+02 -0.48852328064E+01  0.10086448199E+02  0.33840452337E+02  0.51100000000E-03 0. -1.
<mgrwt>
<rscale>  0 0.91302232E+02</rscale>
<asrwt>0</asrwt>
<pdfrwt beam="1">  1        2 0.23035096E-01 0.91302232E+02</pdfrwt>
<pdfrwt beam="2">  1       -2 0.21413422E-02 0.91302232E+02</pdfrwt>
<totfact> 0.13920268E+05</totfact>
</mgrwt>
</event>
<event>
 5    1  0.2799021E+000  0.8914183E+02  0.7818608E-02  0.1304943E+00
          2   -1    0    0  501    0  0.00000000000E+00  0.00000000000E+00  0.66960654553E+01  0.66960659600E+01  0.26000000000E-02 0.  1.
         -2   -1    0    0    0  501 -0.00000000000E+00 -0.00000000000E+00 -0.29667668010E+03  0.29667668011E+03  0.26000000000E-02 0. -1.
         23    2    1    2    0    0  0.00000000000E+00  0.00000000000E+00 -0.28998061464E+03  0.30337274607E+03  0.89141831870E+02 0.  0.
        -11    1    3    3    0    0 -0.26258656332E+02 -0.31799196113E+02 -0.87449998306E+02  0.96686131942E+02  0.51100000000E-03 0.  1.
         11    1    3    3    0    0  0.26258656332E+02  0.31799196113E+02 -0.20253061634E+03  0.20668661413E+03  0.51100000000E-03 0. -1.
<mgrwt>
<rscale>  0 0.89141832E+02</rscale>
<asrwt>0</asrwt>
<pdfrwt beam="1">  1        2 0.10301642E-02 0.89141832E+02</pdfrwt>
<pdfrwt beam="2">  1       -2 0.45642556E-01 0.89141832E+02</pdfrwt>
<totfact> 0.54387852E+04</totfact>
</mgrwt>
</event>
<event>
 5    1  0.2799021E+000  0.9037836E+02  0.7818608E-02  0.1301938E+00
         -2   -1    0    0    0  501 -0.00000000000E+00  0.00000000000E+00  0.85584536266E+02  0.85584536306E+02  0.26000000000E-02 0.  1.
          2   -1    0    0  501    0  0.00000000000E+00 -0.00000000000E+00 -0.23860176126E+02  0.23860176268E+02  0.26000000000E-02 0. -1.
         23    2    1    2    0    0  0.00000000000E+00  0.00000000000E+00  0.61724360140E+02  0.10944471257E+03  0.90378362873E+02 0.  0.
        -11    1    3    3    0    0  0.34859080104E+02  0.13510969847E+02  0.12282736395E+00  0.37386051660E+02  0.51100000000E-03 0.  1.
         11    1    3    3    0    0 -0.34859080104E+02 -0.13510969847E+02  0.61601532776E+02  0.72058660913E+02  0.51100000000E-03 0. -1.
<mgrwt>
<rscale>  0 0.90378363E+02</rscale>
<asrwt>0</asrwt>
<pdfrwt beam="2">  1        2 0.36707963E-02 0.90378363E+02</pdfrwt>
<pdfrwt beam="1">  1       -2 0.13166852E-01 0.90378363E+02</pdfrwt>
<totfact> 0.85322051E+04</totfact>
</mgrwt>
</event>
<event>
 5    1  0.2799021E+000  0.9067748E+02  0.7818608E-02  0.1301219E+00
          2   -1    0    0  501    0  0.00000000000E+00  0.00000000000E+00  0.32024926831E+03  0.32024926832E+03  0.26000000000E-02 0. -1.
         -2   -1    0    0    0  501 -0.00000000000E+00 -0.00000000000E+00 -0.64187542388E+01  0.64187547654E+01  0.26000000000E-02 0.  1.
         23    2    1    2    0    0  0.00000000000E+00  0.00000000000E+00  0.31383051407E+03  0.32666802309E+03  0.90677482016E+02 0.  0.
        -11    1    3    3    0    0  0.38403951428E+02 -0.23333232924E+02  0.17861975120E+03  0.18418555525E+03  0.51100000000E-03 0.  1.
         11    1    3    3    0    0 -0.38403951428E+02  0.23333232924E+02  0.13521076287E+03  0.14248246784E+03  0.51100000000E-03 0. -1.
<mgrwt>
<rscale>  0 0.90677482E+02</rscale>
<asrwt>0</asrwt>
<pdfrwt beam="1">  1        2 0.49269132E-01 0.90677482E+02</pdfrwt>
<pdfrwt beam="2">  1       -2 0.98750041E-03 0.90677482E+02</pdfrwt>
<totfact> 0.18678539E+05</totfact>
</mgrwt>
</event>
<event>
 5    1  0.2799021E+000  0.1002752E+03  0.7818608E-02  0.1279718E+00
         -2   -1    0    0    0  501 -0.00000000000E+00  0.00000000000E+00  0.18230365885E+02  0.18230366070E+02  0.26000000000E-02 0.  1.
          2   -1    0    0  501    0  0.00000000000E+00 -0.00000000000E+00 -0.13788955009E+03  0.13788955012E+03  0.26000000000E-02 0. -1.
         23    2    1    2    0    0  0.00000000000E+00  0.00000000000E+00 -0.11965918421E+03  0.15611991619E+03  0.10027516076E+03 0.  0.
        -11    1    3    3    0    0  0.24801099253E+02  0.20646119758E+02 -0.87445512558E-01  0.32270178682E+02  0.51100000000E-03 0.  1.
         11    1    3    3    0    0 -0.24801099253E+02 -0.20646119758E+02 -0.11957173870E+03  0.12384973751E+03  0.51100000000E-03 0. -1.
<mgrwt>
<rscale>  0 0.10027516E+03</rscale>
<asrwt>0</asrwt>
<pdfrwt beam="2">  1        2 0.21213776E-01 0.10027516E+03</pdfrwt>
<pdfrwt beam="1">  1       -2 0.28046718E-02 0.10027516E+03</pdfrwt>
<totfact> 0.10471892E+05</totfact>
</mgrwt>
</event>
<event>
 5    1  0.2799021E+000  0.9256676E+02  0.7818608E-02  0.1296752E+00
          2   -1    0    0  501    0  0.00000000000E+00  0.00000000000E+00  0.42598282778E+02  0.42598282858E+02  0.26000000000E-02 0. -1.
         -2   -1    0    0    0  501 -0.00000000000E+00 -0.00000000000E+00 -0.50287271249E+02  0.50287271316E+02  0.26000000000E-02 0.  1.
         23    2    1    2    0    0  0.00000000000E+00  0.00000000000E+00 -0.76889884705E+01  0.92885554173E+02  0.92566763098E+02 0.  0.
        -11    1    3    3    0    0  0.27347551673E+02 -0.37119752267E+02  0.21751020587E+00  0.46106527757E+02  0.51100000000E-03 0. -1.
         11    1    3    3    0    0 -0.27347551673E+02  0.37119752267E+02 -0.79064986764E+01  0.46779026416E+02  0.51100000000E-03 0.  1.
<mgrwt>
<rscale>  0 0.92566763E+02</rscale>
<asrwt>0</asrwt>
<pdfrwt beam="1">  1        2 0.65535819E-02 0.92566763E+02</pdfrwt>
<pdfrwt beam="2">  1       -2 0.77365033E-02 0.92566763E+02</pdfrwt>
<totfact> 0.92806019E+04</totfact>
</mgrwt>
</event>
<event>
 5    1  0.2799021E+000  0.8558859E+02  0.7818608E-02  0.1313900E+00
         -2   -1    0    0    0  501 -0.00000000000E+00  0.00000000000E+00  0.19847499956E+02  0.19847500126E+02  0.26000000000E-02 0.  1.
          2   -1    0    0  501    0  0.00000000000E+00 -0.00000000000E+00 -0.92271148903E+02  0.92271148940E+02  0.26000000000E-02 0. -1.
         23    2    1    2    0    0  0.00000000000E+00  0.00000000000E+00 -0.72423648948E+02  0.11211864907E+03  0.85588588851E+02 0.  0.
        -11    1    3    3    0    0  0.90393678976E+01  0.27274955757E+02 -0.77755044532E+02  0.82894392657E+02  0.51100000000E-03 0. -1.
         11    1    3    3    0    0 -0.90393678976E+01 -0.27274955757E+02  0.53313955842E+01  0.29224256409E+02  0.51100000000E-03 0.  1.
<mgrwt>
<rscale>  0 0.85588589E+02</rscale>
<asrwt>0</asrwt>
<pdfrwt beam="2">  1        2 0.14195561E-01 0.85588589E+02</pdfrwt>
<pdfrwt beam="1">  1       -2 0.30534616E-02 0.85588589E+02</pdfrwt>
<totfact> 0.14246036E+05</totfact>
</mgrwt>
</event>
<event>
 5    1  0.2799021E+000  0.9102363E+02  0.7818608E-02  0.1300392E+00
         -2   -1    0    0    0  501 -0.00000000000E+00  0.00000000000E+00  0.20091383048E+02  0.20091383216E+02  0.26000000000E-02 0.  1.
          2   -1    0    0  501    0  0.00000000000E+00 -0.00000000000E+00 -0.10309521456E+03  0.10309521459E+03  0.26000000000E-02 0. -1.
         23    2    1    2    0    0  0.00000000000E+00  0.00000000000E+00 -0.83003831513E+02  0.12318659781E+03  0.91023633382E+02 0.  0.
        -11    1    3    3    0    0  0.44573318544E+02 -0.23389564307E+01 -0.53536364160E+02  0.69702178811E+02  0.51100000000E-03 0. -1.
         11    1    3    3    0    0 -0.44573318544E+02  0.23389564307E+01 -0.29467467353E+02  0.53484418999E+02  0.51100000000E-03 0.  1.
<mgrwt>
<rscale>  0 0.91023633E+02</rscale>
<asrwt>0</asrwt>
<pdfrwt beam="2">  1        2 0.15860802E-01 0.91023633E+02</pdfrwt>
<pdfrwt beam="1">  1       -2 0.30909821E-02 0.91023633E+02</pdfrwt>
<totfact> 0.12439947E+05</totfact>
</mgrwt>
</event>
<event>
 5    1  0.2799021E+000  0.9007073E+02  0.7818608E-02  0.1302681E+00
          2   -1    0    0  501    0  0.00000000000E+00  0.00000000000E+00  0.27559356982E+02  0.27559357104E+02  0.26000000000E-02 0. -1.
         -2   -1    0    0    0  501 -0.00000000000E+00 -0.00000000000E+00 -0.73593304018E+02  0.73593304064E+02  0.26000000000E-02 0.  1.
         23    2    1    2    0    0  0.00000000000E+00  0.00000000000E+00 -0.46033947036E+02  0.10115266117E+03  0.90070730994E+02 0.  0.
        -11    1    3    3    0    0  0.41596100807E+02  0.12919915329E+02 -0.35871900095E+02  0.56426527726E+02  0.51100000000E-03 0. -1.
         11    1    3    3    0    0 -0.41596100807E+02 -0.12919915329E+02 -0.10162046941E+02  0.44726133443E+02  0.51100000000E-03 0.  1.
<mgrwt>
<rscale>  0 0.90070731E+02</rscale>
<asrwt>0</asrwt>
<pdfrwt beam="1">  1        2 0.42399011E-02 0.90070731E+02</pdfrwt>
<pdfrwt beam="2">  1       -2 0.11322047E-01 0.90070731E+02</pdfrwt>
<totfact> 0.89675225E+04</totfact>
</mgrwt>
</event>
<event>
 5    1  0.2799021E+000  0.9285190E+02  0.7818608E-02  0.1296089E+00
         -2   -1    0    0    0  501 -0.00000000000E+00  0.00000000000E+00  0.25192496525E+02  0.25192496660E+02  0.26000000000E-02 0. -1.
          2   -1    0    0  501    0  0.00000000000E+00 -0.00000000000E+00 -0.85555981332E+02  0.85555981371E+02  0.26000000000E-02 0.  1.
         23    2    1    2    0    0  0.00000000000E+00  0.00000000000E+00 -0.60363484806E+02  0.11074847803E+03  0.92851898678E+02 0.  0.
        -11    1    3    3    0    0 -0.18419755281E+02 -0.39850718363E+02 -0.12171649351E+02  0.45557833430E+02  0.51100000000E-03 0.  1.
         11    1    3    3    0    0  0.18419755281E+02  0.39850718363E+02 -0.48191835456E+02  0.65190644601E+02  0.51100000000E-03 0. -1.
<mgrwt>
<rscale>  0 0.92851899E+02</rscale>
<asrwt>0</asrwt>
<pdfrwt beam="2">  1        2 0.13162459E-01 0.92851899E+02</pdfrwt>
<pdfrwt beam="1">  1       -2 0.38757687E-02 0.92851899E+02</pdfrwt>
<totfact> 0.11133025E+05</totfact>
</mgrwt>
</event>
<event>
 5    1  0.2799021E+000  0.8883313E+02  0.7818608E-02  0.1305702E+00
          2   -1    0    0  501    0  0.00000000000E+00  0.00000000000E+00  0.28426258377E+02  0.28426258496E+02  0.26000000000E-02 0.  1.
         -2   -1    0    0    0  501 -0.00000000000E+00 -0.00000000000E+00 -0.69401722060E+02  0.69401722109E+02  0.26000000000E-02 0. -1.
         23    2    1    2    0    0  0.00000000000E+00  0.00000000000E+00 -0.40975463683E+02  0.97827980605E+02  0.88833131011E+02 0.  0.
        -11    1    3    3    0    0 -0.29740109560E+02  0.18938247935E+02  0.92604395109E+01  0.36453903655E+02  0.51100000000E-03 0.  1.
         11    1    3    3    0    0  0.29740109560E+02 -0.18938247935E+02 -0.50235903194E+02  0.61374076950E+02  0.51100000000E-03 0. -1.
<mgrwt>
<rscale>  0 0.88833131E+02</rscale>
<asrwt>0</asrwt>
<pdfrwt beam="1">  1        2 0.43732705E-02 0.88833131E+02</pdfrwt>
<pdfrwt beam="2">  1       -2 0.10677188E-01 0.88833131E+02</pdfrwt>
<totfact> 0.94208343E+04</totfact>
</mgrwt>
</event>
<event>
 5    1  0.2799021E+000  0.9173590E+02  0.7818608E-02  0.1298702E+00
          2   -1    0    0  501    0  0.00000000000E+00  0.00000000000E+00  0.20239255436E+03  0.20239255438E+03  0.26000000000E-02 0. -1.
         -2   -1    0    0    0  501 -0.00000000000E+00 -0.00000000000E+00 -0.10394991241E+02  0.10394991567E+02  0.26000000000E-02 0.  1.
         23    2    1    2    0    0  0.00000000000E+00  0.00000000000E+00  0.19199756312E+03  0.21278754594E+03  0.91735900633E+02 0.  0.
        -11    1    3    3    0    0  0.21604433946E+02  0.40173539043E+02  0.10717227227E+03  0.11647558005E+03  0.51100000000E-03 0.  1.
         11    1    3    3    0    0 -0.21604433946E+02 -0.40173539043E+02  0.84825290850E+02  0.96311965889E+02  0.51100000000E-03 0. -1.
<mgrwt>
<rscale>  0 0.91735901E+02</rscale>
<asrwt>0</asrwt>
<pdfrwt beam="1">  1        2 0.31137317E-01 0.91735901E+02</pdfrwt>
<pdfrwt beam="2">  1       -2 0.15992294E-02 0.91735901E+02</pdfrwt>
<totfact> 0.15280889E+05</totfact>
</mgrwt>
</event>
<event>
 5    1  0.2799021E+000  0.9571637E+02  0.7818608E-02  0.1289571E+00
          2   -1    0    0  501    0  0.00000000000E+00  0.00000000000E+00  0.11955813499E+02  0.11955813781E+02  0.26000000000E-02 0. -1.
         -2   -1    0    0    0  501 -0.00000000000E+00 -0.00000000000E+00 -0.19157257510E+03  0.19157257512E+03  0.26000000000E-02 0.  1.
         23    2    1    2    0    0  0.00000000000E+00  0.00000000000E+00 -0.17961676160E+03  0.20352838890E+03  0.95716372893E+02 0.  0.
        -11    1    3    3    0    0 -0.37393885772E+02 -0.29832930703E+02 -0.86727299655E+02  0.99045095553E+02  0.51100000000E-03 0. -1.
         11    1    3    3    0    0  0.37393885772E+02  0.29832930703E+02 -0.92889461945E+02  0.10448329334E+03  0.51100000000E-03 0.  1.
<mgrwt>
<rscale>  0 0.95716373E+02</rscale>
<asrwt>0</asrwt>
<pdfrwt beam="1">  1        2 0.18393561E-02 0.95716373E+02</pdfrwt>
<pdfrwt beam="2">  1       -2 0.29472702E-01 0.95716373E+02</pdfrwt>
<totfact> 0.56068164E+04</totfact>
</mgrwt>
</event>
<event>
 5    1  0.2799021E+000  0.1097315E+03  0.7818608E-02  0.1261068E+00
         -2   -1    0    0    0  501 -0.00000000000E+00  0.00000000000E+00  0.45133894092E+02  0.45133894167E+02  0.26000000000E-02 0.  1.
          2   -1    0    0  501    0  0.00000000000E+00 -0.00000000000E+00 -0.66695947522E+02  0.66695947573E+02  0.26000000000E-02 0. -1.
         23    2    1    2    0    0  0.00000000000E+00  0.00000000000E+00 -0.21562053430E+02  0.11182984174E+03  0.10973145108E+03 0.  0.
        -11    1    3    3    0    0  0.14243140692E+02 -0.24598248576E+02  0.37045133298E+02  0.46693498381E+02  0.51100000000E-03 0.  1.
         11    1    3    3    0    0 -0.14243140692E+02  0.24598248576E+02 -0.58607186728E+02  0.65136343359E+02  0.51100000000E-03 0. -1.
<mgrwt>
<rscale>  0 0.10973145E+03</rscale>
<asrwt>0</asrwt>
<pdfrwt beam="2">  1        2 0.10260915E-01 0.10973145E+03</pdfrwt>
<pdfrwt beam="1">  1       -2 0.69436760E-02 0.10973145E+03</pdfrwt>
<totfact> 0.64345547E+04</totfact>
</mgrwt>
</event>
<event>
 5    1  0.2799021E+000  0.9183287E+02  0.7818608E-02  0.1298473E+00
          2   -1    0    0  501    0  0.00000000000E+00  0.00000000000E+00  0.10759268723E+03  0.10759268726E+03  0.26000000000E-02 0. -1.
         -2   -1    0    0    0  501 -0.00000000000E+00 -0.00000000000E+00 -0.19595375425E+02  0.19595375598E+02  0.26000000000E-02 0.  1.
         23    2    1    2    0    0  0.00000000000E+00  0.00000000000E+00  0.87997311803E+02  0.12718806286E+03  0.91832872376E+02 0.  0.
        -11    1    3    3    0    0  0.33291224336E+02  0.19279428834E+02  0.92820203546E+01  0.39574712836E+02  0.51100000000E-03 0.  1.
         11    1    3    3    0    0 -0.33291224336E+02 -0.19279428834E+02  0.78715291449E+02  0.87613350022E+02  0.51100000000E-03 0. -1.
<mgrwt>
<rscale>  0 0.91832872E+02</rscale>
<asrwt>0</asrwt>
<pdfrwt beam="1">  1        2 0.16552721E-01 0.91832872E+02</pdfrwt>
<pdfrwt beam="2">  1       -2 0.30146731E-02 0.91832872E+02</pdfrwt>
<totfact> 0.12302074E+05</totfact>
</mgrwt>
</event>
<event>
 5    1  0.2799021E+000  0.9086152E+02  0.7818608E-02  0.1300779E+00
          2   -1    0    0  501    0  0.00000000000E+00  0.00000000000E+00  0.90325300994E+02  0.90325301032E+02  0.26000000000E-02 0. -1.
         -2   -1    0    0    0  501 -0.00000000000E+00 -0.00000000000E+00 -0.22850229593E+02  0.22850229741E+02  0.26000000000E-02 0.  1.
         23    2    1    2    0    0  0.00000000000E+00  0.00000000000E+00  0.67475071401E+02  0.11317553077E+03  0.90861518285E+02 0.  0.
        -11    1    3    3    0    0 -0.10127754640E+01 -0.43037899673E+02  0.51816401051E+02  0.67366356148E+02  0.51100000000E-03 0.  1.
         11    1    3    3    0    0  0.10127754640E+01  0.43037899673E+02  0.15658670350E+02  0.45809174625E+02  0.51100000000E-03 0. -1.
<mgrwt>
<rscale>  0 0.90861518E+02</rscale>
<asrwt>0</asrwt>
<pdfrwt beam="1">  1        2 0.13896200E-01 0.90861518E+02</pdfrwt>
<pdfrwt beam="2">  1       -2 0.35154199E-02 0.90861518E+02</pdfrwt>
<totfact> 0.12012990E+05</totfact>
</mgrwt>
</event>
<event>
 5    1  0.2799021E+000  0.8904279E+02  0.7818608E-02  0.1305186E+00
         -2   -1    0    0    0  501 -0.00000000000E+00  0.00000000000E+00  0.18395119660E+02  0.18395119843E+02  0.26000000000E-02 0.  1.
          2   -1    0    0  501    0  0.00000000000E+00 -0.00000000000E+00 -0.10775437898E+03  0.10775437901E+03  0.26000000000E-02 0. -1.
         23    2    1    2    0    0  0.00000000000E+00  0.00000000000E+00 -0.89359259321E+02  0.12614949886E+03  0.89042792157E+02 0.  0.
        -11    1    3    3    0    0  0.26445096630E+02 -0.35669484503E+02 -0.49270235379E+02  0.66326550906E+02  0.51100000000E-03 0.  1.
         11    1    3    3    0    0 -0.26445096630E+02  0.35669484503E+02 -0.40089023942E+02  0.59822947949E+02  0.51100000000E-03 0. -1.
<mgrwt>
<rscale>  0 0.89042792E+02</rscale>
<asrwt>0</asrwt>
<pdfrwt beam="2">  1        2 0.16577596E-01 0.89042792E+02</pdfrwt>
<pdfrwt beam="1">  1       -2 0.28300185E-02 0.89042792E+02</pdfrwt>
<totfact> 0.13393799E+05</totfact>
</mgrwt>
</event>
<event>
 5    1  0.2799021E+000  0.8970933E+02  0.7818608E-02  0.1303557E+00
         -2   -1    0    0    0  501 -0.00000000000E+00  0.00000000000E+00  0.37138545280E+03  0.37138545281E+03  0.26000000000E-02 0.  1.
          2   -1    0    0  501    0  0.00000000000E+00 -0.00000000000E+00 -0.54173929477E+01  0.54173935716E+01  0.26000000000E-02 0. -1.
         23    2    1    2    0    0  0.00000000000E+00  0.00000000000E+00  0.36596805985E+03  0.37680284638E+03  0.89709331781E+02 0.  0.
        -11    1    3    3    0    0  0.10153153689E+02 -0.42169038960E+02  0.13497836499E+03  0.14177613830E+03  0.51100000000E-03 0. -1.
         11    1    3    3    0    0 -0.10153153689E+02  0.42169038960E+02  0.23098969486E+03  0.23502670808E+03  0.51100000000E-03 0.  1.
<mgrwt>
<rscale>  0 0.89709332E+02</rscale>
<asrwt>0</asrwt>
<pdfrwt beam="2">  1        2 0.83344481E-03 0.89709332E+02</pdfrwt>
<pdfrwt beam="1">  1       -2 0.57136245E-01 0.89709332E+02</pdfrwt>
<totfact> 0.46755169E+04</totfact>
</mgrwt>
</event>
<event>
 5    1  0.2799021E+000  0.9135209E+02  0.7818608E-02  0.1299610E+00
         -2   -1    0    0    0  501 -0.00000000000E+00  0.00000000000E+00  0.53952143463E+01  0.53952149728E+01  0.26000000000E-02 0.  1.
          2   -1    0    0  501    0  0.00000000000E+00 -0.00000000000E+00 -0.38669469796E+03  0.38669469796E+03  0.26000000000E-02 0. -1.
         23    2    1    2    0    0  0.00000000000E+00  0.00000000000E+00 -0.38129948361E+03  0.39208991294E+03  0.91352086054E+02 0.  0.
        -11    1    3    3    0    0  0.37482688928E+02 -0.24540677148E+02 -0.22882365692E+03  0.23316831425E+03  0.51100000000E-03 0.  1.
         11    1    3    3    0    0 -0.37482688928E+02  0.24540677148E+02 -0.15247582669E+03  0.15892159868E+03  0.51100000000E-03 0. -1.
<mgrwt>
<rscale>  0 0.91352086E+02</rscale>
<asrwt>0</asrwt>
<pdfrwt beam="2">  1        2 0.59491470E-01 0.91352086E+02</pdfrwt>
<pdfrwt beam="1">  1       -2 0.83003333E-03 0.91352086E+02</pdfrwt>
<totfact> 0.19621007E+05</totfact>
</mgrwt>
</event>
<event>
 5    1  0.2799021E+000  0.9091554E+02  0.7818608E-02  0.1300650E+00
          2   -1    0    0  501    0  0.00000000000E+00  0.00000000000E+00  0.26411428660E+02  0.26411428788E+02  0.26000000000E-02 0.  1.
         -2   -1    0    0    0  501 -0.00000000000E+00 -0.00000000000E+00 -0.78239191173E+02  0.78239191216E+02  0.26000000000E-02 0. -1.
         23    2    1    2    0    0  0.00000000000E+00  0.00000000000E+00 -0.51827762513E+02  0.10465062000E+03  0.90915539377E+02 0.  0.
        -11    1    3    3    0    0  0.33609768696E+02  0.29770498634E+02 -0.34094591528E+02  0.56376771036E+02  0.51100000000E-03 0.  1.
         11    1    3    3    0    0 -0.33609768696E+02 -0.29770498634E+02 -0.17733170984E+02  0.48273848968E+02  0.51100000000E-03 0. -1.
<mgrwt>
<rscale>  0 0.90915539E+02</rscale>
<asrwt>0</asrwt>
<pdfrwt beam="1">  1        2 0.40632967E-02 0.90915539E+02</pdfrwt>
<pdfrwt beam="2">  1       -2 0.12036799E-01 0.90915539E+02</pdfrwt>
<totfact> 0.86206698E+04</totfact>
</mgrwt>
</event>
<event>
 5    1  0.2799021E+000  0.9073876E+02  0.7818608E-02  0.1301072E+00
         -2   -1    0    0    0  501 -0.00000000000E+00  0.00000000000E+00  0.10550977007E+03  0.10550977010E+03  0.26000000000E-02 0.  1.
          2   -1    0    0  501    0  0.00000000000E+00 -0.00000000000E+00 -0.19508909033E+02  0.19508909206E+02  0.26000000000E-02 0. -1.
         23    2    1    2    0    0  0.00000000000E+00  0.00000000000E+00  0.86000861036E+02  0.12501867931E+03  0.90738757301E+02 0.  0.
        -11    1    3    3    0    0  0.21331542982E+02 -0.23014480771E+02 -0.21455826160E+01  0.31453212494E+02  0.51100000000E-03 0. -1.
         11    1    3    3    0    0 -0.21331542982E+02  0.23014480771E+02  0.88146443652E+02  0.93565466813E+02  0.51100000000E-03 0.  1.
<mgrwt>
<rscale>  0 0.90738757E+02</rscale>
<asrwt>0</asrwt>
<pdfrwt beam="2">  1        2 0.30013706E-02 0.90738757E+02</pdfrwt>
<pdfrwt beam="1">  1       -2 0.16232272E-01 0.90738757E+02</pdfrwt>
<totfact> 0.79474620E+04</totfact>
</mgrwt>
</event>
<event>
 5    1  0.2799021E+000  0.9091431E+02  0.7818608E-02  0.1300653E+00
          2   -1    0    0  501    0  0.00000000000E+00  0.00000000000E+00  0.15786685309E+03  0.15786685311E+03  0.26000000000E-02 0. -1.
         -2   -1    0    0    0  501 -0.00000000000E+00 -0.00000000000E+00 -0.13089213542E+02  0.13089213800E+02  0.26000000000E-02 0.  1.
         23    2    1    2    0    0  0.00000000000E+00  0.00000000000E+00  0.14477763955E+03  0.17095606691E+03  0.90914310759E+02 0.  0.
        -11    1    3    3    0    0  0.41684430218E+02  0.72956452653E+01  0.41175460883E+02  0.59044362488E+02  0.51100000000E-03 0.  1.
         11    1    3    3    0    0 -0.41684430218E+02 -0.72956452653E+01  0.10360217867E+03  0.11191170442E+03  0.51100000000E-03 0. -1.
<mgrwt>
<rscale>  0 0.90914311E+02</rscale>
<asrwt>0</asrwt>
<pdfrwt beam="1">  1        2 0.24287209E-01 0.90914311E+02</pdfrwt>
<pdfrwt beam="2">  1       -2 0.20137251E-02 0.90914311E+02</pdfrwt>
<totfact> 0.14339275E+05</totfact>
</mgrwt>
</event>
<event>
 5    1  0.2799021E+000  0.8947918E+02  0.7818608E-02  0.1304118E+00
          2   -1    0    0  501    0  0.00000000000E+00  0.00000000000E+00  0.91966972902E+01  0.91966976577E+01  0.26000000000E-02 0. -1.
         -2   -1    0    0    0  501 -0.00000000000E+00 -0.00000000000E+00 -0.21764672236E+03  0.21764672237E+03  0.26000000000E-02 0.  1.
         23    2    1    2    0    0  0.00000000000E+00  0.00000000000E+00 -0.20845002507E+03  0.22684342003E+03  0.89479183393E+02 0.  0.
        -11    1    3    3    0    0  0.32764718038E+02  0.12856722631E+02 -0.34206629273E+02  0.49080704471E+02  0.51100000000E-03 0. -1.
         11    1    3    3    0    0 -0.32764718038E+02 -0.12856722631E+02 -0.17424339579E+03  0.17776271556E+03  0.51100000000E-03 0.  1.
<mgrwt>
<rscale>  0 0.89479183E+02</rscale>
<asrwt>0</asrwt>
<pdfrwt beam="1">  1        2 0.14148767E-02 0.89479183E+02</pdfrwt>
<pdfrwt beam="2">  1       -2 0.33484107E-01 0.89479183E+02</pdfrwt>
<totfact> 0.62973918E+04</totfact>
</mgrwt>
</event>
<event>
 5    1  0.2799021E+000  0.9299562E+02  0.7818608E-02  0.1295755E+00
          2   -1    0    0  501    0  0.00000000000E+00  0.00000000000E+00  0.57137768604E+02  0.57137768663E+02  0.26000000000E-02 0. -1.
         -2   -1    0    0    0  501 -0.00000000000E+00 -0.00000000000E+00 -0.37839180156E+02  0.37839180245E+02  0.26000000000E-02 0.  1.
         23    2    1    2    0    0  0.00000000000E+00  0.00000000000E+00  0.19298588449E+02  0.94976948908E+02  0.92995619831E+02 0.  0.
        -11    1    3    3    0    0  0.28738697168E+02  0.31040910121E+02 -0.10064695664E+02  0.43482742728E+02  0.51100000000E-03 0.  1.
         11    1    3    3    0    0 -0.28738697168E+02 -0.31040910121E+02  0.29363284113E+02  0.51494206181E+02  0.51100000000E-03 0. -1.
<mgrwt>
<rscale>  0 0.92995620E+02</rscale>
<asrwt>0</asrwt>
<pdfrwt beam="1">  1        2 0.87904260E-02 0.92995620E+02</pdfrwt>
<pdfrwt beam="2">  1       -2 0.58214123E-02 0.92995620E+02</pdfrwt>
<totfact> 0.98989639E+04</totfact>
</mgrwt>
</event>
<event>
 5    1  0.2799021E+000  0.8534434E+02  0.7818608E-02  0.1314534E+00
         -2   -1    0    0    0  501 -0.00000000000E+00  0.00000000000E+00  0.16830043220E+02  0.16830043421E+02  0.26000000000E-02 0.  1.
          2   -1    0    0  501    0  0.00000000000E+00 -0.00000000000E+00 -0.10819426068E+03  0.10819426072E+03  0.26000000000E-02 0. -1.
         23    2    1    2    0    0  0.00000000000E+00  0.00000000000E+00 -0.91364217464E+02  0.12502430414E+03  0.85344340129E+02 0.  0.
        -11    1    3    3    0    0  0.20369531625E+02 -0.35933808766E+02 -0.61375274993E+02  0.73980273126E+02  0.51100000000E-03 0. -1.
         11    1    3    3    0    0 -0.20369531625E+02  0.35933808766E+02 -0.29988942471E+02  0.51044031011E+02  0.51100000000E-03 0.  1.
<mgrwt>
<rscale>  0 0.85344340E+02</rscale>
<asrwt>0</asrwt>
<pdfrwt beam="2">  1        2 0.16645270E-01 0.85344340E+02</pdfrwt>
<pdfrwt beam="1">  1       -2 0.25892375E-02 0.85344340E+02</pdfrwt>
<totfact> 0.15054072E+05</totfact>
</mgrwt>
</event>
<event>
 5    1  0.2799021E+000  0.8895526E+02  0.7818608E-02  0.1305402E+00
         -2   -1    0    0    0  501 -0.00000000000E+00  0.00000000000E+00  0.56468102339E+01  0.56468108325E+01  0.26000000000E-02 0.  1.
          2   -1    0    0  501    0  0.00000000000E+00 -0.00000000000E+00 -0.35033218348E+03  0.35033218349E+03  0.26000000000E-02 0. -1.
         23    2    1    2    0    0  0.00000000000E+00  0.00000000000E+00 -0.34468537324E+03  0.35597899432E+03  0.88955257679E+02 0.  0.
        -11    1    3    3    0    0  0.42367302747E+01  0.42978402989E+02 -0.21491346737E+03  0.21920969747E+03  0.51100000000E-03 0.  1.
         11    1    3    3    0    0 -0.42367302747E+01 -0.42978402989E+02 -0.12977190587E+03  0.13676929685E+03  0.51100000000E-03 0. -1.
<mgrwt>
<rscale>  0 0.88955258E+02</rscale>
<asrwt>0</asrwt>
<pdfrwt beam="2">  1        2 0.53897242E-01 0.88955258E+02</pdfrwt>
<pdfrwt beam="1">  1       -2 0.86874036E-03 0.88955258E+02</pdfrwt>
<totfact> 0.20314379E+05</totfact>
</mgrwt>
</event>
<event>
 5    1  0.2799021E+000  0.9140478E+02  0.7818608E-02  0.1299485E+00
         -2   -1    0    0    0  501 -0.00000000000E+00  0.00000000000E+00  0.11234853670E+03  0.11234853673E+03  0.26000000000E-02 0. -1.
          2   -1    0    0  501    0  0.00000000000E+00 -0.00000000000E+00 -0.18591327267E+02  0.18591327449E+02  0.26000000000E-02 0.  1.
         23    2    1    2    0    0  0.00000000000E+00  0.00000000000E+00  0.93757209438E+02  0.13093986418E+03  0.91404779475E+02 0.  0.
        -11    1    3    3    0    0 -0.20316847409E+02  0.39297868160E+02  0.30444342006E+02  0.53702464478E+02  0.51100000000E-03 0.  1.
         11    1    3    3    0    0  0.20316847409E+02 -0.39297868160E+02  0.63312867431E+02  0.77237399705E+02  0.51100000000E-03 0. -1.
<mgrwt>
<rscale>  0 0.91404779E+02</rscale>
<asrwt>0</asrwt>
<pdfrwt beam="2">  1        2 0.28602042E-02 0.91404779E+02</pdfrwt>
<pdfrwt beam="1">  1       -2 0.17284390E-01 0.91404779E+02</pdfrwt>
<totfact> 0.76535361E+04</totfact>
</mgrwt>
</event>
<event>
 5    1  0.2799021E+000  0.9234993E+02  0.7818608E-02  0.1297259E+00
         -2   -1    0    0    0  501 -0.00000000000E+00  0.00000000000E+00  0.18370303604E+02  0.18370303788E+02  0.26000000000E-02 0. -1.
          2   -1    0    0  501    0  0.00000000000E+00 -0.00000000000E+00 -0.11606379970E+03  0.11606379973E+03  0.26000000000E-02 0.  1.
         23    2    1    2    0    0  0.00000000000E+00  0.00000000000E+00 -0.97693496095E+02  0.13443410352E+03  0.92349926956E+02 0.  0.
        -11    1    3    3    0    0  0.20238975577E+02 -0.38825137164E+02 -0.27495998016E+02  0.51701424694E+02  0.51100000000E-03 0. -1.
         11    1    3    3    0    0 -0.20238975577E+02  0.38825137164E+02 -0.70197498079E+02  0.82732678821E+02  0.51100000000E-03 0.  1.
<mgrwt>
<rscale>  0 0.92349927E+02</rscale>
<asrwt>0</asrwt>
<pdfrwt beam="2">  1        2 0.17855969E-01 0.92349927E+02</pdfrwt>
<pdfrwt beam="1">  1       -2 0.28262007E-02 0.92349927E+02</pdfrwt>
<totfact> 0.12406477E+05</totfact>
</mgrwt>
</event>
<event>
 5    1  0.2799021E+000  0.9100690E+02  0.7818608E-02  0.1300432E+00
          2   -1    0    0  501    0  0.00000000000E+00  0.00000000000E+00  0.39167940122E+03  0.39167940123E+03  0.26000000000E-02 0. -1.
         -2   -1    0    0    0  501 -0.00000000000E+00 -0.00000000000E+00 -0.52863741455E+01  0.52863747849E+01  0.26000000000E-02 0.  1.
         23    2    1    2    0    0  0.00000000000E+00  0.00000000000E+00  0.38639302708E+03  0.39696577602E+03  0.91006900586E+02 0.  0.
        -11    1    3    3    0    0  0.37854180073E+02  0.21040488210E+02  0.25409551461E+03  0.25775991085E+03  0.51100000000E-03 0. -1.
         11    1    3    3    0    0 -0.37854180073E+02 -0.21040488210E+02  0.13229751247E+03  0.13920586517E+03  0.51100000000E-03 0.  1.
<mgrwt>
<rscale>  0 0.91006901E+02</rscale>
<asrwt>0</asrwt>
<pdfrwt beam="1">  1        2 0.60258353E-01 0.91006901E+02</pdfrwt>
<pdfrwt beam="2">  1       -2 0.81328861E-03 0.91006901E+02</pdfrwt>
<totfact> 0.19911032E+05</totfact>
</mgrwt>
</event>
<event>
 5    1  0.2799021E+000  0.9680424E+02  0.7818608E-02  0.1287163E+00
         -2   -1    0    0    0  501 -0.00000000000E+00  0.00000000000E+00  0.12778645864E+03  0.12778645866E+03  0.26000000000E-02 0. -1.
          2   -1    0    0  501    0  0.00000000000E+00 -0.00000000000E+00 -0.18333438663E+02  0.18333438848E+02  0.26000000000E-02 0.  1.
         23    2    1    2    0    0  0.00000000000E+00  0.00000000000E+00  0.10945301997E+03  0.14611989751E+03  0.96804239924E+02 0.  0.
        -11    1    3    3    0    0  0.12244078771E+02 -0.46798654465E+02  0.57222194930E+02  0.74929374197E+02  0.51100000000E-03 0. -1.
         11    1    3    3    0    0 -0.12244078771E+02  0.46798654465E+02  0.52230825043E+02  0.71190523314E+02  0.51100000000E-03 0.  1.
<mgrwt>
<rscale>  0 0.96804240E+02</rscale>
<asrwt>0</asrwt>
<pdfrwt beam="2">  1        2 0.28205289E-02 0.96804240E+02</pdfrwt>
<pdfrwt beam="1">  1       -2 0.19659456E-01 0.96804240E+02</pdfrwt>
<totfact> 0.63532300E+04</totfact>
</mgrwt>
</event>
<event>
 5    1  0.2799021E+000  0.9008734E+02  0.7818608E-02  0.1302640E+00
          2   -1    0    0  501    0  0.00000000000E+00  0.00000000000E+00  0.83354581647E+02  0.83354581688E+02  0.26000000000E-02 0. -1.
         -2   -1    0    0    0  501 -0.00000000000E+00 -0.00000000000E+00 -0.24340980662E+02  0.24340980801E+02  0.26000000000E-02 0.  1.
         23    2    1    2    0    0  0.00000000000E+00  0.00000000000E+00  0.59013600985E+02  0.10769556249E+03  0.90087341389E+02 0.  0.
        -11    1    3    3    0    0 -0.28760356107E+01 -0.42877096061E+02  0.13369663541E+02  0.45005164714E+02  0.51100000000E-03 0.  1.
         11    1    3    3    0    0  0.28760356107E+01  0.42877096061E+02  0.45643937445E+02  0.62690397775E+02  0.51100000000E-03 0. -1.
<mgrwt>
<rscale>  0 0.90087341E+02</rscale>
<asrwt>0</asrwt>
<pdfrwt beam="1">  1        2 0.12823782E-01 0.90087341E+02</pdfrwt>
<pdfrwt beam="2">  1       -2 0.37447663E-02 0.90087341E+02</pdfrwt>
<totfact> 0.12015505E+05</totfact>
</mgrwt>
</event>
<event>
 5    1  0.2799021E+000  0.9170676E+02  0.7818608E-02  0.1298770E+00
          2   -1    0    0  501    0  0.00000000000E+00  0.00000000000E+00  0.10246196931E+03  0.10246196935E+03  0.26000000000E-02 0.  1.
         -2   -1    0    0    0  501 -0.00000000000E+00 -0.00000000000E+00 -0.20520125429E+02  0.20520125594E+02  0.26000000000E-02 0. -1.
         23    2    1    2    0    0  0.00000000000E+00  0.00000000000E+00  0.81941843884E+02  0.12298209494E+03  0.91706760366E+02 0.  0.
        -11    1    3    3    0    0  0.14196564595E+02  0.21239842378E+02  0.92033582309E+02  0.95513630564E+02  0.51100000000E-03 0.  1.
         11    1    3    3    0    0 -0.14196564595E+02 -0.21239842378E+02 -0.10091738425E+02  0.27468464377E+02  0.51100000000E-03 0. -1.
<mgrwt>
<rscale>  0 0.91706760E+02</rscale>
<asrwt>0</asrwt>
<pdfrwt beam="1">  1        2 0.15763380E-01 0.91706760E+02</pdfrwt>
<pdfrwt beam="2">  1       -2 0.31569424E-02 0.91706760E+02</pdfrwt>
<totfact> 0.12163432E+05</totfact>
</mgrwt>
</event>
<event>
 5    1  0.2799021E+000  0.6366416E+02  0.7818608E-02  0.1383068E+00
         -2   -1    0    0    0  501 -0.00000000000E+00  0.00000000000E+00  0.83048366037E+01  0.83048370107E+01  0.26000000000E-02 0. -1.
          2   -1    0    0  501    0  0.00000000000E+00 -0.00000000000E+00 -0.12201097477E+03  0.12201097480E+03  0.26000000000E-02 0.  1.
         23    2    1    2    0    0  0.00000000000E+00  0.00000000000E+00 -0.11370613817E+03  0.13031581181E+03  0.63664157503E+02 0.  0.
        -11    1    3    3    0    0  0.29993183095E+02  0.58749076268E+01 -0.38639377466E+02  0.49265678347E+02  0.51100000000E-03 0.  1.
         11    1    3    3    0    0 -0.29993183095E+02 -0.58749076268E+01 -0.75066760699E+02  0.81050133460E+02  0.51100000000E-03 0. -1.
<mgrwt>
<rscale>  0 0.63664158E+02</rscale>
<asrwt>0</asrwt>
<pdfrwt beam="2">  1        2 0.18770918E-01 0.63664158E+02</pdfrwt>
<pdfrwt beam="1">  1       -2 0.12776673E-02 0.63664158E+02</pdfrwt>
<totfact> 0.34020135E+05</totfact>
</mgrwt>
</event>
<event>
 5    1  0.2799021E+000  0.9147854E+02  0.7818608E-02  0.1299310E+00
         -2   -1    0    0    0  501 -0.00000000000E+00  0.00000000000E+00  0.44595696292E+03  0.44595696293E+03  0.26000000000E-02 0.  1.
          2   -1    0    0  501    0  0.00000000000E+00 -0.00000000000E+00 -0.46912165767E+01  0.46912172972E+01  0.26000000000E-02 0. -1.
         23    2    1    2    0    0  0.00000000000E+00  0.00000000000E+00  0.44126574634E+03  0.45064818022E+03  0.91478540893E+02 0.  0.
        -11    1    3    3    0    0 -0.42579600105E+02  0.14278461561E+02  0.17791779021E+03  0.18349832937E+03  0.51100000000E-03 0. -1.
         11    1    3    3    0    0  0.42579600105E+02 -0.14278461561E+02  0.26334795613E+03  0.26714985085E+03  0.51100000000E-03 0.  1.
<mgrwt>
<rscale>  0 0.91478541E+02</rscale>
<asrwt>0</asrwt>
<pdfrwt beam="2">  1        2 0.72172569E-03 0.91478541E+02</pdfrwt>
<pdfrwt beam="1">  1       -2 0.68608763E-01 0.91478541E+02</pdfrwt>
<totfact> 0.39224445E+04</totfact>
</mgrwt>
</event>
<event>
 5    1  0.2799021E+000  0.9094442E+02  0.7818608E-02  0.1300581E+00
          2   -1    0    0  501    0  0.00000000000E+00  0.00000000000E+00  0.81576116995E+02  0.81576117037E+02  0.26000000000E-02 0. -1.
         -2   -1    0    0    0  501 -0.00000000000E+00 -0.00000000000E+00 -0.25347145524E+02  0.25347145657E+02  0.26000000000E-02 0.  1.
         23    2    1    2    0    0  0.00000000000E+00  0.00000000000E+00  0.56228971471E+02  0.10692326269E+03  0.90944416389E+02 0.  0.
        -11    1    3    3    0    0 -0.33855271763E+02  0.99010792390E+01 -0.56244084179E+01  0.35718969282E+02  0.51100000000E-03 0.  1.
         11    1    3    3    0    0  0.33855271763E+02 -0.99010792390E+01  0.61853379889E+02  0.71204293412E+02  0.51100000000E-03 0. -1.
<mgrwt>
<rscale>  0 0.90944416E+02</rscale>
<asrwt>0</asrwt>
<pdfrwt beam="1">  1        2 0.12550172E-01 0.90944416E+02</pdfrwt>
<pdfrwt beam="2">  1       -2 0.38995609E-02 0.90944416E+02</pdfrwt>
<totfact> 0.11632166E+05</totfact>
</mgrwt>
</event>
<event>
 5    1  0.2799021E+000  0.9178709E+02  0.7818608E-02  0.1298581E+00
          2   -1    0    0  501    0  0.00000000000E+00  0.00000000000E+00  0.49598413573E+02  0.49598413642E+02  0.26000000000E-02 0. -1.
         -2   -1    0    0    0  501 -0.00000000000E+00 -0.00000000000E+00 -0.42465420641E+02  0.42465420721E+02  0.26000000000E-02 0.  1.
         23    2    1    2    0    0  0.00000000000E+00  0.00000000000E+00  0.71329929325E+01  0.92063834362E+02  0.91787090646E+02 0.  0.
        -11    1    3    3    0    0 -0.58982219980E+01  0.28919884962E+02  0.38816001098E+02  0.48763005552E+02  0.51100000000E-03 0. -1.
         11    1    3    3    0    0  0.58982219980E+01 -0.28919884962E+02 -0.31683008166E+02  0.43300828810E+02  0.51100000000E-03 0.  1.
<mgrwt>
<rscale>  0 0.91787091E+02</rscale>
<asrwt>0</asrwt>
<pdfrwt beam="1">  1        2 0.76305251E-02 0.91787091E+02</pdfrwt>
<pdfrwt beam="2">  1       -2 0.65331417E-02 0.91787091E+02</pdfrwt>
<totfact> 0.98959266E+04</totfact>
</mgrwt>
</event>
<event>
 5    1  0.2799021E+000  0.7656652E+02  0.7818608E-02  0.1339088E+00
         -2   -1    0    0    0  501 -0.00000000000E+00  0.00000000000E+00  0.68002942605E+02  0.68002942655E+02  0.26000000000E-02 0.  1.
          2   -1    0    0  501    0  0.00000000000E+00 -0.00000000000E+00 -0.21552127430E+02  0.21552127587E+02  0.26000000000E-02 0. -1.
         23    2    1    2    0    0  0.00000000000E+00  0.00000000000E+00  0.46450815175E+02  0.89555070242E+02  0.76566522551E+02 0.  0.
        -11    1    3    3    0    0 -0.34687416016E+01  0.22697513978E+02 -0.12604441101E+02  0.26193152632E+02  0.51100000000E-03 0. -1.
         11    1    3    3    0    0  0.34687416016E+01 -0.22697513978E+02  0.59055256276E+02  0.63361917609E+02  0.51100000000E-03 0.  1.
<mgrwt>
<rscale>  0 0.76566523E+02</rscale>
<asrwt>0</asrwt>
<pdfrwt beam="2">  1        2 0.33157120E-02 0.76566523E+02</pdfrwt>
<pdfrwt beam="1">  1       -2 0.10461991E-01 0.76566523E+02</pdfrwt>
<totfact> 0.13612328E+05</totfact>
</mgrwt>
</event>
<event>
 5    1  0.2799021E+000  0.9105275E+02  0.7818608E-02  0.1300322E+00
          2   -1    0    0  501    0  0.00000000000E+00  0.00000000000E+00  0.55254827327E+02  0.55254827388E+02  0.26000000000E-02 0. -1.
         -2   -1    0    0    0  501 -0.00000000000E+00 -0.00000000000E+00 -0.37510767718E+02  0.37510767808E+02  0.26000000000E-02 0.  1.
         23    2    1    2    0    0  0.00000000000E+00  0.00000000000E+00  0.17744059608E+02  0.92765595196E+02  0.91052753944E+02 0.  0.
        -11    1    3    3    0    0 -0.45233141138E+02  0.24745913223E+01  0.42602513394E+01  0.45500663744E+02  0.51100000000E-03 0.  1.
         11    1    3    3    0    0  0.45233141138E+02 -0.24745913223E+01  0.13483808269E+02  0.47264931452E+02  0.51100000000E-03 0. -1.
<mgrwt>
<rscale>  0 0.91052754E+02</rscale>
<asrwt>0</asrwt>
<pdfrwt beam="1">  1        2 0.85007427E-02 0.91052754E+02</pdfrwt>
<pdfrwt beam="2">  1       -2 0.57708873E-02 0.91052754E+02</pdfrwt>
<totfact> 0.10416896E+05</totfact>
</mgrwt>
</event>
<event>
 5    1  0.2799021E+000  0.8652697E+02  0.7818608E-02  0.1311487E+00
         -2   -1    0    0    0  501 -0.00000000000E+00  0.00000000000E+00  0.96916003350E+01  0.96916006837E+01  0.26000000000E-02 0.  1.
          2   -1    0    0  501    0  0.00000000000E+00 -0.00000000000E+00 -0.19312898994E+03  0.19312898996E+03  0.26000000000E-02 0. -1.
         23    2    1    2    0    0  0.00000000000E+00  0.00000000000E+00 -0.18343738960E+03  0.20282059064E+03  0.86526967374E+02 0.  0.
        -11    1    3    3    0    0 -0.37673339729E+02  0.19553271124E+02 -0.72090716202E+02  0.83658127524E+02  0.51100000000E-03 0.  1.
         11    1    3    3    0    0  0.37673339729E+02 -0.19553271124E+02 -0.11134667340E+03  0.11916246312E+03  0.51100000000E-03 0. -1.
<mgrwt>
<rscale>  0 0.86526967E+02</rscale>
<asrwt>0</asrwt>
<pdfrwt beam="2">  1        2 0.29712150E-01 0.86526967E+02</pdfrwt>
<pdfrwt beam="1">  1       -2 0.14910156E-02 0.86526967E+02</pdfrwt>
<totfact> 0.17578663E+05</totfact>
</mgrwt>
</event>
<event>
 5    1  0.2799021E+000  0.9196005E+02  0.7818608E-02  0.1298173E+00
         -2   -1    0    0    0  501 -0.00000000000E+00  0.00000000000E+00  0.10594105101E+02  0.10594105420E+02  0.26000000000E-02 0.  1.
          2   -1    0    0  501    0  0.00000000000E+00 -0.00000000000E+00 -0.19956027842E+03  0.19956027843E+03  0.26000000000E-02 0. -1.
         23    2    1    2    0    0  0.00000000000E+00  0.00000000000E+00 -0.18896617332E+03  0.21015438385E+03  0.91960047822E+02 0.  0.
        -11    1    3    3    0    0  0.68745014601E+01  0.45212960251E+02 -0.10536928307E+03  0.11486581893E+03  0.51100000000E-03 0.  1.
         11    1    3    3    0    0 -0.68745014601E+01 -0.45212960251E+02 -0.83596890250E+02  0.95288564921E+02  0.51100000000E-03 0. -1.
<mgrwt>
<rscale>  0 0.91960048E+02</rscale>
<asrwt>0</asrwt>
<pdfrwt beam="2">  1        2 0.30701579E-01 0.91960048E+02</pdfrwt>
<pdfrwt beam="1">  1       -2 0.16298625E-02 0.91960048E+02</pdfrwt>
<totfact> 0.15103334E+05</totfact>
</mgrwt>
</event>
<event>
 5    1  0.2799021E+000  0.9112296E+02  0.7818608E-02  0.1300155E+00
          2   -1    0    0  501    0  0.00000000000E+00  0.00000000000E+00  0.77906573864E+01  0.77906578203E+01  0.26000000000E-02 0. -1.
         -2   -1    0    0    0  501 -0.00000000000E+00 -0.00000000000E+00 -0.26645354610E+03  0.26645354611E+03  0.26000000000E-02 0.  1.
         23    2    1    2    0    0  0.00000000000E+00  0.00000000000E+00 -0.25866288872E+03  0.27424420394E+03  0.91122957553E+02 0.  0.
        -11    1    3    3    0    0 -0.38745865024E+02 -0.23934171273E+02 -0.13332610783E+03  0.14088980673E+03  0.51100000000E-03 0. -1.
         11    1    3    3    0    0  0.38745865024E+02  0.23934171273E+02 -0.12533678088E+03  0.13335439720E+03  0.51100000000E-03 0.  1.
<mgrwt>
<rscale>  0 0.91122958E+02</rscale>
<asrwt>0</asrwt>
<pdfrwt beam="1">  1        2 0.11985629E-02 0.91122958E+02</pdfrwt>
<pdfrwt beam="2">  1       -2 0.40992846E-01 0.91122958E+02</pdfrwt>
<totfact> 0.54463960E+04</totfact>
</mgrwt>
</event>
<event>
 5    1  0.2799021E+000  0.9120540E+02  0.7818608E-02  0.1299959E+00
          2   -1    0    0  501    0  0.00000000000E+00  0.00000000000E+00  0.17701053171E+02  0.17701053362E+02  0.26000000000E-02 0.  1.
         -2   -1    0    0    0  501 -0.00000000000E+00 -0.00000000000E+00 -0.11748488142E+03  0.11748488145E+03  0.26000000000E-02 0. -1.
         23    2    1    2    0    0  0.00000000000E+00  0.00000000000E+00 -0.99783828249E+02  0.13518593481E+03  0.91205397817E+02 0.  0.
        -11    1    3    3    0    0 -0.13395585529E+02  0.38856552974E+02 -0.20608045534E+02  0.45977874697E+02  0.51100000000E-03 0.  1.
         11    1    3    3    0    0  0.13395585529E+02 -0.38856552974E+02 -0.79175782715E+02  0.89208060115E+02  0.51100000000E-03 0. -1.
<mgrwt>
<rscale>  0 0.91205398E+02</rscale>
<asrwt>0</asrwt>
<pdfrwt beam="1">  1        2 0.27232390E-02 0.91205398E+02</pdfrwt>
<pdfrwt beam="2">  1       -2 0.18074597E-01 0.91205398E+02</pdfrwt>
<totfact> 0.75872769E+04</totfact>
</mgrwt>
</event>
<event>
 5    1  0.2799021E+000  0.8347172E+02  0.7818608E-02  0.1319478E+00
         -2   -1    0    0    0  501 -0.00000000000E+00  0.00000000000E+00  0.23417909498E+02  0.23417909643E+02  0.26000000000E-02 0.  1.
          2   -1    0    0  501    0  0.00000000000E+00 -0.00000000000E+00 -0.74382473819E+02  0.74382473865E+02  0.26000000000E-02 0. -1.
         23    2    1    2    0    0  0.00000000000E+00  0.00000000000E+00 -0.50964564321E+02  0.97800383507E+02  0.83471720946E+02 0.  0.
        -11    1    3    3    0    0  0.45538610928E+01 -0.12277865563E+02 -0.71913076592E+02  0.73095651162E+02  0.51100000000E-03 0. -1.
         11    1    3    3    0    0 -0.45538610928E+01  0.12277865563E+02  0.20948512271E+02  0.24704732345E+02  0.51100000000E-03 0.  1.
<mgrwt>
<rscale>  0 0.83471721E+02</rscale>
<asrwt>0</asrwt>
<pdfrwt beam="2">  1        2 0.11443457E-01 0.83471721E+02</pdfrwt>
<pdfrwt beam="1">  1       -2 0.36027553E-02 0.83471721E+02</pdfrwt>
<totfact> 0.14364594E+05</totfact>
</mgrwt>
</event>
<event>
 5    1  0.2799021E+000  0.8885464E+02  0.7818608E-02  0.1305649E+00
          2   -1    0    0  501    0  0.00000000000E+00  0.00000000000E+00  0.82243738991E+01  0.82243743101E+01  0.26000000000E-02 0. -1.
         -2   -1    0    0    0  501 -0.00000000000E+00 -0.00000000000E+00 -0.23999232211E+03  0.23999232212E+03  0.26000000000E-02 0.  1.
         23    2    1    2    0    0  0.00000000000E+00  0.00000000000E+00 -0.23176794821E+03  0.24821669643E+03  0.88854637306E+02 0.  0.
        -11    1    3    3    0    0  0.38138088581E+02  0.19288844150E+02 -0.81989846069E+02  0.92460305904E+02  0.51100000000E-03 0.  1.
         11    1    3    3    0    0 -0.38138088581E+02 -0.19288844150E+02 -0.14977810214E+03  0.15575639053E+03  0.51100000000E-03 0. -1.
<mgrwt>
<rscale>  0 0.88854637E+02</rscale>
<asrwt>0</asrwt>
<pdfrwt beam="1">  1        2 0.12652885E-02 0.88854637E+02</pdfrwt>
<pdfrwt beam="2">  1       -2 0.36921890E-01 0.88854637E+02</pdfrwt>
<totfact> 0.61234376E+04</totfact>
</mgrwt>
</event>
<event>
 5    1  0.2799021E+000  0.8940187E+02  0.7818608E-02  0.1304307E+00
          2   -1    0    0  501    0  0.00000000000E+00  0.00000000000E+00  0.52272403001E+02  0.52272403066E+02  0.26000000000E-02 0. -1.
         -2   -1    0    0    0  501 -0.00000000000E+00 -0.00000000000E+00 -0.38226162530E+02  0.38226162618E+02  0.26000000000E-02 0.  1.
         23    2    1    2    0    0  0.00000000000E+00  0.00000000000E+00  0.14046240472E+02  0.90498565684E+02  0.89401865302E+02 0.  0.
        -11    1    3    3    0    0  0.26273274727E+02  0.95810438694E+01 -0.28277174710E+02  0.39770340410E+02  0.51100000000E-03 0.  1.
         11    1    3    3    0    0 -0.26273274727E+02 -0.95810438694E+01  0.42323415182E+02  0.50728225274E+02  0.51100000000E-03 0. -1.
<mgrwt>
<rscale>  0 0.89401865E+02</rscale>
<asrwt>0</asrwt>
<pdfrwt beam="1">  1        2 0.80419081E-02 0.89401865E+02</pdfrwt>
<pdfrwt beam="2">  1       -2 0.58809481E-02 0.89401865E+02</pdfrwt>
<totfact> 0.10812499E+05</totfact>
</mgrwt>
</event>
<event>
 5    1  0.2799021E+000  0.9362629E+02  0.7818608E-02  0.1294300E+00
         -2   -1    0    0    0  501 -0.00000000000E+00  0.00000000000E+00  0.76329045870E+01  0.76329050298E+01  0.26000000000E-02 0.  1.
          2   -1    0    0  501    0  0.00000000000E+00 -0.00000000000E+00 -0.28710833698E+03  0.28710833699E+03  0.26000000000E-02 0. -1.
         23    2    1    2    0    0  0.00000000000E+00  0.00000000000E+00 -0.27947543239E+03  0.29474124202E+03  0.93626291378E+02 0.  0.
        -11    1    3    3    0    0  0.34132226125E+02 -0.31117579802E+02 -0.16374526002E+03  0.17013471960E+03  0.51100000000E-03 0.  1.
         11    1    3    3    0    0 -0.34132226125E+02  0.31117579802E+02 -0.11573017237E+03  0.12460652242E+03  0.51100000000E-03 0. -1.
<mgrwt>
<rscale>  0 0.93626291E+02</rscale>
<asrwt>0</asrwt>
<pdfrwt beam="2">  1        2 0.44170505E-01 0.93626291E+02</pdfrwt>
<pdfrwt beam="1">  1       -2 0.11742933E-02 0.93626291E+02</pdfrwt>
<totfact> 0.16463844E+05</totfact>
</mgrwt>
</event>
<event>
 5    1  0.2799021E+000  0.8703864E+02  0.7818608E-02  0.1310186E+00
          2   -1    0    0  501    0  0.00000000000E+00  0.00000000000E+00  0.49384196679E+02  0.49384196747E+02  0.26000000000E-02 0.  1.
         -2   -1    0    0    0  501 -0.00000000000E+00 -0.00000000000E+00 -0.38350959090E+02  0.38350959178E+02  0.26000000000E-02 0. -1.
         23    2    1    2    0    0  0.00000000000E+00  0.00000000000E+00  0.11033237589E+02  0.87735155925E+02  0.87038642301E+02 0.  0.
        -11    1    3    3    0    0  0.67242436949E+01 -0.28023696190E+02  0.38387207748E+02  0.48001257487E+02  0.51100000000E-03 0.  1.
         11    1    3    3    0    0 -0.67242436949E+01  0.28023696190E+02 -0.27353970158E+02  0.39733898438E+02  0.51100000000E-03 0. -1.
<mgrwt>
<rscale>  0 0.87038642E+02</rscale>
<asrwt>0</asrwt>
<pdfrwt beam="1">  1        2 0.75975687E-02 0.87038642E+02</pdfrwt>
<pdfrwt beam="2">  1       -2 0.59001476E-02 0.87038642E+02</pdfrwt>
<totfact> 0.11495231E+05</totfact>
</mgrwt>
</event>
<event>
 5    1  0.2799021E+000  0.9053132E+02  0.7818608E-02  0.1301570E+00
         -2   -1    0    0    0  501 -0.00000000000E+00  0.00000000000E+00  0.13709263093E+03  0.13709263096E+03  0.26000000000E-02 0.  1.
          2   -1    0    0  501    0  0.00000000000E+00 -0.00000000000E+00 -0.14945951690E+02  0.14945951916E+02  0.26000000000E-02 0. -1.
         23    2    1    2    0    0  0.00000000000E+00  0.00000000000E+00  0.12214667924E+03  0.15203858287E+03  0.90531317410E+02 0.  0.
        -11    1    3    3    0    0  0.17122711635E+02  0.27679066888E+02  0.82411768600E+01  0.33574320452E+02  0.51100000000E-03 0. -1.
         11    1    3    3    0    0 -0.17122711635E+02 -0.27679066888E+02  0.11390550238E+03  0.11846426242E+03  0.51100000000E-03 0.  1.
<mgrwt>
<rscale>  0 0.90531317E+02</rscale>
<asrwt>0</asrwt>
<pdfrwt beam="2">  1        2 0.22993772E-02 0.90531317E+02</pdfrwt>
<pdfrwt beam="1">  1       -2 0.21091174E-01 0.90531317E+02</pdfrwt>
<totfact> 0.73429581E+04</totfact>
</mgrwt>
</event>
<event>
 5    1  0.2799021E+000  0.9321816E+02  0.7818608E-02  0.1295240E+00
          2   -1    0    0  501    0  0.00000000000E+00  0.00000000000E+00  0.98852586438E+02  0.98852586472E+02  0.26000000000E-02 0. -1.
         -2   -1    0    0    0  501 -0.00000000000E+00 -0.00000000000E+00 -0.21976222198E+02  0.21976222351E+02  0.26000000000E-02 0.  1.
         23    2    1    2    0    0  0.00000000000E+00  0.00000000000E+00  0.76876364240E+02  0.12082880882E+03  0.93218161658E+02 0.  0.
        -11    1    3    3    0    0 -0.41190369651E+02  0.54139165898E+00  0.10174415413E+02  0.42431808661E+02  0.51100000000E-03 0.  1.
         11    1    3    3    0    0  0.41190369651E+02 -0.54139165898E+00  0.66701948827E+02  0.78397000163E+02  0.51100000000E-03 0. -1.
<mgrwt>
<rscale>  0 0.93218162E+02</rscale>
<asrwt>0</asrwt>
<pdfrwt beam="1">  1        2 0.15208091E-01 0.93218162E+02</pdfrwt>
<pdfrwt beam="2">  1       -2 0.33809572E-02 0.93218162E+02</pdfrwt>
<totfact> 0.11499655E+05</totfact>
</mgrwt>
</event>
<event>
 5    1  0.2799021E+000  0.9278113E+02  0.7818608E-02  0.1296253E+00
          2   -1    0    0  501    0  0.00000000000E+00  0.00000000000E+00  0.34857950232E+02  0.34857950329E+02  0.26000000000E-02 0.  1.
         -2   -1    0    0    0  501 -0.00000000000E+00 -0.00000000000E+00 -0.61738698242E+02  0.61738698297E+02  0.26000000000E-02 0. -1.
         23    2    1    2    0    0  0.00000000000E+00  0.00000000000E+00 -0.26880748010E+02  0.96596648625E+02  0.92781129073E+02 0.  0.
        -11    1    3    3    0    0  0.45465602418E+02 -0.39780333401E+01 -0.47834602710E+01  0.45889293358E+02  0.51100000000E-03 0. -1.
         11    1    3    3    0    0 -0.45465602418E+02  0.39780333401E+01 -0.22097287739E+02  0.50707355267E+02  0.51100000000E-03 0.  1.
<mgrwt>
<rscale>  0 0.92781129E+02</rscale>
<asrwt>0</asrwt>
<pdfrwt beam="1">  1        2 0.53627616E-02 0.92781129E+02</pdfrwt>
<pdfrwt beam="2">  1       -2 0.94982613E-02 0.92781129E+02</pdfrwt>
<totfact> 0.87442278E+04</totfact>
</mgrwt>
</event>
<event>
 5    1  0.2799021E+000  0.8958362E+02  0.7818608E-02  0.1303863E+00
         -2   -1    0    0    0  501 -0.00000000000E+00  0.00000000000E+00  0.12091149173E+02  0.12091149452E+02  0.26000000000E-02 0.  1.
          2   -1    0    0  501    0  0.00000000000E+00 -0.00000000000E+00 -0.16593181675E+03  0.16593181677E+03  0.26000000000E-02 0. -1.
         23    2    1    2    0    0  0.00000000000E+00  0.00000000000E+00 -0.15384066757E+03  0.17802296622E+03  0.89583622955E+02 0.  0.
        -11    1    3    3    0    0  0.21916918137E+02  0.39018215877E+02 -0.73184609596E+02  0.85783212535E+02  0.51100000000E-03 0.  1.
         11    1    3    3    0    0 -0.21916918137E+02 -0.39018215877E+02 -0.80656057978E+02  0.92239753684E+02  0.51100000000E-03 0. -1.
<mgrwt>
<rscale>  0 0.89583623E+02</rscale>
<asrwt>0</asrwt>
<pdfrwt beam="2">  1        2 0.25527970E-01 0.89583623E+02</pdfrwt>
<pdfrwt beam="1">  1       -2 0.18601769E-02 0.89583623E+02</pdfrwt>
<totfact> 0.15180941E+05</totfact>
</mgrwt>
</event>
<event>
 5    1  0.2799021E+000  0.9229497E+02  0.7818608E-02  0.1297387E+00
         -2   -1    0    0    0  501 -0.00000000000E+00  0.00000000000E+00  0.15250583742E+02  0.15250583963E+02  0.26000000000E-02 0.  1.
          2   -1    0    0  501    0  0.00000000000E+00 -0.00000000000E+00 -0.13963991117E+03  0.13963991120E+03  0.26000000000E-02 0. -1.
         23    2    1    2    0    0  0.00000000000E+00  0.00000000000E+00 -0.12438932743E+03  0.15489049516E+03  0.92294965801E+02 0.  0.
        -11    1    3    3    0    0  0.44954494420E+02 -0.79887735838E+01 -0.50954013770E+02  0.68418115960E+02  0.51100000000E-03 0.  1.
         11    1    3    3    0    0 -0.44954494420E+02  0.79887735838E+01 -0.73435313662E+02  0.86472379202E+02  0.51100000000E-03 0. -1.
<mgrwt>
<rscale>  0 0.92294966E+02</rscale>
<asrwt>0</asrwt>
<pdfrwt beam="2">  1        2 0.21483062E-01 0.92294966E+02</pdfrwt>
<pdfrwt beam="1">  1       -2 0.23462438E-02 0.92294966E+02</pdfrwt>
<totfact> 0.13201781E+05</totfact>
</mgrwt>
</event>
<event>
 5    1  0.2799021E+000  0.8712744E+02  0.7818608E-02  0.1309961E+00
         -2   -1    0    0    0  501 -0.00000000000E+00  0.00000000000E+00  0.80630064371E+02  0.80630064413E+02  0.26000000000E-02 0.  1.
          2   -1    0    0  501    0  0.00000000000E+00 -0.00000000000E+00 -0.23537099778E+02  0.23537099922E+02  0.26000000000E-02 0. -1.
         23    2    1    2    0    0  0.00000000000E+00  0.00000000000E+00  0.57092964593E+02  0.10416716433E+03  0.87127444124E+02 0.  0.
        -11    1    3    3    0    0 -0.26066046882E+02  0.24095414896E+02  0.58739598020E+02  0.68632122180E+02  0.51100000000E-03 0.  1.
         11    1    3    3    0    0  0.26066046882E+02 -0.24095414896E+02 -0.16466334272E+01  0.35535042155E+02  0.51100000000E-03 0. -1.
<mgrwt>
<rscale>  0 0.87127444E+02</rscale>
<asrwt>0</asrwt>
<pdfrwt beam="2">  1        2 0.36210924E-02 0.87127444E+02</pdfrwt>
<pdfrwt beam="1">  1       -2 0.12404625E-01 0.87127444E+02</pdfrwt>
<totfact> 0.94923529E+04</totfact>
</mgrwt>
</event>
<event>
 5    1  0.2799021E+000  0.9262380E+02  0.7818608E-02  0.1296619E+00
         -2   -1    0    0    0  501 -0.00000000000E+00  0.00000000000E+00  0.27051987502E+03  0.27051987503E+03  0.26000000000E-02 0.  1.
          2   -1    0    0  501    0  0.00000000000E+00 -0.00000000000E+00 -0.79284076825E+01  0.79284081088E+01  0.26000000000E-02 0. -1.
         23    2    1    2    0    0  0.00000000000E+00  0.00000000000E+00  0.26259146733E+03  0.27844828314E+03  0.92623796434E+02 0.  0.
        -11    1    3    3    0    0 -0.31066512488E+02  0.34166234355E+02  0.14185275335E+03  0.14917996984E+03  0.51100000000E-03 0.  1.
         11    1    3    3    0    0  0.31066512488E+02 -0.34166234355E+02  0.12073871399E+03  0.12926831330E+03  0.51100000000E-03 0. -1.
<mgrwt>
<rscale>  0 0.92623796E+02</rscale>
<asrwt>0</asrwt>
<pdfrwt beam="2">  1        2 0.12197553E-02 0.92623796E+02</pdfrwt>
<pdfrwt beam="1">  1       -2 0.41618435E-01 0.92623796E+02</pdfrwt>
<totfact> 0.51809812E+04</totfact>
</mgrwt>
</event>
<event>
 5    1  0.2799021E+000  0.9124930E+02  0.7818608E-02  0.1299854E+00
         -2   -1    0    0    0  501 -0.00000000000E+00  0.00000000000E+00  0.69203500231E+02  0.69203500280E+02  0.26000000000E-02 0.  1.
          2   -1    0    0  501    0  0.00000000000E+00 -0.00000000000E+00 -0.30079530504E+02  0.30079530616E+02  0.26000000000E-02 0. -1.
         23    2    1    2    0    0  0.00000000000E+00  0.00000000000E+00  0.39123969727E+02  0.99283030897E+02  0.91249302555E+02 0.  0.
        -11    1    3    3    0    0 -0.82836099330E+01 -0.42941567611E+02  0.54169268267E+01  0.44067442846E+02  0.51100000000E-03 0.  1.
         11    1    3    3    0    0  0.82836099330E+01  0.42941567611E+02  0.33707042901E+02  0.55215588051E+02  0.51100000000E-03 0. -1.
<mgrwt>
<rscale>  0 0.91249303E+02</rscale>
<asrwt>0</asrwt>
<pdfrwt beam="2">  1        2 0.46276201E-02 0.91249303E+02</pdfrwt>
<pdfrwt beam="1">  1       -2 0.10646692E-01 0.91249303E+02</pdfrwt>
<totfact> 0.88319927E+04</totfact>
</mgrwt>
</event>
<event>
 5    1  0.2799021E+000  0.9205361E+02  0.7818608E-02  0.1297953E+00
          2   -1    0    0  501    0  0.00000000000E+00  0.00000000000E+00  0.91682273177E+02  0.91682273214E+02  0.26000000000E-02 0. -1.
         -2   -1    0    0    0  501 -0.00000000000E+00 -0.00000000000E+00 -0.23106612288E+02  0.23106612434E+02  0.26000000000E-02 0.  1.
         23    2    1    2    0    0  0.00000000000E+00  0.00000000000E+00  0.68575660889E+02  0.11478888565E+03  0.92053609392E+02 0.  0.
        -11    1    3    3    0    0  0.19760570850E+02 -0.15282753434E+02 -0.13917597243E+02  0.28596192511E+02  0.51100000000E-03 0.  1.
         11    1    3    3    0    0 -0.19760570850E+02  0.15282753434E+02  0.82493258132E+02  0.86192693138E+02  0.51100000000E-03 0. -1.
<mgrwt>
<rscale>  0 0.92053609E+02</rscale>
<asrwt>0</asrwt>
<pdfrwt beam="1">  1        2 0.14104965E-01 0.92053609E+02</pdfrwt>
<pdfrwt beam="2">  1       -2 0.35548635E-02 0.92053609E+02</pdfrwt>
<totfact> 0.11638913E+05</totfact>
</mgrwt>
</event>
<event>
 4    1  0.2799021E+000  0.1613976E+03  0.7818608E-02  0.1187128E+00
         -2   -1    0    0    0  501 -0.00000000000E+00  0.00000000000E+00  0.84018949941E+02  0.84018949982E+02  0.26000000000E-02 0.  1.
          2   -1    0    0  501    0  0.00000000000E+00 -0.00000000000E+00 -0.77509882439E+02  0.77509882483E+02  0.26000000000E-02 0. -1.
        -11    1    1    2    0    0 -0.32131668904E+02 -0.82937753653E+00  0.77336100744E+02  0.83749653684E+02  0.51100000000E-03 0.  1.
         11    1    1    2    0    0  0.32131668904E+02  0.82937753653E+00 -0.70827033241E+02  0.77779178780E+02  0.51100000000E-03 0. -1.
<mgrwt>
<rscale>  0 0.16139763E+03</rscale>
<asrwt>0</asrwt>
<pdfrwt beam="2">  1        2 0.11924597E-01 0.16139763E+03</pdfrwt>
<pdfrwt beam="1">  1       -2 0.12925992E-01 0.16139763E+03</pdfrwt>
<totfact> 0.21212700E+04</totfact>
</mgrwt>
</event>
<event>
 5    1  0.2799021E+000  0.9003234E+02  0.7818608E-02  0.1302773E+00
         -2   -1    0    0    0  501 -0.00000000000E+00  0.00000000000E+00  0.10722122275E+03  0.10722122278E+03  0.26000000000E-02 0.  1.
          2   -1    0    0  501    0  0.00000000000E+00 -0.00000000000E+00 -0.18899760001E+02  0.18899760180E+02  0.26000000000E-02 0. -1.
         23    2    1    2    0    0  0.00000000000E+00  0.00000000000E+00  0.88321462745E+02  0.12612098296E+03  0.90032336195E+02 0.  0.
        -11    1    3    3    0    0 -0.10442410171E+02  0.33896674268E+02  0.82992763345E+02  0.90254236602E+02  0.51100000000E-03 0.  1.
         11    1    3    3    0    0  0.10442410171E+02 -0.33896674268E+02  0.53286993995E+01  0.35866746356E+02  0.51100000000E-03 0. -1.
<mgrwt>
<rscale>  0 0.90032336E+02</rscale>
<asrwt>0</asrwt>
<pdfrwt beam="2">  1        2 0.29076554E-02 0.90032336E+02</pdfrwt>
<pdfrwt beam="1">  1       -2 0.16495573E-01 0.90032336E+02</pdfrwt>
<totfact> 0.80642040E+04</totfact>
</mgrwt>
</event>
<event>
 5    1  0.2799021E+000  0.9042140E+02  0.7818608E-02  0.1301834E+00
         -2   -1    0    0    0  501 -0.00000000000E+00  0.00000000000E+00  0.32652179636E+02  0.32652179739E+02  0.26000000000E-02 0. -1.
          2   -1    0    0  501    0  0.00000000000E+00 -0.00000000000E+00 -0.62599421189E+02  0.62599421243E+02  0.26000000000E-02 0.  1.
         23    2    1    2    0    0  0.00000000000E+00  0.00000000000E+00 -0.29947241553E+02  0.95251600982E+02  0.90421403512E+02 0.  0.
        -11    1    3    3    0    0  0.37969025386E+02  0.17972197989E+02  0.26333135687E+01  0.42090154787E+02  0.51100000000E-03 0. -1.
         11    1    3    3    0    0 -0.37969025386E+02 -0.17972197989E+02 -0.32580555122E+02  0.53161446196E+02  0.51100000000E-03 0.  1.
<mgrwt>
<rscale>  0 0.90421404E+02</rscale>
<asrwt>0</asrwt>
<pdfrwt beam="2">  1        2 0.96306802E-02 0.90421404E+02</pdfrwt>
<pdfrwt beam="1">  1       -2 0.50234123E-02 0.90421404E+02</pdfrwt>
<totfact> 0.10982617E+05</totfact>
</mgrwt>
</event>
<event>
 5    1  0.2799021E+000  0.9135672E+02  0.7818608E-02  0.1299599E+00
          2   -1    0    0  501    0  0.00000000000E+00  0.00000000000E+00  0.65370055828E+02  0.65370055879E+02  0.26000000000E-02 0.  1.
         -2   -1    0    0    0  501 -0.00000000000E+00 -0.00000000000E+00 -0.31918477400E+02  0.31918477506E+02  0.26000000000E-02 0. -1.
         23    2    1    2    0    0  0.00000000000E+00  0.00000000000E+00  0.33451578428E+02  0.97288533385E+02  0.91356721860E+02 0.  0.
        -11    1    3    3    0    0 -0.41190627025E+02 -0.56832521219E+01 -0.34108429170E+01  0.41720510053E+02  0.51100000000E-03 0. -1.
         11    1    3    3    0    0  0.41190627025E+02  0.56832521219E+01  0.36862421345E+02  0.55568023332E+02  0.51100000000E-03 0.  1.
<mgrwt>
<rscale>  0 0.91356722E+02</rscale>
<asrwt>0</asrwt>
<pdfrwt beam="1">  1        2 0.10056931E-01 0.91356722E+02</pdfrwt>
<pdfrwt beam="2">  1       -2 0.49105351E-02 0.91356722E+02</pdfrwt>
<totfact> 0.10795809E+05</totfact>
</mgrwt>
</event>
<event>
 5    1  0.2799021E+000  0.9113143E+02  0.7818608E-02  0.1300135E+00
          2   -1    0    0  501    0  0.00000000000E+00  0.00000000000E+00  0.25894621037E+02  0.25894621167E+02  0.26000000000E-02 0. -1.
         -2   -1    0    0    0  501 -0.00000000000E+00 -0.00000000000E+00 -0.80180133791E+02  0.80180133833E+02  0.26000000000E-02 0.  1.
         23    2    1    2    0    0  0.00000000000E+00  0.00000000000E+00 -0.54285512755E+02  0.10607475500E+03  0.91131425718E+02 0.  0.
        -11    1    3    3    0    0 -0.14506864489E+02 -0.10437766369E+02 -0.75930388879E+02  0.78005256487E+02  0.51100000000E-03 0.  1.
         11    1    3    3    0    0  0.14506864489E+02  0.10437766369E+02  0.21644876125E+02  0.28069498513E+02  0.51100000000E-03 0. -1.
<mgrwt>
<rscale>  0 0.91131426E+02</rscale>
<asrwt>0</asrwt>
<pdfrwt beam="1">  1        2 0.39837879E-02 0.91131426E+02</pdfrwt>
<pdfrwt beam="2">  1       -2 0.12335405E-01 0.91131426E+02</pdfrwt>
<totfact> 0.85130128E+04</totfact>
</mgrwt>
</event>
<event>
 5    1  0.2799021E+000  0.9103747E+02  0.7818608E-02  0.1300359E+00
          2   -1    0    0  501    0  0.00000000000E+00  0.00000000000E+00  0.22061188730E+02  0.22061188883E+02  0.26000000000E-02 0. -1.
         -2   -1    0    0    0  501 -0.00000000000E+00 -0.00000000000E+00 -0.93918559649E+02  0.93918559685E+02  0.26000000000E-02 0.  1.
         23    2    1    2    0    0  0.00000000000E+00  0.00000000000E+00 -0.71857370919E+02  0.11597974857E+03  0.91037466587E+02 0.  0.
        -11    1    3    3    0    0 -0.42691146387E+02 -0.54956934237E+01 -0.17066128901E+02  0.46303232954E+02  0.51100000000E-03 0. -1.
         11    1    3    3    0    0  0.42691146387E+02  0.54956934237E+01 -0.54791242018E+02  0.69676515614E+02  0.51100000000E-03 0.  1.
<mgrwt>
<rscale>  0 0.91037467E+02</rscale>
<asrwt>0</asrwt>
<pdfrwt beam="1">  1        2 0.33940291E-02 0.91037467E+02</pdfrwt>
<pdfrwt beam="2">  1       -2 0.14449009E-01 0.91037467E+02</pdfrwt>
<totfact> 0.81605618E+04</totfact>
</mgrwt>
</event>
<event>
 5    1  0.2799021E+000  0.8583240E+02  0.7818608E-02  0.1313270E+00
         -2   -1    0    0    0  501 -0.00000000000E+00  0.00000000000E+00  0.15209078457E+03  0.15209078459E+03  0.26000000000E-02 0.  1.
          2   -1    0    0  501    0  0.00000000000E+00 -0.00000000000E+00 -0.12109874548E+02  0.12109874827E+02  0.26000000000E-02 0. -1.
         23    2    1    2    0    0  0.00000000000E+00  0.00000000000E+00  0.13998091002E+03  0.16420065942E+03  0.85832402875E+02 0.  0.
        -11    1    3    3    0    0  0.42729835199E+02 -0.57626767184E+00  0.62427432297E+02  0.75652859853E+02  0.51100000000E-03 0. -1.
         11    1    3    3    0    0 -0.42729835199E+02  0.57626767184E+00  0.77553477723E+02  0.88547799565E+02  0.51100000000E-03 0.  1.
<mgrwt>
<rscale>  0 0.85832403E+02</rscale>
<asrwt>0</asrwt>
<pdfrwt beam="2">  1        2 0.18630575E-02 0.85832403E+02</pdfrwt>
<pdfrwt beam="1">  1       -2 0.23398585E-01 0.85832403E+02</pdfrwt>
<totfact> 0.80978636E+04</totfact>
</mgrwt>
</event>
<event>
 5    1  0.2799021E+000  0.9417275E+02  0.7818608E-02  0.1293050E+00
          2   -1    0    0  501    0  0.00000000000E+00  0.00000000000E+00  0.50074336986E+02  0.50074337054E+02  0.26000000000E-02 0. -1.
         -2   -1    0    0    0  501 -0.00000000000E+00 -0.00000000000E+00 -0.44276703989E+02  0.44276704065E+02  0.26000000000E-02 0.  1.
         23    2    1    2    0    0  0.00000000000E+00  0.00000000000E+00  0.57976329975E+01  0.94351041119E+02  0.94172747713E+02 0.  0.
        -11    1    3    3    0    0  0.14391026646E+02  0.31058695494E+02  0.35292403755E+02  0.49166024619E+02  0.51100000000E-03 0. -1.
         11    1    3    3    0    0 -0.14391026646E+02 -0.31058695494E+02 -0.29494770758E+02  0.45185016500E+02  0.51100000000E-03 0.  1.
<mgrwt>
<rscale>  0 0.94172748E+02</rscale>
<asrwt>0</asrwt>
<pdfrwt beam="1">  1        2 0.77037442E-02 0.94172748E+02</pdfrwt>
<pdfrwt beam="2">  1       -2 0.68118006E-02 0.94172748E+02</pdfrwt>
<totfact> 0.92175138E+04</totfact>
</mgrwt>
</event>
<event>
 5    1  0.2799021E+000  0.9365948E+02  0.7818608E-02  0.1294224E+00
         -2   -1    0    0    0  501 -0.00000000000E+00  0.00000000000E+00  0.63346059831E+01  0.63346065166E+01  0.26000000000E-02 0.  1.
          2   -1    0    0  501    0  0.00000000000E+00 -0.00000000000E+00 -0.34619742760E+03  0.34619742761E+03  0.26000000000E-02 0. -1.
         23    2    1    2    0    0  0.00000000000E+00  0.00000000000E+00 -0.33986282162E+03  0.35253203413E+03  0.93659476658E+02 0.  0.
        -11    1    3    3    0    0 -0.44287244935E+02 -0.12832430761E+02 -0.13912353672E+03  0.14656530903E+03  0.51100000000E-03 0.  1.
         11    1    3    3    0    0  0.44287244935E+02  0.12832430761E+02 -0.20073928490E+03  0.20596672509E+03  0.51100000000E-03 0. -1.
<mgrwt>
<rscale>  0 0.93659477E+02</rscale>
<asrwt>0</asrwt>
<pdfrwt beam="2">  1        2 0.53261128E-01 0.93659477E+02</pdfrwt>
<pdfrwt beam="1">  1       -2 0.97455508E-03 0.93659477E+02</pdfrwt>
<totfact> 0.17634173E+05</totfact>
</mgrwt>
</event>
<event>
 5    1  0.2799021E+000  0.8960537E+02  0.7818608E-02  0.1303810E+00
          2   -1    0    0  501    0  0.00000000000E+00  0.00000000000E+00  0.37481084969E+02  0.37481085059E+02  0.26000000000E-02 0. -1.
         -2   -1    0    0    0  501 -0.00000000000E+00 -0.00000000000E+00 -0.53554496202E+02  0.53554496265E+02  0.26000000000E-02 0.  1.
         23    2    1    2    0    0  0.00000000000E+00  0.00000000000E+00 -0.16073411233E+02  0.91035581325E+02  0.89605371036E+02 0.  0.
        -11    1    3    3    0    0  0.23634024100E+02  0.24803544471E+02  0.21294460825E+02  0.40339025466E+02  0.51100000000E-03 0. -1.
         11    1    3    3    0    0 -0.23634024100E+02 -0.24803544471E+02 -0.37367872058E+02  0.50696555858E+02  0.51100000000E-03 0.  1.
<mgrwt>
<rscale>  0 0.89605371E+02</rscale>
<asrwt>0</asrwt>
<pdfrwt beam="1">  1        2 0.57663208E-02 0.89605371E+02</pdfrwt>
<pdfrwt beam="2">  1       -2 0.82391533E-02 0.89605371E+02</pdfrwt>
<totfact> 0.98650177E+04</totfact>
</mgrwt>
</event>
<event>
 5    1  0.2799021E+000  0.9177246E+02  0.7818608E-02  0.1298615E+00
         -2   -1    0    0    0  501 -0.00000000000E+00  0.00000000000E+00  0.14867771998E+02  0.14867772225E+02  0.26000000000E-02 0.  1.
          2   -1    0    0  501    0  0.00000000000E+00 -0.00000000000E+00 -0.14161814229E+03  0.14161814231E+03  0.26000000000E-02 0. -1.
         23    2    1    2    0    0  0.00000000000E+00  0.00000000000E+00 -0.12675037029E+03  0.15648591454E+03  0.91772463625E+02 0.  0.
        -11    1    3    3    0    0 -0.30095085345E+02  0.10668547743E+02 -0.71823928698E+01  0.32727951975E+02  0.51100000000E-03 0.  1.
         11    1    3    3    0    0  0.30095085345E+02 -0.10668547743E+02 -0.11956797742E+03  0.12375796256E+03  0.51100000000E-03 0. -1.
<mgrwt>
<rscale>  0 0.91772464E+02</rscale>
<asrwt>0</asrwt>
<pdfrwt beam="2">  1        2 0.21787406E-01 0.91772464E+02</pdfrwt>
<pdfrwt beam="1">  1       -2 0.22873497E-02 0.91772464E+02</pdfrwt>
<totfact> 0.13471082E+05</totfact>
</mgrwt>
</event>
<event>
 5    1  0.2799021E+000  0.8755326E+02  0.7818608E-02  0.1308887E+00
         -2   -1    0    0    0  501 -0.00000000000E+00  0.00000000000E+00  0.33254633010E+02  0.33254633112E+02  0.26000000000E-02 0.  1.
          2   -1    0    0  501    0  0.00000000000E+00 -0.00000000000E+00 -0.57627864081E+02  0.57627864139E+02  0.26000000000E-02 0. -1.
         23    2    1    2    0    0  0.00000000000E+00  0.00000000000E+00 -0.24373231070E+02  0.90882497251E+02  0.87553263296E+02 0.  0.
        -11    1    3    3    0    0 -0.32386332878E+02 -0.31601642213E+01 -0.42583785617E+02  0.53593283095E+02  0.51100000000E-03 0. -1.
         11    1    3    3    0    0  0.32386332878E+02  0.31601642213E+01  0.18210554547E+02  0.37289214156E+02  0.51100000000E-03 0.  1.
<mgrwt>
<rscale>  0 0.87553263E+02</rscale>
<asrwt>0</asrwt>
<pdfrwt beam="2">  1        2 0.88658252E-02 0.87553263E+02</pdfrwt>
<pdfrwt beam="1">  1       -2 0.51160974E-02 0.87553263E+02</pdfrwt>
<totfact> 0.11761821E+05</totfact>
</mgrwt>
</event>
<event>
 5    1  0.2799021E+000  0.9058044E+02  0.7818608E-02  0.1301452E+00
          2   -1    0    0  501    0  0.00000000000E+00  0.00000000000E+00  0.21034718692E+02  0.21034718852E+02  0.26000000000E-02 0. -1.
         -2   -1    0    0    0  501 -0.00000000000E+00 -0.00000000000E+00 -0.97515158978E+02  0.97515159013E+02  0.26000000000E-02 0.  1.
         23    2    1    2    0    0  0.00000000000E+00  0.00000000000E+00 -0.76480440286E+02  0.11854987787E+03  0.90580438261E+02 0.  0.
        -11    1    3    3    0    0 -0.15475241039E+02 -0.24846611371E+02 -0.83471153388E+02  0.88454907326E+02  0.51100000000E-03 0.  1.
         11    1    3    3    0    0  0.15475241039E+02  0.24846611371E+02  0.69907131017E+01  0.30094970539E+02  0.51100000000E-03 0. -1.
<mgrwt>
<rscale>  0 0.90580438E+02</rscale>
<asrwt>0</asrwt>
<pdfrwt beam="1">  1        2 0.32361106E-02 0.90580438E+02</pdfrwt>
<pdfrwt beam="2">  1       -2 0.15002332E-01 0.90580438E+02</pdfrwt>
<totfact> 0.81726125E+04</totfact>
</mgrwt>
</event>
<event>
 5    1  0.2799021E+000  0.8967445E+02  0.7818608E-02  0.1303642E+00
         -2   -1    0    0    0  501 -0.00000000000E+00  0.00000000000E+00  0.21117161653E+02  0.21117161813E+02  0.26000000000E-02 0.  1.
          2   -1    0    0  501    0  0.00000000000E+00 -0.00000000000E+00 -0.95201090085E+02  0.95201090120E+02  0.26000000000E-02 0. -1.
         23    2    1    2    0    0  0.00000000000E+00  0.00000000000E+00 -0.74083928432E+02  0.11631825193E+03  0.89674451662E+02 0.  0.
        -11    1    3    3    0    0  0.11064002338E+02 -0.19180215554E+02 -0.87614290526E+02  0.90369003098E+02  0.51100000000E-03 0. -1.
         11    1    3    3    0    0 -0.11064002338E+02  0.19180215554E+02  0.13530362093E+02  0.25949248835E+02  0.51100000000E-03 0.  1.
<mgrwt>
<rscale>  0 0.89674452E+02</rscale>
<asrwt>0</asrwt>
<pdfrwt beam="2">  1        2 0.14646321E-01 0.89674452E+02</pdfrwt>
<pdfrwt beam="1">  1       -2 0.32487942E-02 0.89674452E+02</pdfrwt>
<totfact> 0.12652190E+05</totfact>
</mgrwt>
</event>
<event>
 5    1  0.2799021E+000  0.7155724E+02  0.7818608E-02  0.1354876E+00
         -2   -1    0    0    0  501 -0.00000000000E+00  0.00000000000E+00  0.10685977857E+02  0.10685978174E+02  0.26000000000E-02 0. -1.
          2   -1    0    0  501    0  0.00000000000E+00 -0.00000000000E+00 -0.11979341530E+03  0.11979341532E+03  0.26000000000E-02 0.  1.
         23    2    1    2    0    0  0.00000000000E+00  0.00000000000E+00 -0.10910743744E+03  0.13047939350E+03  0.71557244379E+02 0.  0.
        -11    1    3    3    0    0 -0.30284595729E+02 -0.12965104600E+02 -0.80007288588E+02  0.86524082793E+02  0.51100000000E-03 0.  1.
         11    1    3    3    0    0  0.30284595729E+02  0.12965104600E+02 -0.29100148850E+02  0.43955310704E+02  0.51100000000E-03 0. -1.
<mgrwt>
<rscale>  0 0.71557244E+02</rscale>
<asrwt>0</asrwt>
<pdfrwt beam="2">  1        2 0.18429755E-01 0.71557244E+02</pdfrwt>
<pdfrwt beam="1">  1       -2 0.16439967E-02 0.71557244E+02</pdfrwt>
<totfact> 0.24897006E+05</totfact>
</mgrwt>
</event>
<event>
 5    1  0.2799021E+000  0.9071216E+02  0.7818608E-02  0.1301136E+00
         -2   -1    0    0    0  501 -0.00000000000E+00  0.00000000000E+00  0.77030850939E+01  0.77030855327E+01  0.26000000000E-02 0.  1.
          2   -1    0    0  501    0  0.00000000000E+00 -0.00000000000E+00 -0.26705843269E+03  0.26705843270E+03  0.26000000000E-02 0. -1.
         23    2    1    2    0    0  0.00000000000E+00  0.00000000000E+00 -0.25935534760E+03  0.27476151823E+03  0.90712157820E+02 0.  0.
        -11    1    3    3    0    0  0.22194806493E+02  0.35708559382E+02 -0.78144472382E+02  0.88737079130E+02  0.51100000000E-03 0.  1.
         11    1    3    3    0    0 -0.22194806493E+02 -0.35708559382E+02 -0.18121087521E+03  0.18602443910E+03  0.51100000000E-03 0. -1.
<mgrwt>
<rscale>  0 0.90712158E+02</rscale>
<asrwt>0</asrwt>
<pdfrwt beam="2">  1        2 0.41085906E-01 0.90712158E+02</pdfrwt>
<pdfrwt beam="1">  1       -2 0.11850903E-02 0.90712158E+02</pdfrwt>
<totfact> 0.17439744E+05</totfact>
</mgrwt>
</event>
<event>
 5    1  0.2799021E+000  0.9035000E+02  0.7818608E-02  0.1302006E+00
          2   -1    0    0  501    0  0.00000000000E+00  0.00000000000E+00  0.22192705553E+03  0.22192705555E+03  0.26000000000E-02 0. -1.
         -2   -1    0    0    0  501 -0.00000000000E+00 -0.00000000000E+00 -0.91957263962E+01  0.91957267638E+01  0.26000000000E-02 0.  1.
         23    2    1    2    0    0  0.00000000000E+00  0.00000000000E+00  0.21273132913E+03  0.23112278231E+03  0.90349997827E+02 0.  0.
        -11    1    3    3    0    0 -0.33743711057E+02 -0.19380126868E+02  0.16506534376E+03  0.16959007950E+03  0.51100000000E-03 0. -1.
         11    1    3    3    0    0  0.33743711057E+02  0.19380126868E+02  0.47665985373E+02  0.61532702810E+02  0.51100000000E-03 0.  1.
<mgrwt>
<rscale>  0 0.90349998E+02</rscale>
<asrwt>0</asrwt>
<pdfrwt beam="1">  1        2 0.34142624E-01 0.90349998E+02</pdfrwt>
<pdfrwt beam="2">  1       -2 0.14147272E-02 0.90349998E+02</pdfrwt>
<totfact> 0.16462744E+05</totfact>
</mgrwt>
</event>
<event>
 5    1  0.2799021E+000  0.7010531E+02  0.7818608E-02  0.1359735E+00
          2   -1    0    0  501    0  0.00000000000E+00  0.00000000000E+00  0.69771156589E+02  0.69771156638E+02  0.26000000000E-02 0.  1.
         -2   -1    0    0    0  501 -0.00000000000E+00 -0.00000000000E+00 -0.17610266737E+02  0.17610266929E+02  0.26000000000E-02 0. -1.
         23    2    1    2    0    0  0.00000000000E+00  0.00000000000E+00  0.52160889852E+02  0.87381423566E+02  0.70105311884E+02 0.  0.
        -11    1    3    3    0    0 -0.21210355639E+02 -0.46684244174E+01  0.60374632818E+02  0.64162057799E+02  0.51100000000E-03 0.  1.
         11    1    3    3    0    0  0.21210355639E+02  0.46684244174E+01 -0.82137429659E+01  0.23219365767E+02  0.51100000000E-03 0. -1.
<mgrwt>
<rscale>  0 0.70105312E+02</rscale>
<asrwt>0</asrwt>
<pdfrwt beam="1">  1        2 0.10734024E-01 0.70105312E+02</pdfrwt>
<pdfrwt beam="2">  1       -2 0.27092719E-02 0.70105312E+02</pdfrwt>
<totfact> 0.22691286E+05</totfact>
</mgrwt>
</event>
<event>
 5    1  0.2799021E+000  0.9125645E+02  0.7818608E-02  0.1299837E+00
         -2   -1    0    0    0  501 -0.00000000000E+00  0.00000000000E+00  0.17298061039E+03  0.17298061041E+03  0.26000000000E-02 0.  1.
          2   -1    0    0  501    0  0.00000000000E+00 -0.00000000000E+00 -0.12035654650E+02  0.12035654931E+02  0.26000000000E-02 0. -1.
         23    2    1    2    0    0  0.00000000000E+00  0.00000000000E+00  0.16094495574E+03  0.18501626534E+03  0.91256449979E+02 0.  0.
        -11    1    3    3    0    0  0.31163195768E+02 -0.59914541084E+01  0.14694296803E+03  0.15033056291E+03  0.51100000000E-03 0.  1.
         11    1    3    3    0    0 -0.31163195768E+02  0.59914541084E+01  0.14001987714E+02  0.34685702429E+02  0.51100000000E-03 0. -1.
<mgrwt>
<rscale>  0 0.91256450E+02</rscale>
<asrwt>0</asrwt>
<pdfrwt beam="2">  1        2 0.18516393E-02 0.91256450E+02</pdfrwt>
<pdfrwt beam="1">  1       -2 0.26612400E-01 0.91256450E+02</pdfrwt>
<totfact> 0.66032778E+04</totfact>
</mgrwt>
</event>
<event>
 5    1  0.2799021E+000  0.9007282E+02  0.7818608E-02  0.1302675E+00
         -2   -1    0    0    0  501 -0.00000000000E+00  0.00000000000E+00  0.88176733689E+01  0.88176737522E+01  0.26000000000E-02 0.  1.
          2   -1    0    0  501    0  0.00000000000E+00 -0.00000000000E+00 -0.23002420086E+03  0.23002420087E+03  0.26000000000E-02 0. -1.
         23    2    1    2    0    0  0.00000000000E+00  0.00000000000E+00 -0.22120652749E+03  0.23884187462E+03  0.90072822042E+02 0.  0.
        -11    1    3    3    0    0  0.25649243128E+02  0.35453470194E+02 -0.13884630616E+03  0.14557860061E+03  0.51100000000E-03 0.  1.
         11    1    3    3    0    0 -0.25649243128E+02 -0.35453470194E+02 -0.82360221329E+02  0.93263274012E+02  0.51100000000E-03 0. -1.
<mgrwt>
<rscale>  0 0.90072822E+02</rscale>
<asrwt>0</asrwt>
<pdfrwt beam="2">  1        2 0.35388334E-01 0.90072822E+02</pdfrwt>
<pdfrwt beam="1">  1       -2 0.13565653E-02 0.90072822E+02</pdfrwt>
<totfact> 0.16818250E+05</totfact>
</mgrwt>
</event>
<event>
 5    1  0.2799021E+000  0.9141592E+02  0.7818608E-02  0.1299459E+00
          2   -1    0    0  501    0  0.00000000000E+00  0.00000000000E+00  0.44453266208E+02  0.44453266284E+02  0.26000000000E-02 0. -1.
         -2   -1    0    0    0  501 -0.00000000000E+00 -0.00000000000E+00 -0.46998063866E+02  0.46998063938E+02  0.26000000000E-02 0.  1.
         23    2    1    2    0    0  0.00000000000E+00  0.00000000000E+00 -0.25447976578E+01  0.91451330222E+02  0.91415916581E+02 0.  0.
        -11    1    3    3    0    0 -0.34195578932E+02 -0.21471063900E+02  0.20157226513E+02  0.45129347264E+02  0.51100000000E-03 0. -1.
         11    1    3    3    0    0  0.34195578932E+02  0.21471063900E+02 -0.22702024171E+02  0.46321982958E+02  0.51100000000E-03 0.  1.
<mgrwt>
<rscale>  0 0.91415917E+02</rscale>
<asrwt>0</asrwt>
<pdfrwt beam="1">  1        2 0.68389641E-02 0.91415917E+02</pdfrwt>
<pdfrwt beam="2">  1       -2 0.72304713E-02 0.91415917E+02</pdfrwt>
<totfact> 0.97295179E+04</totfact>
</mgrwt>
</event>
<event>
 5    1  0.2799021E+000  0.9494543E+02  0.7818608E-02  0.1291299E+00
         -2   -1    0    0    0  501 -0.00000000000E+00  0.00000000000E+00  0.39976042273E+02  0.39976042358E+02  0.26000000000E-02 0.  1.
          2   -1    0    0  501    0  0.00000000000E+00 -0.00000000000E+00 -0.56375230230E+02  0.56375230290E+02  0.26000000000E-02 0. -1.
         23    2    1    2    0    0  0.00000000000E+00  0.00000000000E+00 -0.16399187957E+02  0.96351272648E+02  0.94945428407E+02 0.  0.
        -11    1    3    3    0    0  0.28533630552E+02  0.24145891201E+01  0.30224755494E+02  0.41635731746E+02  0.51100000000E-03 0.  1.
         11    1    3    3    0    0 -0.28533630552E+02 -0.24145891201E+01 -0.46623943451E+02  0.54715540903E+02  0.51100000000E-03 0. -1.
<mgrwt>
<rscale>  0 0.94945428E+02</rscale>
<asrwt>0</asrwt>
<pdfrwt beam="2">  1        2 0.86731124E-02 0.94945428E+02</pdfrwt>
<pdfrwt beam="1">  1       -2 0.61501603E-02 0.94945428E+02</pdfrwt>
<totfact> 0.92970746E+04</totfact>
</mgrwt>
</event>
<event>
 5    1  0.2799021E+000  0.9020032E+02  0.7818608E-02  0.1302367E+00
          2   -1    0    0  501    0  0.00000000000E+00  0.00000000000E+00  0.78150587424E+02  0.78150587467E+02  0.26000000000E-02 0. -1.
         -2   -1    0    0    0  501 -0.00000000000E+00 -0.00000000000E+00 -0.26026986237E+02  0.26026986367E+02  0.26000000000E-02 0.  1.
         23    2    1    2    0    0  0.00000000000E+00  0.00000000000E+00  0.52123601187E+02  0.10417757383E+03  0.90200316458E+02 0.  0.
        -11    1    3    3    0    0  0.19146902904E+02  0.32829670009E+02 -0.19833078251E+01  0.38056860537E+02  0.51100000000E-03 0.  1.
         11    1    3    3    0    0 -0.19146902904E+02 -0.32829670009E+02  0.54106909013E+02  0.66120713297E+02  0.51100000000E-03 0. -1.
<mgrwt>
<rscale>  0 0.90200316E+02</rscale>
<asrwt>0</asrwt>
<pdfrwt beam="1">  1        2 0.12023167E-01 0.90200316E+02</pdfrwt>
<pdfrwt beam="2">  1       -2 0.40041518E-02 0.90200316E+02</pdfrwt>
<totfact> 0.11755654E+05</totfact>
</mgrwt>
</event>
<event>
 5    1  0.2799021E+000  0.9086087E+02  0.7818608E-02  0.1300780E+00
          2   -1    0    0  501    0  0.00000000000E+00  0.00000000000E+00  0.40615436167E+03  0.40615436167E+03  0.26000000000E-02 0. -1.
         -2   -1    0    0    0  501 -0.00000000000E+00 -0.00000000000E+00 -0.50816248589E+01  0.50816255240E+01  0.26000000000E-02 0.  1.
         23    2    1    2    0    0  0.00000000000E+00  0.00000000000E+00  0.40107273681E+03  0.41123598720E+03  0.90860865927E+02 0.  0.
        -11    1    3    3    0    0 -0.43704088473E+02  0.11003272283E+02  0.22645926492E+03  0.23090023390E+03  0.51100000000E-03 0.  1.
         11    1    3    3    0    0  0.43704088473E+02 -0.11003272283E+02  0.17461347189E+03  0.18033575329E+03  0.51100000000E-03 0. -1.
<mgrwt>
<rscale>  0 0.90860866E+02</rscale>
<asrwt>0</asrwt>
<pdfrwt beam="1">  1        2 0.62485278E-01 0.90860866E+02</pdfrwt>
<pdfrwt beam="2">  1       -2 0.78178859E-03 0.90860866E+02</pdfrwt>
<totfact> 0.20257267E+05</totfact>
</mgrwt>
</event>
<event>
 5    1  0.2799021E+000  0.9165674E+02  0.7818608E-02  0.1298889E+00
          2   -1    0    0  501    0  0.00000000000E+00  0.00000000000E+00  0.58167351940E+01  0.58167357751E+01  0.26000000000E-02 0. -1.
         -2   -1    0    0    0  501 -0.00000000000E+00 -0.00000000000E+00 -0.36106841898E+03  0.36106841899E+03  0.26000000000E-02 0.  1.
         23    2    1    2    0    0  0.00000000000E+00  0.00000000000E+00 -0.35525168379E+03  0.36688515477E+03  0.91656739817E+02 0.  0.
        -11    1    3    3    0    0  0.82263623254E+01 -0.41233963682E+02 -0.25059651374E+03  0.25409944017E+03  0.51100000000E-03 0.  1.
         11    1    3    3    0    0 -0.82263623254E+01  0.41233963682E+02 -0.10465517005E+03  0.11278571460E+03  0.51100000000E-03 0. -1.
<mgrwt>
<rscale>  0 0.91656740E+02</rscale>
<asrwt>0</asrwt>
<pdfrwt beam="1">  1        2 0.89488267E-03 0.91656740E+02</pdfrwt>
<pdfrwt beam="2">  1       -2 0.55548970E-01 0.91656740E+02</pdfrwt>
<totfact> 0.45039242E+04</totfact>
</mgrwt>
</event>
<event>
 5    1  0.2799021E+000  0.9153417E+02  0.7818608E-02  0.1299178E+00
         -2   -1    0    0    0  501 -0.00000000000E+00  0.00000000000E+00  0.17909694415E+02  0.17909694603E+02  0.26000000000E-02 0.  1.
          2   -1    0    0  501    0  0.00000000000E+00 -0.00000000000E+00 -0.11695486436E+03  0.11695486439E+03  0.26000000000E-02 0. -1.
         23    2    1    2    0    0  0.00000000000E+00  0.00000000000E+00 -0.99045169947E+02  0.13486455899E+03  0.91534166205E+02 0.  0.
        -11    1    3    3    0    0 -0.17083470315E+02 -0.15496722260E+02 -0.10776549129E+03  0.11020614535E+03  0.51100000000E-03 0. -1.
         11    1    3    3    0    0  0.17083470315E+02  0.15496722260E+02  0.87203213466E+01  0.24658413644E+02  0.51100000000E-03 0.  1.
<mgrwt>
<rscale>  0 0.91534166E+02</rscale>
<asrwt>0</asrwt>
<pdfrwt beam="2">  1        2 0.17993056E-01 0.91534166E+02</pdfrwt>
<pdfrwt beam="1">  1       -2 0.27553377E-02 0.91534166E+02</pdfrwt>
<totfact> 0.12743052E+05</totfact>
</mgrwt>
</event>
<event>
 5    1  0.2799021E+000  0.9160261E+02  0.7818608E-02  0.1299016E+00
          2   -1    0    0  501    0  0.00000000000E+00  0.00000000000E+00  0.87276993149E+02  0.87276993187E+02  0.26000000000E-02 0. -1.
         -2   -1    0    0    0  501 -0.00000000000E+00 -0.00000000000E+00 -0.24035655067E+02  0.24035655208E+02  0.26000000000E-02 0.  1.
         23    2    1    2    0    0  0.00000000000E+00  0.00000000000E+00  0.63241338081E+02  0.11131264840E+03  0.91602613775E+02 0.  0.
        -11    1    3    3    0    0  0.22921279195E+02 -0.21562195796E+02  0.72059445304E+02  0.78631272311E+02  0.51100000000E-03 0. -1.
         11    1    3    3    0    0 -0.22921279195E+02  0.21562195796E+02 -0.88181072231E+01  0.32681376084E+02  0.51100000000E-03 0.  1.
<mgrwt>
<rscale>  0 0.91602614E+02</rscale>
<asrwt>0</asrwt>
<pdfrwt beam="1">  1        2 0.13427230E-01 0.91602614E+02</pdfrwt>
<pdfrwt beam="2">  1       -2 0.36977932E-02 0.91602614E+02</pdfrwt>
<totfact> 0.11627650E+05</totfact>
</mgrwt>
</event>
<event>
 4    1  0.2799021E+000  0.1639990E+03  0.7818608E-02  0.1184254E+00
         -2   -1    0    0    0  501 -0.00000000000E+00  0.00000000000E+00  0.58764031519E+02  0.58764031577E+02  0.26000000000E-02 0.  1.
          2   -1    0    0  501    0  0.00000000000E+00 -0.00000000000E+00 -0.11442237450E+03  0.11442237453E+03  0.26000000000E-02 0. -1.
        -11    1    1    2    0    0 -0.59398915328E+02 -0.58951824700E+01  0.31542649046E+02  0.67512391660E+02  0.51100000000E-03 0.  1.
         11    1    1    2    0    0  0.59398915328E+02  0.58951824700E+01 -0.87200992026E+02  0.10567401445E+03  0.51100000000E-03 0. -1.
<mgrwt>
<rscale>  0 0.16399902E+03</rscale>
<asrwt>0</asrwt>
<pdfrwt beam="2">  1        2 0.17603442E-01 0.16399902E+03</pdfrwt>
<pdfrwt beam="1">  1       -2 0.90406203E-02 0.16399902E+03</pdfrwt>
<totfact> 0.23664618E+04</totfact>
</mgrwt>
</event>
<event>
 5    1  0.2799021E+000  0.9150084E+02  0.7818608E-02  0.1299257E+00
          2   -1    0    0  501    0  0.00000000000E+00  0.00000000000E+00  0.20685918357E+03  0.20685918359E+03  0.26000000000E-02 0. -1.
         -2   -1    0    0    0  501 -0.00000000000E+00 -0.00000000000E+00 -0.10118482571E+02  0.10118482905E+02  0.26000000000E-02 0.  1.
         23    2    1    2    0    0  0.00000000000E+00  0.00000000000E+00  0.19674070100E+03  0.21697766649E+03  0.91500843310E+02 0.  0.
        -11    1    3    3    0    0  0.36472479006E+02 -0.26021702481E+02  0.12032655425E+03  0.12839723666E+03  0.51100000000E-03 0. -1.
         11    1    3    3    0    0 -0.36472479006E+02  0.26021702481E+02  0.76414146752E+02  0.88580429830E+02  0.51100000000E-03 0.  1.
<mgrwt>
<rscale>  0 0.91500843E+02</rscale>
<asrwt>0</asrwt>
<pdfrwt beam="1">  1        2 0.31824490E-01 0.91500843E+02</pdfrwt>
<pdfrwt beam="2">  1       -2 0.15566896E-02 0.91500843E+02</pdfrwt>
<totfact> 0.15509351E+05</totfact>
</mgrwt>
</event>
<event>
 5    1  0.2799021E+000  0.9190810E+02  0.7818608E-02  0.1298296E+00
         -2   -1    0    0    0  501 -0.00000000000E+00  0.00000000000E+00  0.47152399906E+02  0.47152399978E+02  0.26000000000E-02 0.  1.
          2   -1    0    0  501    0  0.00000000000E+00 -0.00000000000E+00 -0.44786156654E+02  0.44786156729E+02  0.26000000000E-02 0. -1.
         23    2    1    2    0    0  0.00000000000E+00  0.00000000000E+00  0.23662432521E+01  0.91938556707E+02  0.91908101396E+02 0.  0.
        -11    1    3    3    0    0  0.35656808197E+01 -0.42585246761E+02 -0.15720923270E+02  0.45534215159E+02  0.51100000000E-03 0. -1.
         11    1    3    3    0    0 -0.35656808197E+01  0.42585246761E+02  0.18087166522E+02  0.46404341548E+02  0.51100000000E-03 0.  1.
<mgrwt>
<rscale>  0 0.91908101E+02</rscale>
<asrwt>0</asrwt>
<pdfrwt beam="2">  1        2 0.68901779E-02 0.91908101E+02</pdfrwt>
<pdfrwt beam="1">  1       -2 0.72542154E-02 0.91908101E+02</pdfrwt>
<totfact> 0.95988460E+04</totfact>
</mgrwt>
</event>
<event>
 5    1  0.2799021E+000  0.8670460E+02  0.7818608E-02  0.1311034E+00
          2   -1    0    0  501    0  0.00000000000E+00  0.00000000000E+00  0.30723220067E+02  0.30723220177E+02  0.26000000000E-02 0.  1.
         -2   -1    0    0    0  501 -0.00000000000E+00 -0.00000000000E+00 -0.61172682027E+02  0.61172682082E+02  0.26000000000E-02 0. -1.
         23    2    1    2    0    0  0.00000000000E+00  0.00000000000E+00 -0.30449461961E+02  0.91895902259E+02  0.86704596869E+02 0.  0.
        -11    1    3    3    0    0 -0.81012855783E+01 -0.37554983294E+02  0.60630112689E+01  0.38894314548E+02  0.51100000000E-03 0.  1.
         11    1    3    3    0    0  0.81012855783E+01  0.37554983294E+02 -0.36512473229E+02  0.53001587711E+02  0.51100000000E-03 0. -1.
<mgrwt>
<rscale>  0 0.86704597E+02</rscale>
<asrwt>0</asrwt>
<pdfrwt beam="1">  1        2 0.47266493E-02 0.86704597E+02</pdfrwt>
<pdfrwt beam="2">  1       -2 0.94111818E-02 0.86704597E+02</pdfrwt>
<totfact> 0.10322140E+05</totfact>
</mgrwt>
</event>
<event>
 5    1  0.2799021E+000  0.9169991E+02  0.7818608E-02  0.1298787E+00
          2   -1    0    0  501    0  0.00000000000E+00  0.00000000000E+00  0.12252037291E+03  0.12252037294E+03  0.26000000000E-02 0. -1.
         -2   -1    0    0    0  501 -0.00000000000E+00 -0.00000000000E+00 -0.17158112701E+02  0.17158112898E+02  0.26000000000E-02 0.  1.
         23    2    1    2    0    0  0.00000000000E+00  0.00000000000E+00  0.10536226021E+03  0.13967848584E+03  0.91699910192E+02 0.  0.
        -11    1    3    3    0    0  0.32340504162E+01  0.45471285893E+02  0.45200082876E+02  0.64196140189E+02  0.51100000000E-03 0.  1.
         11    1    3    3    0    0 -0.32340504162E+01 -0.45471285893E+02  0.60162177336E+02  0.75482345650E+02  0.51100000000E-03 0. -1.
<mgrwt>
<rscale>  0 0.91699910E+02</rscale>
<asrwt>0</asrwt>
<pdfrwt beam="1">  1        2 0.18849288E-01 0.91699910E+02</pdfrwt>
<pdfrwt beam="2">  1       -2 0.26397097E-02 0.91699910E+02</pdfrwt>
<totfact> 0.12870465E+05</totfact>
</mgrwt>
</event>
<event>
 5    1  0.2799021E+000  0.8018672E+02  0.7818608E-02  0.1328522E+00
          2   -1    0    0  501    0  0.00000000000E+00  0.00000000000E+00  0.19170855813E+03  0.19170855815E+03  0.26000000000E-02 0. -1.
         -2   -1    0    0    0  501 -0.00000000000E+00 -0.00000000000E+00 -0.83850069862E+01  0.83850073893E+01  0.26000000000E-02 0.  1.
         23    2    1    2    0    0  0.00000000000E+00  0.00000000000E+00  0.18332355115E+03  0.20009356554E+03  0.80186723124E+02 0.  0.
        -11    1    3    3    0    0 -0.32743054756E+02  0.95386315906E+01  0.14426472735E+03  0.14824103576E+03  0.51100000000E-03 0. -1.
         11    1    3    3    0    0  0.32743054756E+02 -0.95386315906E+01  0.39058823800E+02  0.51852529776E+02  0.51100000000E-03 0.  1.
<mgrwt>
<rscale>  0 0.80186723E+02</rscale>
<asrwt>0</asrwt>
<pdfrwt beam="1">  1        2 0.29493628E-01 0.80186723E+02</pdfrwt>
<pdfrwt beam="2">  1       -2 0.12900009E-02 0.80186723E+02</pdfrwt>
<totfact> 0.21474728E+05</totfact>
</mgrwt>
</event>
<event>
 5    1  0.2799021E+000  0.9173085E+02  0.7818608E-02  0.1298714E+00
          2   -1    0    0  501    0  0.00000000000E+00  0.00000000000E+00  0.14337151458E+03  0.14337151461E+03  0.26000000000E-02 0. -1.
         -2   -1    0    0    0  501 -0.00000000000E+00 -0.00000000000E+00 -0.14672628955E+02  0.14672629186E+02  0.26000000000E-02 0.  1.
         23    2    1    2    0    0  0.00000000000E+00  0.00000000000E+00  0.12869888563E+03  0.15804414379E+03  0.91730846640E+02 0.  0.
        -11    1    3    3    0    0  0.25529436775E+02 -0.96678382811E+01  0.84857058250E+00  0.27311889561E+02  0.51100000000E-03 0.  1.
         11    1    3    3    0    0 -0.25529436775E+02  0.96678382811E+01  0.12785031505E+03  0.13073225423E+03  0.51100000000E-03 0. -1.
<mgrwt>
<rscale>  0 0.91730847E+02</rscale>
<asrwt>0</asrwt>
<pdfrwt beam="1">  1        2 0.22057156E-01 0.91730847E+02</pdfrwt>
<pdfrwt beam="2">  1       -2 0.22573276E-02 0.91730847E+02</pdfrwt>
<totfact> 0.13543691E+05</totfact>
</mgrwt>
</event>
<event>
 5    1  0.2799021E+000  0.9235569E+02  0.7818608E-02  0.1297245E+00
          2   -1    0    0  501    0  0.00000000000E+00  0.00000000000E+00  0.66639984367E+02  0.66639984417E+02  0.26000000000E-02 0.  1.
         -2   -1    0    0    0  501 -0.00000000000E+00 -0.00000000000E+00 -0.31998705936E+02  0.31998706042E+02  0.26000000000E-02 0. -1.
         23    2    1    2    0    0  0.00000000000E+00  0.00000000000E+00  0.34641278430E+02  0.98638690459E+02  0.92355687882E+02 0.  0.
        -11    1    3    3    0    0 -0.25303192934E+02 -0.92759044751E+01  0.57369636372E+02  0.63384297379E+02  0.51100000000E-03 0.  1.
         11    1    3    3    0    0  0.25303192934E+02  0.92759044751E+01 -0.22728357942E+02  0.35254393080E+02  0.51100000000E-03 0. -1.
<mgrwt>
<rscale>  0 0.92355688E+02</rscale>
<asrwt>0</asrwt>
<pdfrwt beam="1">  1        2 0.10252305E-01 0.92355688E+02</pdfrwt>
<pdfrwt beam="2">  1       -2 0.49228779E-02 0.92355688E+02</pdfrwt>
<totfact> 0.10526064E+05</totfact>
</mgrwt>
</event>
<event>
 5    1  0.2799021E+000  0.9045611E+02  0.7818608E-02  0.1301751E+00
         -2   -1    0    0    0  501 -0.00000000000E+00  0.00000000000E+00  0.14528709957E+02  0.14528710190E+02  0.26000000000E-02 0.  1.
          2   -1    0    0  501    0  0.00000000000E+00 -0.00000000000E+00 -0.14079550845E+03  0.14079550847E+03  0.26000000000E-02 0. -1.
         23    2    1    2    0    0  0.00000000000E+00  0.00000000000E+00 -0.12626679849E+03  0.15532421866E+03  0.90456113679E+02 0.  0.
        -11    1    3    3    0    0  0.25702082233E+02  0.36813490460E+02 -0.53768072292E+02  0.70048809477E+02  0.51100000000E-03 0.  1.
         11    1    3    3    0    0 -0.25702082233E+02 -0.36813490460E+02 -0.72498726197E+02  0.85275409183E+02  0.51100000000E-03 0. -1.
<mgrwt>
<rscale>  0 0.90456114E+02</rscale>
<asrwt>0</asrwt>
<pdfrwt beam="2">  1        2 0.21660847E-01 0.90456114E+02</pdfrwt>
<pdfrwt beam="1">  1       -2 0.22351863E-02 0.90456114E+02</pdfrwt>
<totfact> 0.13983522E+05</totfact>
</mgrwt>
</event>
<event>
 5    1  0.2799021E+000  0.9542811E+02  0.7818608E-02  0.1290215E+00
         -2   -1    0    0    0  501 -0.00000000000E+00  0.00000000000E+00  0.41577016136E+02  0.41577016217E+02  0.26000000000E-02 0.  1.
          2   -1    0    0  501    0  0.00000000000E+00 -0.00000000000E+00 -0.54756963298E+02  0.54756963360E+02  0.26000000000E-02 0. -1.
         23    2    1    2    0    0  0.00000000000E+00  0.00000000000E+00 -0.13179947162E+02  0.96333979577E+02  0.95428112283E+02 0.  0.
        -11    1    3    3    0    0 -0.44897223463E+02 -0.67065368744E+01  0.82427973556E+01  0.46137642116E+02  0.51100000000E-03 0.  1.
         11    1    3    3    0    0  0.44897223463E+02  0.67065368744E+01 -0.21422744518E+02  0.50196337461E+02  0.51100000000E-03 0. -1.
<mgrwt>
<rscale>  0 0.95428112E+02</rscale>
<asrwt>0</asrwt>
<pdfrwt beam="2">  1        2 0.84241483E-02 0.95428112E+02</pdfrwt>
<pdfrwt beam="1">  1       -2 0.63964640E-02 0.95428112E+02</pdfrwt>
<totfact> 0.90908143E+04</totfact>
</mgrwt>
</event>
<event>
 5    1  0.2799021E+000  0.8938711E+02  0.7818608E-02  0.1304343E+00
         -2   -1    0    0    0  501 -0.00000000000E+00  0.00000000000E+00  0.12977738158E+02  0.12977738419E+02  0.26000000000E-02 0.  1.
          2   -1    0    0  501    0  0.00000000000E+00 -0.00000000000E+00 -0.15391850169E+03  0.15391850171E+03  0.26000000000E-02 0. -1.
         23    2    1    2    0    0  0.00000000000E+00  0.00000000000E+00 -0.14094076353E+03  0.16689624013E+03  0.89387113975E+02 0.  0.
        -11    1    3    3    0    0  0.58405940903E+01  0.29073315701E+02 -0.80364810393E+01  0.30723854786E+02  0.51100000000E-03 0.  1.
         11    1    3    3    0    0 -0.58405940903E+01 -0.29073315701E+02 -0.13290428249E+03  0.13617238535E+03  0.51100000000E-03 0. -1.
<mgrwt>
<rscale>  0 0.89387114E+02</rscale>
<asrwt>0</asrwt>
<pdfrwt beam="2">  1        2 0.23679768E-01 0.89387114E+02</pdfrwt>
<pdfrwt beam="1">  1       -2 0.19965752E-02 0.89387114E+02</pdfrwt>
<totfact> 0.14882015E+05</totfact>
</mgrwt>
</event>
<event>
 5    1  0.2799021E+000  0.9135020E+02  0.7818608E-02  0.1299615E+00
         -2   -1    0    0    0  501 -0.00000000000E+00  0.00000000000E+00  0.89932966772E+01  0.89932970530E+01  0.26000000000E-02 0.  1.
          2   -1    0    0  501    0  0.00000000000E+00 -0.00000000000E+00 -0.23197438903E+03  0.23197438904E+03  0.26000000000E-02 0. -1.
         23    2    1    2    0    0  0.00000000000E+00  0.00000000000E+00 -0.22298109235E+03  0.24096768610E+03  0.91350195382E+02 0.  0.
        -11    1    3    3    0    0 -0.38488077721E+02  0.13674545797E+02 -0.16541427432E+03  0.17038253278E+03  0.51100000000E-03 0. -1.
         11    1    3    3    0    0  0.38488077721E+02 -0.13674545797E+02 -0.57566818034E+02  0.70585153313E+02  0.51100000000E-03 0.  1.
<mgrwt>
<rscale>  0 0.91350195E+02</rscale>
<asrwt>0</asrwt>
<pdfrwt beam="2">  1        2 0.35688363E-01 0.91350195E+02</pdfrwt>
<pdfrwt beam="1">  1       -2 0.13835843E-02 0.91350195E+02</pdfrwt>
<totfact> 0.16245662E+05</totfact>
</mgrwt>
</event>
<event>
 5    1  0.2799021E+000  0.9018295E+02  0.7818608E-02  0.1302409E+00
         -2   -1    0    0    0  501 -0.00000000000E+00  0.00000000000E+00  0.59121300091E+02  0.59121300148E+02  0.26000000000E-02 0.  1.
          2   -1    0    0  501    0  0.00000000000E+00 -0.00000000000E+00 -0.34391006913E+02  0.34391007011E+02  0.26000000000E-02 0. -1.
         23    2    1    2    0    0  0.00000000000E+00  0.00000000000E+00  0.24730293178E+02  0.93512307159E+02  0.90182948441E+02 0.  0.
        -11    1    3    3    0    0 -0.76265624214E+01  0.18392612559E+02 -0.29585688536E+02  0.35661822970E+02  0.51100000000E-03 0. -1.
         11    1    3    3    0    0  0.76265624214E+01 -0.18392612559E+02  0.54315981714E+02  0.57850484190E+02  0.51100000000E-03 0.  1.
<mgrwt>
<rscale>  0 0.90182948E+02</rscale>
<asrwt>0</asrwt>
<pdfrwt beam="2">  1        2 0.52909242E-02 0.90182948E+02</pdfrwt>
<pdfrwt beam="1">  1       -2 0.90955845E-02 0.90182948E+02</pdfrwt>
<totfact> 0.94705558E+04</totfact>
</mgrwt>
</event>
<event>
 5    1  0.2799021E+000  0.9072787E+02  0.7818608E-02  0.1301099E+00
          2   -1    0    0  501    0  0.00000000000E+00  0.00000000000E+00  0.12229181797E+03  0.12229181799E+03  0.26000000000E-02 0. -1.
         -2   -1    0    0    0  501 -0.00000000000E+00 -0.00000000000E+00 -0.16827671988E+02  0.16827672189E+02  0.26000000000E-02 0.  1.
         23    2    1    2    0    0  0.00000000000E+00  0.00000000000E+00  0.10546414598E+03  0.13911949018E+03  0.90727870370E+02 0.  0.
        -11    1    3    3    0    0  0.38485747707E+01 -0.28600834756E+02 -0.93738894233E+00  0.28873828544E+02  0.51100000000E-03 0.  1.
         11    1    3    3    0    0 -0.38485747707E+01  0.28600834756E+02  0.10640153492E+03  0.11024566164E+03  0.51100000000E-03 0. -1.
<mgrwt>
<rscale>  0 0.90727870E+02</rscale>
<asrwt>0</asrwt>
<pdfrwt beam="1">  1        2 0.18814126E-01 0.90727870E+02</pdfrwt>
<pdfrwt beam="2">  1       -2 0.25888727E-02 0.90727870E+02</pdfrwt>
<totfact> 0.13242863E+05</totfact>
</mgrwt>
</event>
<event>
 5    1  0.2799021E+000  0.1036143E+03  0.7818608E-02  0.1272874E+00
         -2   -1    0    0    0  501 -0.00000000000E+00  0.00000000000E+00  0.52887461832E+02  0.52887461896E+02  0.26000000000E-02 0.  1.
          2   -1    0    0  501    0  0.00000000000E+00 -0.00000000000E+00 -0.50748871535E+02  0.50748871601E+02  0.26000000000E-02 0. -1.
         23    2    1    2    0    0  0.00000000000E+00  0.00000000000E+00  0.21385902976E+01  0.10363633350E+03  0.10361426568E+03 0.  0.
        -11    1    3    3    0    0  0.17788663326E+02  0.16226412369E+02 -0.44812536045E+02  0.50871371009E+02  0.51100000000E-03 0.  1.
         11    1    3    3    0    0 -0.17788663326E+02 -0.16226412369E+02  0.46951126343E+02  0.52764962488E+02  0.51100000000E-03 0. -1.
<mgrwt>
<rscale>  0 0.10361427E+03</rscale>
<asrwt>0</asrwt>
<pdfrwt beam="2">  1        2 0.78075187E-02 0.10361427E+03</pdfrwt>
<pdfrwt beam="1">  1       -2 0.81365326E-02 0.10361427E+03</pdfrwt>
<totfact> 0.70137465E+04</totfact>
</mgrwt>
</event>
<event>
 5    1  0.2799021E+000  0.9079117E+02  0.7818608E-02  0.1300947E+00
          2   -1    0    0  501    0  0.00000000000E+00  0.00000000000E+00  0.98446551179E+02  0.98446551214E+02  0.26000000000E-02 0. -1.
         -2   -1    0    0    0  501 -0.00000000000E+00 -0.00000000000E+00 -0.20932771172E+02  0.20932771333E+02  0.26000000000E-02 0.  1.
         23    2    1    2    0    0  0.00000000000E+00  0.00000000000E+00  0.77513780008E+02  0.11937932255E+03  0.90791170058E+02 0.  0.
        -11    1    3    3    0    0 -0.43413591705E+02  0.13195732250E+02  0.36948349118E+02  0.58515363771E+02  0.51100000000E-03 0. -1.
         11    1    3    3    0    0  0.43413591705E+02 -0.13195732250E+02  0.40565430889E+02  0.60863958776E+02  0.51100000000E-03 0.  1.
<mgrwt>
<rscale>  0 0.90791170E+02</rscale>
<asrwt>0</asrwt>
<pdfrwt beam="1">  1        2 0.15145623E-01 0.90791170E+02</pdfrwt>
<pdfrwt beam="2">  1       -2 0.32204264E-02 0.90791170E+02</pdfrwt>
<totfact> 0.12352723E+05</totfact>
</mgrwt>
</event>
<event>
 5    1  0.2799021E+000  0.9564837E+02  0.7818608E-02  0.1289722E+00
         -2   -1    0    0    0  501 -0.00000000000E+00  0.00000000000E+00  0.43360919139E+02  0.43360919217E+02  0.26000000000E-02 0.  1.
          2   -1    0    0  501    0  0.00000000000E+00 -0.00000000000E+00 -0.52746863548E+02  0.52746863612E+02  0.26000000000E-02 0. -1.
         23    2    1    2    0    0  0.00000000000E+00  0.00000000000E+00 -0.93859444084E+01  0.96107782829E+02  0.95648366258E+02 0.  0.
        -11    1    3    3    0    0 -0.55399904240E+01 -0.47272758555E+02 -0.71733811005E-02  0.47596273457E+02  0.51100000000E-03 0.  1.
         11    1    3    3    0    0  0.55399904240E+01  0.47272758555E+02 -0.93787710273E+01  0.48511509372E+02  0.51100000000E-03 0. -1.
<mgrwt>
<rscale>  0 0.95648366E+02</rscale>
<asrwt>0</asrwt>
<pdfrwt beam="2">  1        2 0.81149021E-02 0.95648366E+02</pdfrwt>
<pdfrwt beam="1">  1       -2 0.66709106E-02 0.95648366E+02</pdfrwt>
<totfact> 0.89394693E+04</totfact>
</mgrwt>
</event>
<event>
 5    1  0.2799021E+000  0.9033736E+02  0.7818608E-02  0.1302037E+00
         -2   -1    0    0    0  501 -0.00000000000E+00  0.00000000000E+00  0.31950949702E+03  0.31950949703E+03  0.26000000000E-02 0.  1.
          2   -1    0    0  501    0  0.00000000000E+00 -0.00000000000E+00 -0.63854422518E+01  0.63854427811E+01  0.26000000000E-02 0. -1.
         23    2    1    2    0    0  0.00000000000E+00  0.00000000000E+00  0.31312405476E+03  0.32589493981E+03  0.90337357280E+02 0.  0.
        -11    1    3    3    0    0 -0.35805403840E+02  0.27526469873E+02  0.15407298168E+03  0.16055596274E+03  0.51100000000E-03 0.  1.
         11    1    3    3    0    0  0.35805403840E+02 -0.27526469873E+02  0.15905107309E+03  0.16533897707E+03  0.51100000000E-03 0. -1.
<mgrwt>
<rscale>  0 0.90337357E+02</rscale>
<asrwt>0</asrwt>
<pdfrwt beam="2">  1        2 0.98237584E-03 0.90337357E+02</pdfrwt>
<pdfrwt beam="1">  1       -2 0.49155304E-01 0.90337357E+02</pdfrwt>
<totfact> 0.50375738E+04</totfact>
</mgrwt>
</event>
<event>
 5    1  0.2799021E+000  0.9118438E+02  0.7818608E-02  0.1300009E+00
         -2   -1    0    0    0  501 -0.00000000000E+00  0.00000000000E+00  0.16873394845E+03  0.16873394847E+03  0.26000000000E-02 0.  1.
          2   -1    0    0  501    0  0.00000000000E+00 -0.00000000000E+00 -0.12319084564E+02  0.12319084839E+02  0.26000000000E-02 0. -1.
         23    2    1    2    0    0  0.00000000000E+00  0.00000000000E+00  0.15641486389E+03  0.18105303331E+03  0.91184380384E+02 0.  0.
        -11    1    3    3    0    0 -0.12006241633E+02  0.40725366537E+02  0.45224091138E+02  0.62031634971E+02  0.51100000000E-03 0. -1.
         11    1    3    3    0    0  0.12006241633E+02 -0.40725366537E+02  0.11119077275E+03  0.11902139834E+03  0.51100000000E-03 0.  1.
<mgrwt>
<rscale>  0 0.91184380E+02</rscale>
<asrwt>0</asrwt>
<pdfrwt beam="2">  1        2 0.18952440E-02 0.91184380E+02</pdfrwt>
<pdfrwt beam="1">  1       -2 0.25959066E-01 0.91184380E+02</pdfrwt>
<totfact> 0.66814345E+04</totfact>
</mgrwt>
</event>
<event>
 5    1  0.2799021E+000  0.9098222E+02  0.7818608E-02  0.1300490E+00
          2   -1    0    0  501    0  0.00000000000E+00  0.00000000000E+00  0.46762677567E+02  0.46762677639E+02  0.26000000000E-02 0. -1.
         -2   -1    0    0    0  501 -0.00000000000E+00 -0.00000000000E+00 -0.44254123202E+02  0.44254123278E+02  0.26000000000E-02 0.  1.
         23    2    1    2    0    0  0.00000000000E+00  0.00000000000E+00  0.25085543651E+01  0.91016800918E+02  0.90982224661E+02 0.  0.
        -11    1    3    3    0    0  0.45217178332E+02 -0.17893857491E+01 -0.34000368163E+01  0.45380120849E+02  0.51100000000E-03 0.  1.
         11    1    3    3    0    0 -0.45217178332E+02  0.17893857491E+01  0.59085911814E+01  0.45636680069E+02  0.51100000000E-03 0. -1.
<mgrwt>
<rscale>  0 0.90982225E+02</rscale>
<asrwt>0</asrwt>
<pdfrwt beam="1">  1        2 0.71942581E-02 0.90982225E+02</pdfrwt>
<pdfrwt beam="2">  1       -2 0.68083266E-02 0.90982225E+02</pdfrwt>
<totfact> 0.99938724E+04</totfact>
</mgrwt>
</event>
<event>
 5    1  0.2799021E+000  0.9015787E+02  0.7818608E-02  0.1302470E+00
          2   -1    0    0  501    0  0.00000000000E+00  0.00000000000E+00  0.94325080549E+02  0.94325080585E+02  0.26000000000E-02 0. -1.
         -2   -1    0    0    0  501 -0.00000000000E+00 -0.00000000000E+00 -0.21543693160E+02  0.21543693317E+02  0.26000000000E-02 0.  1.
         23    2    1    2    0    0  0.00000000000E+00  0.00000000000E+00  0.72781387389E+02  0.11586877390E+03  0.90157874949E+02 0.  0.
        -11    1    3    3    0    0 -0.39489313516E+02  0.21539160530E+02  0.40196483899E+02  0.60324942075E+02  0.51100000000E-03 0. -1.
         11    1    3    3    0    0  0.39489313516E+02 -0.21539160530E+02  0.32584903490E+02  0.55543831826E+02  0.51100000000E-03 0.  1.
<mgrwt>
<rscale>  0 0.90157875E+02</rscale>
<asrwt>0</asrwt>
<pdfrwt beam="1">  1        2 0.14511551E-01 0.90157875E+02</pdfrwt>
<pdfrwt beam="2">  1       -2 0.33144143E-02 0.90157875E+02</pdfrwt>
<totfact> 0.12432113E+05</totfact>
</mgrwt>
</event>
<event>
 5    1  0.2799021E+000  0.1197301E+03  0.7818608E-02  0.1243543E+00
         -2   -1    0    0    0  501 -0.00000000000E+00  0.00000000000E+00  0.39779074148E+03  0.39779074149E+03  0.26000000000E-02 0.  1.
          2   -1    0    0  501    0  0.00000000000E+00 -0.00000000000E+00 -0.90093158530E+01  0.90093162282E+01  0.26000000000E-02 0. -1.
         23    2    1    2    0    0  0.00000000000E+00  0.00000000000E+00  0.38878142563E+03  0.40680005772E+03  0.11973007160E+03 0.  0.
        -11    1    3    3    0    0 -0.39717835594E+02 -0.41305274620E+02  0.25325828389E+03  0.25966014429E+03  0.51100000000E-03 0.  1.
         11    1    3    3    0    0  0.39717835594E+02  0.41305274620E+02  0.13552314174E+03  0.14713991343E+03  0.51100000000E-03 0. -1.
<mgrwt>
<rscale>  0 0.11973007E+03</rscale>
<asrwt>0</asrwt>
<pdfrwt beam="2">  1        2 0.13860492E-02 0.11973007E+03</pdfrwt>
<pdfrwt beam="1">  1       -2 0.61198550E-01 0.11973007E+03</pdfrwt>
<totfact> 0.21086199E+04</totfact>
</mgrwt>
</event>
<event>
 5    1  0.2799021E+000  0.9213578E+02  0.7818608E-02  0.1297760E+00
         -2   -1    0    0    0  501 -0.00000000000E+00  0.00000000000E+00  0.34210716195E+02  0.34210716294E+02  0.26000000000E-02 0.  1.
          2   -1    0    0  501    0  0.00000000000E+00 -0.00000000000E+00 -0.62034672890E+02  0.62034672944E+02  0.26000000000E-02 0. -1.
         23    2    1    2    0    0  0.00000000000E+00  0.00000000000E+00 -0.27823956695E+02  0.96245389238E+02  0.92135782319E+02 0.  0.
        -11    1    3    3    0    0  0.34174091518E+02 -0.58439763152E+01  0.17776384363E+02  0.38961781678E+02  0.51100000000E-03 0.  1.
         11    1    3    3    0    0 -0.34174091518E+02  0.58439763152E+01 -0.45600341058E+02  0.57283607560E+02  0.51100000000E-03 0. -1.
<mgrwt>
<rscale>  0 0.92135782E+02</rscale>
<asrwt>0</asrwt>
<pdfrwt beam="2">  1        2 0.95437959E-02 0.92135782E+02</pdfrwt>
<pdfrwt beam="1">  1       -2 0.52631871E-02 0.92135782E+02</pdfrwt>
<totfact> 0.10391323E+05</totfact>
</mgrwt>
</event>
<event>
 5    1  0.2799021E+000  0.9074017E+02  0.7818608E-02  0.1301069E+00
         -2   -1    0    0    0  501 -0.00000000000E+00  0.00000000000E+00  0.93106916477E+02  0.93106916514E+02  0.26000000000E-02 0.  1.
          2   -1    0    0  501    0  0.00000000000E+00 -0.00000000000E+00 -0.22108395613E+02  0.22108395766E+02  0.26000000000E-02 0. -1.
         23    2    1    2    0    0  0.00000000000E+00  0.00000000000E+00  0.70998520864E+02  0.11521531228E+03  0.90740168716E+02 0.  0.
        -11    1    3    3    0    0  0.36785311081E+02 -0.21231911507E+02  0.15243565174E+02  0.45125596473E+02  0.51100000000E-03 0. -1.
         11    1    3    3    0    0 -0.36785311081E+02  0.21231911507E+02  0.55754955690E+02  0.70089715806E+02  0.51100000000E-03 0.  1.
<mgrwt>
<rscale>  0 0.90740169E+02</rscale>
<asrwt>0</asrwt>
<pdfrwt beam="2">  1        2 0.34012917E-02 0.90740169E+02</pdfrwt>
<pdfrwt beam="1">  1       -2 0.14324141E-01 0.90740169E+02</pdfrwt>
<totfact> 0.82477198E+04</totfact>
</mgrwt>
</event>
<event>
 5    1  0.2799021E+000  0.9109045E+02  0.7818608E-02  0.1300232E+00
         -2   -1    0    0    0  501 -0.00000000000E+00  0.00000000000E+00  0.25569732505E+02  0.25569732638E+02  0.26000000000E-02 0.  1.
          2   -1    0    0  501    0  0.00000000000E+00 -0.00000000000E+00 -0.81125896055E+02  0.81125896097E+02  0.26000000000E-02 0. -1.
         23    2    1    2    0    0  0.00000000000E+00  0.00000000000E+00 -0.55556163550E+02  0.10669562873E+03  0.91090448910E+02 0.  0.
        -11    1    3    3    0    0  0.98280406824E+01  0.41282454088E+02 -0.47150377364E+02  0.63434923228E+02  0.51100000000E-03 0.  1.
         11    1    3    3    0    0 -0.98280406824E+01 -0.41282454088E+02 -0.84057861863E+01  0.43260705506E+02  0.51100000000E-03 0. -1.
<mgrwt>
<rscale>  0 0.91090449E+02</rscale>
<asrwt>0</asrwt>
<pdfrwt beam="2">  1        2 0.12480907E-01 0.91090449E+02</pdfrwt>
<pdfrwt beam="1">  1       -2 0.39338051E-02 0.91090449E+02</pdfrwt>
<totfact> 0.11562090E+05</totfact>
</mgrwt>
</event>
<event>
 5    1  0.2799021E+000  0.9118274E+02  0.7818608E-02  0.1300013E+00
          2   -1    0    0  501    0  0.00000000000E+00  0.00000000000E+00  0.21487630704E+03  0.21487630706E+03  0.26000000000E-02 0. -1.
         -2   -1    0    0    0  501 -0.00000000000E+00 -0.00000000000E+00 -0.96733471511E+01  0.96733475005E+01  0.26000000000E-02 0.  1.
         23    2    1    2    0    0  0.00000000000E+00  0.00000000000E+00  0.20520295989E+03  0.22454965456E+03  0.91182742963E+02 0.  0.
        -11    1    3    3    0    0  0.98699520153E+01  0.31425769783E+02  0.24976631634E+02  0.41337961818E+02  0.51100000000E-03 0.  1.
         11    1    3    3    0    0 -0.98699520153E+01 -0.31425769783E+02  0.18022632826E+03  0.18321169274E+03  0.51100000000E-03 0. -1.
<mgrwt>
<rscale>  0 0.91182743E+02</rscale>
<asrwt>0</asrwt>
<pdfrwt beam="1">  1        2 0.33057891E-01 0.91182743E+02</pdfrwt>
<pdfrwt beam="2">  1       -2 0.14882074E-02 0.91182743E+02</pdfrwt>
<totfact> 0.15873851E+05</totfact>
</mgrwt>
</event>
<event>
 5    1  0.2799021E+000  0.9241367E+02  0.7818608E-02  0.1297110E+00
         -2   -1    0    0    0  501 -0.00000000000E+00  0.00000000000E+00  0.48428040156E+01  0.48428047135E+01  0.26000000000E-02 0.  1.
          2   -1    0    0  501    0  0.00000000000E+00 -0.00000000000E+00 -0.44087505702E+03  0.44087505703E+03  0.26000000000E-02 0. -1.
         23    2    1    2    0    0  0.00000000000E+00  0.00000000000E+00 -0.43603225301E+03  0.44571786174E+03  0.92413671148E+02 0.  0.
        -11    1    3    3    0    0  0.65958629310E+01  0.45577486673E+02 -0.23622854636E+03  0.24067558833E+03  0.51100000000E-03 0. -1.
         11    1    3    3    0    0 -0.65958629310E+01 -0.45577486673E+02 -0.19980370664E+03  0.20504227342E+03  0.51100000000E-03 0.  1.
<mgrwt>
<rscale>  0 0.92413671E+02</rscale>
<asrwt>0</asrwt>
<pdfrwt beam="2">  1        2 0.67826900E-01 0.92413671E+02</pdfrwt>
<pdfrwt beam="1">  1       -2 0.74504717E-03 0.92413671E+02</pdfrwt>
<totfact> 0.19932062E+05</totfact>
</mgrwt>
</event>
<event>
 5    1  0.2799021E+000  0.8681821E+02  0.7818608E-02  0.1310745E+00
          2   -1    0    0  501    0  0.00000000000E+00  0.00000000000E+00  0.59929953959E+02  0.59929954016E+02  0.26000000000E-02 0.  1.
         -2   -1    0    0    0  501 -0.00000000000E+00 -0.00000000000E+00 -0.31442550099E+02  0.31442550207E+02  0.26000000000E-02 0. -1.
         23    2    1    2    0    0  0.00000000000E+00  0.00000000000E+00  0.28487403860E+02  0.91372504223E+02  0.86818214386E+02 0.  0.
        -11    1    3    3    0    0 -0.22553327352E+02 -0.12295629028E+02  0.51072438903E+02  0.57168427332E+02  0.51100000000E-03 0.  1.
         11    1    3    3    0    0  0.22553327352E+02  0.12295629028E+02 -0.22585035043E+02  0.34204076891E+02  0.51100000000E-03 0. -1.
<mgrwt>
<rscale>  0 0.86818214E+02</rscale>
<asrwt>0</asrwt>
<pdfrwt beam="1">  1        2 0.92199929E-02 0.86818214E+02</pdfrwt>
<pdfrwt beam="2">  1       -2 0.48373154E-02 0.86818214E+02</pdfrwt>
<totfact> 0.12166167E+05</totfact>
</mgrwt>
</event>
<event>
 5    1  0.2799021E+000  0.8804978E+02  0.7818608E-02  0.1307644E+00
          2   -1    0    0  501    0  0.00000000000E+00  0.00000000000E+00  0.61496822157E+02  0.61496822212E+02  0.26000000000E-02 0.  1.
         -2   -1    0    0    0  501 -0.00000000000E+00 -0.00000000000E+00 -0.31516931325E+02  0.31516931432E+02  0.26000000000E-02 0. -1.
         23    2    1    2    0    0  0.00000000000E+00  0.00000000000E+00  0.29979890832E+02  0.93013753645E+02  0.88049784286E+02 0.  0.
        -11    1    3    3    0    0 -0.35655031531E+02  0.25742130158E+02  0.17168385396E+02  0.47209024518E+02  0.51100000000E-03 0.  1.
         11    1    3    3    0    0  0.35655031531E+02 -0.25742130158E+02  0.12811505436E+02  0.45804729127E+02  0.51100000000E-03 0. -1.
<mgrwt>
<rscale>  0 0.88049784E+02</rscale>
<asrwt>0</asrwt>
<pdfrwt beam="1">  1        2 0.94610495E-02 0.88049784E+02</pdfrwt>
<pdfrwt beam="2">  1       -2 0.48487587E-02 0.88049784E+02</pdfrwt>
<totfact> 0.11775872E+05</totfact>
</mgrwt>
</event>
<event>
 5    1  0.2799021E+000  0.8866612E+02  0.7818608E-02  0.1306114E+00
         -2   -1    0    0    0  501 -0.00000000000E+00  0.00000000000E+00  0.50581739722E+02  0.50581739789E+02  0.26000000000E-02 0.  1.
          2   -1    0    0  501    0  0.00000000000E+00 -0.00000000000E+00 -0.38856322898E+02  0.38856322985E+02  0.26000000000E-02 0. -1.
         23    2    1    2    0    0  0.00000000000E+00  0.00000000000E+00  0.11725416824E+02  0.89438062774E+02  0.88666124721E+02 0.  0.
        -11    1    3    3    0    0 -0.12314942001E+02  0.13283227703E+02  0.46678783353E+02  0.50070058421E+02  0.51100000000E-03 0.  1.
         11    1    3    3    0    0  0.12314942001E+02 -0.13283227703E+02 -0.34953366530E+02  0.39368004353E+02  0.51100000000E-03 0. -1.
<mgrwt>
<rscale>  0 0.88666125E+02</rscale>
<asrwt>0</asrwt>
<pdfrwt beam="2">  1        2 0.59778959E-02 0.88666125E+02</pdfrwt>
<pdfrwt beam="1">  1       -2 0.77818061E-02 0.88666125E+02</pdfrwt>
<totfact> 0.10263655E+05</totfact>
</mgrwt>
</event>
<event>
 5    1  0.2799021E+000  0.9553177E+02  0.7818608E-02  0.1289983E+00
          2   -1    0    0  501    0  0.00000000000E+00  0.00000000000E+00  0.11270039721E+03  0.11270039724E+03  0.26000000000E-02 0. -1.
         -2   -1    0    0    0  501 -0.00000000000E+00 -0.00000000000E+00 -0.20244645698E+02  0.20244645865E+02  0.26000000000E-02 0.  1.
         23    2    1    2    0    0  0.00000000000E+00  0.00000000000E+00  0.92455751512E+02  0.13294504310E+03  0.95531766960E+02 0.  0.
        -11    1    3    3    0    0 -0.33679473706E+01 -0.41845132223E+02  0.14517553369E+02  0.44419787441E+02  0.51100000000E-03 0. -1.
         11    1    3    3    0    0  0.33679473706E+01  0.41845132223E+02  0.77938198143E+02  0.88525255664E+02  0.51100000000E-03 0.  1.
<mgrwt>
<rscale>  0 0.95531767E+02</rscale>
<asrwt>0</asrwt>
<pdfrwt beam="1">  1        2 0.17338523E-01 0.95531767E+02</pdfrwt>
<pdfrwt beam="2">  1       -2 0.31145609E-02 0.95531767E+02</pdfrwt>
<totfact> 0.11196427E+05</totfact>
</mgrwt>
</event>
<event>
 5    1  0.2799021E+000  0.9121992E+02  0.7818608E-02  0.1299924E+00
         -2   -1    0    0    0  501 -0.00000000000E+00  0.00000000000E+00  0.88210139878E+02  0.88210139916E+02  0.26000000000E-02 0.  1.
          2   -1    0    0  501    0  0.00000000000E+00 -0.00000000000E+00 -0.23583097856E+02  0.23583098000E+02  0.26000000000E-02 0. -1.
         23    2    1    2    0    0  0.00000000000E+00  0.00000000000E+00  0.64627042021E+02  0.11179323792E+03  0.91219918237E+02 0.  0.
        -11    1    3    3    0    0 -0.30034911124E+02 -0.32007855884E+02  0.47505694169E+02  0.64679128807E+02  0.51100000000E-03 0.  1.
         11    1    3    3    0    0  0.30034911124E+02  0.32007855884E+02  0.17121347852E+02  0.47114109108E+02  0.51100000000E-03 0. -1.
<mgrwt>
<rscale>  0 0.91219918E+02</rscale>
<asrwt>0</asrwt>
<pdfrwt beam="2">  1        2 0.36281688E-02 0.91219918E+02</pdfrwt>
<pdfrwt beam="1">  1       -2 0.13570791E-01 0.91219918E+02</pdfrwt>
<totfact> 0.82682110E+04</totfact>
</mgrwt>
</event>
<event>
 5    1  0.2799021E+000  0.9385113E+02  0.7818608E-02  0.1293785E+00
          2   -1    0    0  501    0  0.00000000000E+00  0.00000000000E+00  0.23961450999E+02  0.23961451140E+02  0.26000000000E-02 0. -1.
         -2   -1    0    0    0  501 -0.00000000000E+00 -0.00000000000E+00 -0.91897965056E+02  0.91897965092E+02  0.26000000000E-02 0.  1.
         23    2    1    2    0    0  0.00000000000E+00  0.00000000000E+00 -0.67936514057E+02  0.11585941623E+03  0.93851128855E+02 0.  0.
        -11    1    3    3    0    0  0.34082136365E+02  0.21087428219E+02 -0.64099642641E+02  0.75597856021E+02  0.51100000000E-03 0.  1.
         11    1    3    3    0    0 -0.34082136365E+02 -0.21087428219E+02 -0.38368714162E+01  0.40261560211E+02  0.51100000000E-03 0. -1.
<mgrwt>
<rscale>  0 0.93851129E+02</rscale>
<asrwt>0</asrwt>
<pdfrwt beam="1">  1        2 0.36863772E-02 0.93851129E+02</pdfrwt>
<pdfrwt beam="2">  1       -2 0.14138148E-01 0.93851129E+02</pdfrwt>
<totfact> 0.76154575E+04</totfact>
</mgrwt>
</event>
<event>
 5    1  0.2799021E+000  0.9740489E+02  0.7818608E-02  0.1285850E+00
          2   -1    0    0  501    0  0.00000000000E+00  0.00000000000E+00  0.94311417727E+02  0.94311417763E+02  0.26000000000E-02 0. -1.
         -2   -1    0    0    0  501 -0.00000000000E+00 -0.00000000000E+00 -0.25149958781E+02  0.25149958915E+02  0.26000000000E-02 0.  1.
         23    2    1    2    0    0  0.00000000000E+00  0.00000000000E+00  0.69161458946E+02  0.11946137668E+03  0.97404892661E+02 0.  0.
        -11    1    3    3    0    0 -0.37432479365E+02  0.30777314318E+02  0.28636006715E+02  0.56289026185E+02  0.51100000000E-03 0. -1.
         11    1    3    3    0    0  0.37432479365E+02 -0.30777314318E+02  0.40525452231E+02  0.63172350493E+02  0.51100000000E-03 0.  1.
<mgrwt>
<rscale>  0 0.97404893E+02</rscale>
<asrwt>0</asrwt>
<pdfrwt beam="1">  1        2 0.14509449E-01 0.97404893E+02</pdfrwt>
<pdfrwt beam="2">  1       -2 0.38692245E-02 0.97404893E+02</pdfrwt>
<totfact> 0.10033052E+05</totfact>
</mgrwt>
</event>
<event>
 5    1  0.2799021E+000  0.8814891E+02  0.7818608E-02  0.1307397E+00
          2   -1    0    0  501    0  0.00000000000E+00  0.00000000000E+00  0.16449974154E+03  0.16449974156E+03  0.26000000000E-02 0.  1.
         -2   -1    0    0    0  501 -0.00000000000E+00 -0.00000000000E+00 -0.11808878528E+02  0.11808878814E+02  0.26000000000E-02 0. -1.
         23    2    1    2    0    0  0.00000000000E+00  0.00000000000E+00  0.15269086301E+03  0.17630862038E+03  0.88148907939E+02 0.  0.
        -11    1    3    3    0    0 -0.37478781090E+02 -0.22974497347E+02  0.82692766867E+02  0.93651376139E+02  0.51100000000E-03 0.  1.
         11    1    3    3    0    0  0.37478781090E+02  0.22974497347E+02  0.69998096146E+02  0.82657244236E+02  0.51100000000E-03 0. -1.
<mgrwt>
<rscale>  0 0.88148908E+02</rscale>
<asrwt>0</asrwt>
<pdfrwt beam="1">  1        2 0.25307650E-01 0.88148908E+02</pdfrwt>
<pdfrwt beam="2">  1       -2 0.18167507E-02 0.88148908E+02</pdfrwt>
<totfact> 0.15808742E+05</totfact>
</mgrwt>
</event>
<event>
 5    1  0.2799021E+000  0.8912258E+02  0.7818608E-02  0.1304990E+00
          2   -1    0    0  501    0  0.00000000000E+00  0.00000000000E+00  0.75192070101E+01  0.75192074596E+01  0.26000000000E-02 0. -1.
         -2   -1    0    0    0  501 -0.00000000000E+00 -0.00000000000E+00 -0.26408485299E+03  0.26408485300E+03  0.26000000000E-02 0.  1.
         23    2    1    2    0    0  0.00000000000E+00  0.00000000000E+00 -0.25656564598E+03  0.27160406046E+03  0.89122583909E+02 0.  0.
        -11    1    3    3    0    0 -0.99237961985E+01  0.37195330827E+02 -0.59883896962E+02  0.71190276596E+02  0.51100000000E-03 0. -1.
         11    1    3    3    0    0  0.99237961985E+01 -0.37195330827E+02 -0.19668174902E+03  0.20041378387E+03  0.51100000000E-03 0.  1.
<mgrwt>
<rscale>  0 0.89122584E+02</rscale>
<asrwt>0</asrwt>
<pdfrwt beam="1">  1        2 0.11568013E-02 0.89122584E+02</pdfrwt>
<pdfrwt beam="2">  1       -2 0.40628432E-01 0.89122584E+02</pdfrwt>
<totfact> 0.57924239E+04</totfact>
</mgrwt>
</event>
<event>
 5    1  0.2799021E+000  0.9160254E+02  0.7818608E-02  0.1299017E+00
         -2   -1    0    0    0  501 -0.00000000000E+00  0.00000000000E+00  0.50976290455E+02  0.50976290522E+02  0.26000000000E-02 0.  1.
          2   -1    0    0  501    0  0.00000000000E+00 -0.00000000000E+00 -0.41151608195E+02  0.41151608277E+02  0.26000000000E-02 0. -1.
         23    2    1    2    0    0  0.00000000000E+00  0.00000000000E+00  0.98246822607E+01  0.92127898798E+02  0.91602540115E+02 0.  0.
        -11    1    3    3    0    0  0.32528071811E+02  0.84284696470E+01 -0.26389165985E+02  0.42725901254E+02  0.51100000000E-03 0. -1.
         11    1    3    3    0    0 -0.32528071811E+02 -0.84284696470E+01  0.36213848246E+02  0.49401997544E+02  0.51100000000E-03 0.  1.
<mgrwt>
<rscale>  0 0.91602540E+02</rscale>
<asrwt>0</asrwt>
<pdfrwt beam="2">  1        2 0.63310167E-02 0.91602540E+02</pdfrwt>
<pdfrwt beam="1">  1       -2 0.78425062E-02 0.91602540E+02</pdfrwt>
<totfact> 0.94804660E+04</totfact>
</mgrwt>
</event>
<event>
 5    1  0.2799021E+000  0.9213621E+02  0.7818608E-02  0.1297759E+00
         -2   -1    0    0    0  501 -0.00000000000E+00  0.00000000000E+00  0.49012157882E+01  0.49012164778E+01  0.26000000000E-02 0. -1.
          2   -1    0    0  501    0  0.00000000000E+00 -0.00000000000E+00 -0.43300890822E+03  0.43300890822E+03  0.26000000000E-02 0.  1.
         23    2    1    2    0    0  0.00000000000E+00  0.00000000000E+00 -0.42810769243E+03  0.43791012470E+03  0.92136208953E+02 0.  0.
        -11    1    3    3    0    0 -0.19538056386E+02 -0.40499746064E+02 -0.26165487175E+03  0.26549055914E+03  0.51100000000E-03 0.  1.
         11    1    3    3    0    0  0.19538056386E+02  0.40499746064E+02 -0.16645282067E+03  0.17241956556E+03  0.51100000000E-03 0. -1.
<mgrwt>
<rscale>  0 0.92136209E+02</rscale>
<asrwt>0</asrwt>
<pdfrwt beam="2">  1        2 0.66616725E-01 0.92136209E+02</pdfrwt>
<pdfrwt beam="1">  1       -2 0.75403359E-03 0.92136209E+02</pdfrwt>
<totfact> 0.19966617E+05</totfact>
</mgrwt>
</event>
<event>
 5    1  0.2799021E+000  0.8993133E+02  0.7818608E-02  0.1303018E+00
          2   -1    0    0  501    0  0.00000000000E+00  0.00000000000E+00  0.80412465703E+02  0.80412465745E+02  0.26000000000E-02 0. -1.
         -2   -1    0    0    0  501 -0.00000000000E+00 -0.00000000000E+00 -0.25144248976E+02  0.25144249111E+02  0.26000000000E-02 0.  1.
         23    2    1    2    0    0  0.00000000000E+00  0.00000000000E+00  0.55268216726E+02  0.10555671486E+03  0.89931330863E+02 0.  0.
        -11    1    3    3    0    0  0.38396402989E+02 -0.21418541996E+02  0.38699343679E+02  0.58571980547E+02  0.51100000000E-03 0. -1.
         11    1    3    3    0    0 -0.38396402989E+02  0.21418541996E+02  0.16568873047E+02  0.46984734308E+02  0.51100000000E-03 0.  1.
<mgrwt>
<rscale>  0 0.89931331E+02</rscale>
<asrwt>0</asrwt>
<pdfrwt beam="1">  1        2 0.12371149E-01 0.89931331E+02</pdfrwt>
<pdfrwt beam="2">  1       -2 0.38683460E-02 0.89931331E+02</pdfrwt>
<totfact> 0.11949765E+05</totfact>
</mgrwt>
</event>
<event>
 5    1  0.2799021E+000  0.9426290E+02  0.7818608E-02  0.1292845E+00
         -2   -1    0    0    0  501 -0.00000000000E+00  0.00000000000E+00  0.11471086660E+03  0.11471086663E+03  0.26000000000E-02 0.  1.
          2   -1    0    0  501    0  0.00000000000E+00 -0.00000000000E+00 -0.19364979483E+02  0.19364979657E+02  0.26000000000E-02 0. -1.
         23    2    1    2    0    0  0.00000000000E+00  0.00000000000E+00  0.95345887115E+02  0.13407584628E+03  0.94262900270E+02 0.  0.
        -11    1    3    3    0    0  0.29357893831E+02 -0.33543237962E+02  0.69446626495E+02  0.82521928450E+02  0.51100000000E-03 0.  1.
         11    1    3    3    0    0 -0.29357893831E+02  0.33543237962E+02  0.25899260620E+02  0.51553917835E+02  0.51100000000E-03 0. -1.
<mgrwt>
<rscale>  0 0.94262900E+02</rscale>
<asrwt>0</asrwt>
<pdfrwt beam="2">  1        2 0.29792276E-02 0.94262900E+02</pdfrwt>
<pdfrwt beam="1">  1       -2 0.17647826E-01 0.94262900E+02</pdfrwt>
<totfact> 0.70387664E+04</totfact>
</mgrwt>
</event>
<event>
 5    1  0.2799021E+000  0.9128944E+02  0.7818608E-02  0.1299759E+00
          2   -1    0    0  501    0  0.00000000000E+00  0.00000000000E+00  0.84394504766E+02  0.84394504806E+02  0.26000000000E-02 0. -1.
         -2   -1    0    0    0  501 -0.00000000000E+00 -0.00000000000E+00 -0.24686921101E+02  0.24686921238E+02  0.26000000000E-02 0.  1.
         23    2    1    2    0    0  0.00000000000E+00  0.00000000000E+00  0.59707583665E+02  0.10908142604E+03  0.91289440575E+02 0.  0.
        -11    1    3    3    0    0  0.25873153490E+02  0.75775699240E+01 -0.14156708313E+02  0.30450813257E+02  0.51100000000E-03 0.  1.
         11    1    3    3    0    0 -0.25873153490E+02 -0.75775699240E+01  0.73864291978E+02  0.78630612786E+02  0.51100000000E-03 0. -1.
<mgrwt>
<rscale>  0 0.91289441E+02</rscale>
<asrwt>0</asrwt>
<pdfrwt beam="1">  1        2 0.12983770E-01 0.91289441E+02</pdfrwt>
<pdfrwt beam="2">  1       -2 0.37979879E-02 0.91289441E+02</pdfrwt>
<totfact> 0.11624011E+05</totfact>
</mgrwt>
</event>
<event>
 5    1  0.2799021E+000  0.8930934E+02  0.7818608E-02  0.1304533E+00
         -2   -1    0    0    0  501 -0.00000000000E+00  0.00000000000E+00  0.19217355505E+02  0.19217355681E+02  0.26000000000E-02 0.  1.
          2   -1    0    0  501    0  0.00000000000E+00 -0.00000000000E+00 -0.10376242979E+03  0.10376242982E+03  0.26000000000E-02 0. -1.
         23    2    1    2    0    0  0.00000000000E+00  0.00000000000E+00 -0.84545074286E+02  0.12297978550E+03  0.89309339135E+02 0.  0.
        -11    1    3    3    0    0 -0.34336522633E+02  0.18526294159E+01 -0.81501848257E+02  0.88458918668E+02  0.51100000000E-03 0. -1.
         11    1    3    3    0    0  0.34336522633E+02 -0.18526294159E+01 -0.30432260289E+01  0.34520866837E+02  0.51100000000E-03 0.  1.
<mgrwt>
<rscale>  0 0.89309339E+02</rscale>
<asrwt>0</asrwt>
<pdfrwt beam="2">  1        2 0.15963450E-01 0.89309339E+02</pdfrwt>
<pdfrwt beam="1">  1       -2 0.29565163E-02 0.89309339E+02</pdfrwt>
<totfact> 0.13131706E+05</totfact>
</mgrwt>
</event>
<event>
 5    1  0.2799021E+000  0.9206778E+02  0.7818608E-02  0.1297920E+00
         -2   -1    0    0    0  501 -0.00000000000E+00  0.00000000000E+00  0.20197994450E+03  0.20197994452E+03  0.26000000000E-02 0.  1.
          2   -1    0    0  501    0  0.00000000000E+00 -0.00000000000E+00 -0.10491729747E+02  0.10491730070E+02  0.26000000000E-02 0. -1.
         23    2    1    2    0    0  0.00000000000E+00  0.00000000000E+00  0.19148821475E+03  0.21247167459E+03  0.92067779991E+02 0.  0.
        -11    1    3    3    0    0 -0.11518638644E+02  0.41427074514E+02  0.57806829305E+02  0.72045201461E+02  0.51100000000E-03 0. -1.
         11    1    3    3    0    0  0.11518638644E+02 -0.41427074514E+02  0.13368138545E+03  0.14042647313E+03  0.51100000000E-03 0.  1.
<mgrwt>
<rscale>  0 0.92067780E+02</rscale>
<asrwt>0</asrwt>
<pdfrwt beam="2">  1        2 0.16141122E-02 0.92067780E+02</pdfrwt>
<pdfrwt beam="1">  1       -2 0.31073840E-01 0.92067780E+02</pdfrwt>
<totfact> 0.60529336E+04</totfact>
</mgrwt>
</event>
<event>
 5    1  0.2799021E+000  0.1005142E+03  0.7818608E-02  0.1279218E+00
         -2   -1    0    0    0  501 -0.00000000000E+00  0.00000000000E+00  0.49985155882E+02  0.49985155950E+02  0.26000000000E-02 0.  1.
          2   -1    0    0  501    0  0.00000000000E+00 -0.00000000000E+00 -0.50530534127E+02  0.50530534194E+02  0.26000000000E-02 0. -1.
         23    2    1    2    0    0  0.00000000000E+00  0.00000000000E+00 -0.54537824493E+00  0.10051569014E+03  0.10051421058E+03 0.  0.
        -11    1    3    3    0    0 -0.27204522956E+01  0.44467529872E+02  0.22987372908E+02  0.50131640578E+02  0.51100000000E-03 0.  1.
         11    1    3    3    0    0  0.27204522956E+01 -0.44467529872E+02 -0.23532751153E+02  0.50384049566E+02  0.51100000000E-03 0. -1.
<mgrwt>
<rscale>  0 0.10051421E+03</rscale>
<asrwt>0</asrwt>
<pdfrwt beam="2">  1        2 0.77739283E-02 0.10051421E+03</pdfrwt>
<pdfrwt beam="1">  1       -2 0.76900240E-02 0.10051421E+03</pdfrwt>
<totfact> 0.76541275E+04</totfact>
</mgrwt>
</event>
<event>
 5    1  0.2799021E+000  0.9213627E+02  0.7818608E-02  0.1297759E+00
         -2   -1    0    0    0  501 -0.00000000000E+00  0.00000000000E+00  0.12013840503E+02  0.12013840785E+02  0.26000000000E-02 0. -1.
          2   -1    0    0  501    0  0.00000000000E+00 -0.00000000000E+00 -0.17665233799E+03  0.17665233801E+03  0.26000000000E-02 0.  1.
         23    2    1    2    0    0  0.00000000000E+00  0.00000000000E+00 -0.16463849749E+03  0.18866617880E+03  0.92136269548E+02 0.  0.
        -11    1    3    3    0    0  0.70935489252E+01  0.40291607333E+02 -0.38951738022E+02  0.56488671015E+02  0.51100000000E-03 0.  1.
         11    1    3    3    0    0 -0.70935489252E+01 -0.40291607333E+02 -0.12568675947E+03  0.13217750778E+03  0.51100000000E-03 0. -1.
<mgrwt>
<rscale>  0 0.92136270E+02</rscale>
<asrwt>0</asrwt>
<pdfrwt beam="2">  1        2 0.27177281E-01 0.92136270E+02</pdfrwt>
<pdfrwt beam="1">  1       -2 0.18482833E-02 0.92136270E+02</pdfrwt>
<totfact> 0.14382805E+05</totfact>
</mgrwt>
</event>
<event>
 5    1  0.2799021E+000  0.8745547E+02  0.7818608E-02  0.1309133E+00
          2   -1    0    0  501    0  0.00000000000E+00  0.00000000000E+00  0.25315327019E+02  0.25315327152E+02  0.26000000000E-02 0.  1.
         -2   -1    0    0    0  501 -0.00000000000E+00 -0.00000000000E+00 -0.75531895737E+02  0.75531895782E+02  0.26000000000E-02 0. -1.
         23    2    1    2    0    0  0.00000000000E+00  0.00000000000E+00 -0.50216568719E+02  0.10084722293E+03  0.87455466379E+02 0.  0.
        -11    1    3    3    0    0  0.22903786834E+02 -0.25455021643E+01  0.17744785477E+02  0.29085055346E+02  0.51100000000E-03 0.  1.
         11    1    3    3    0    0 -0.22903786834E+02  0.25455021643E+01 -0.67961354196E+02  0.71762167588E+02  0.51100000000E-03 0. -1.
<mgrwt>
<rscale>  0 0.87455466E+02</rscale>
<asrwt>0</asrwt>
<pdfrwt beam="1">  1        2 0.38946657E-02 0.87455466E+02</pdfrwt>
<pdfrwt beam="2">  1       -2 0.11620292E-01 0.87455466E+02</pdfrwt>
<totfact> 0.95711297E+04</totfact>
</mgrwt>
</event>
<event>
 5    1  0.2799021E+000  0.9011516E+02  0.7818608E-02  0.1302573E+00
         -2   -1    0    0    0  501 -0.00000000000E+00  0.00000000000E+00  0.80302634911E+02  0.80302634953E+02  0.26000000000E-02 0.  1.
          2   -1    0    0  501    0  0.00000000000E+00 -0.00000000000E+00 -0.25281682457E+02  0.25281682591E+02  0.26000000000E-02 0. -1.
         23    2    1    2    0    0  0.00000000000E+00  0.00000000000E+00  0.55020952454E+02  0.10558431754E+03  0.90115164664E+02 0.  0.
        -11    1    3    3    0    0  0.16720053621E+02  0.96084604038E+01  0.75223120095E+02  0.77655653378E+02  0.51100000000E-03 0.  1.
         11    1    3    3    0    0 -0.16720053621E+02 -0.96084604038E+01 -0.20202167642E+02  0.27928664166E+02  0.51100000000E-03 0. -1.
<mgrwt>
<rscale>  0 0.90115165E+02</rscale>
<asrwt>0</asrwt>
<pdfrwt beam="2">  1        2 0.38894897E-02 0.90115165E+02</pdfrwt>
<pdfrwt beam="1">  1       -2 0.12354251E-01 0.90115165E+02</pdfrwt>
<totfact> 0.87470300E+04</totfact>
</mgrwt>
</event>
<event>
 5    1  0.2799021E+000  0.8637356E+02  0.7818608E-02  0.1311879E+00
         -2   -1    0    0    0  501 -0.00000000000E+00  0.00000000000E+00  0.15525023191E+03  0.15525023193E+03  0.26000000000E-02 0.  1.
          2   -1    0    0  501    0  0.00000000000E+00 -0.00000000000E+00 -0.12013494775E+02  0.12013495057E+02  0.26000000000E-02 0. -1.
         23    2    1    2    0    0  0.00000000000E+00  0.00000000000E+00  0.14323673713E+03  0.16726372699E+03  0.86373557881E+02 0.  0.
        -11    1    3    3    0    0  0.25055334700E+02 -0.21996584828E+02  0.18461872628E+02  0.38111156925E+02  0.51100000000E-03 0. -1.
         11    1    3    3    0    0 -0.25055334700E+02  0.21996584828E+02  0.12477486450E+03  0.12915257006E+03  0.51100000000E-03 0.  1.
<mgrwt>
<rscale>  0 0.86373558E+02</rscale>
<asrwt>0</asrwt>
<pdfrwt beam="2">  1        2 0.18482301E-02 0.86373558E+02</pdfrwt>
<pdfrwt beam="1">  1       -2 0.23884650E-01 0.86373558E+02</pdfrwt>
<totfact> 0.79106438E+04</totfact>
</mgrwt>
</event>
<event>
 5    1  0.2799021E+000  0.8995729E+02  0.7818608E-02  0.1302955E+00
          2   -1    0    0  501    0  0.00000000000E+00  0.00000000000E+00  0.32167263217E+02  0.32167263322E+02  0.26000000000E-02 0. -1.
         -2   -1    0    0    0  501 -0.00000000000E+00 -0.00000000000E+00 -0.62892469464E+02  0.62892469518E+02  0.26000000000E-02 0.  1.
         23    2    1    2    0    0  0.00000000000E+00  0.00000000000E+00 -0.30725206247E+02  0.95059732840E+02  0.89957292693E+02 0.  0.
        -11    1    3    3    0    0  0.94741344398E+01  0.38072663971E+02 -0.38605454338E+02  0.55042420643E+02  0.51100000000E-03 0.  1.
         11    1    3    3    0    0 -0.94741344398E+01 -0.38072663971E+02  0.78802480910E+01  0.40017312197E+02  0.51100000000E-03 0. -1.
<mgrwt>
<rscale>  0 0.89957293E+02</rscale>
<asrwt>0</asrwt>
<pdfrwt beam="1">  1        2 0.49488098E-02 0.89957293E+02</pdfrwt>
<pdfrwt beam="2">  1       -2 0.96757645E-02 0.89957293E+02</pdfrwt>
<totfact> 0.93761292E+04</totfact>
</mgrwt>
</event>
<event>
 5    1  0.2799021E+000  0.9036858E+02  0.7818608E-02  0.1301962E+00
          2   -1    0    0  501    0  0.00000000000E+00  0.00000000000E+00  0.23499602661E+03  0.23499602662E+03  0.26000000000E-02 0.  1.
         -2   -1    0    0    0  501 -0.00000000000E+00 -0.00000000000E+00 -0.86878913337E+01  0.86878917228E+01  0.26000000000E-02 0. -1.
         23    2    1    2    0    0  0.00000000000E+00  0.00000000000E+00  0.22630813527E+03  0.24368391834E+03  0.90368578437E+02 0.  0.
        -11    1    3    3    0    0  0.10427102250E+02 -0.40495477781E+02  0.15931259889E+03  0.16470917505E+03  0.51100000000E-03 0.  1.
         11    1    3    3    0    0 -0.10427102250E+02  0.40495477781E+02  0.66995536385E+02  0.78974743291E+02  0.51100000000E-03 0. -1.
<mgrwt>
<rscale>  0 0.90368578E+02</rscale>
<asrwt>0</asrwt>
<pdfrwt beam="1">  1        2 0.36153232E-01 0.90368578E+02</pdfrwt>
<pdfrwt beam="2">  1       -2 0.13365988E-02 0.90368578E+02</pdfrwt>
<totfact> 0.16802808E+05</totfact>
</mgrwt>
</event>
<event>
 5    1  0.2799021E+000  0.9167913E+02  0.7818608E-02  0.1298836E+00
         -2   -1    0    0    0  501 -0.00000000000E+00  0.00000000000E+00  0.10626766659E+03  0.10626766662E+03  0.26000000000E-02 0. -1.
          2   -1    0    0  501    0  0.00000000000E+00 -0.00000000000E+00 -0.19773329414E+02  0.19773329585E+02  0.26000000000E-02 0.  1.
         23    2    1    2    0    0  0.00000000000E+00  0.00000000000E+00  0.86494337173E+02  0.12604099620E+03  0.91679127182E+02 0.  0.
        -11    1    3    3    0    0 -0.11762539463E+02 -0.44285546216E+02  0.41455352125E+02  0.61790882485E+02  0.51100000000E-03 0.  1.
         11    1    3    3    0    0  0.11762539463E+02  0.44285546216E+02  0.45038985048E+02  0.64250113718E+02  0.51100000000E-03 0. -1.
<mgrwt>
<rscale>  0 0.91679127E+02</rscale>
<asrwt>0</asrwt>
<pdfrwt beam="2">  1        2 0.30420508E-02 0.91679127E+02</pdfrwt>
<pdfrwt beam="1">  1       -2 0.16348871E-01 0.91679127E+02</pdfrwt>
<totfact> 0.77285994E+04</totfact>
</mgrwt>
</event>
<event>
 5    1  0.2799021E+000  0.9132478E+02  0.7818608E-02  0.1299675E+00
         -2   -1    0    0    0  501 -0.00000000000E+00  0.00000000000E+00  0.17053304837E+02  0.17053305035E+02  0.26000000000E-02 0. -1.
          2   -1    0    0  501    0  0.00000000000E+00 -0.00000000000E+00 -0.12226683825E+03  0.12226683828E+03  0.26000000000E-02 0.  1.
         23    2    1    2    0    0  0.00000000000E+00  0.00000000000E+00 -0.10521353341E+03  0.13932014331E+03  0.91324776043E+02 0.  0.
        -11    1    3    3    0    0 -0.89187037444E+01  0.32911415935E+02 -0.98937904089E+02  0.10464900115E+03  0.51100000000E-03 0.  1.
         11    1    3    3    0    0  0.89187037444E+01 -0.32911415935E+02 -0.62756293231E+01  0.34671142164E+02  0.51100000000E-03 0. -1.
<mgrwt>
<rscale>  0 0.91324776E+02</rscale>
<asrwt>0</asrwt>
<pdfrwt beam="2">  1        2 0.18810282E-01 0.91324776E+02</pdfrwt>
<pdfrwt beam="1">  1       -2 0.26235855E-02 0.91324776E+02</pdfrwt>
<totfact> 0.13006914E+05</totfact>
</mgrwt>
</event>
<event>
 5    1  0.2799021E+000  0.8956803E+02  0.7818608E-02  0.1303901E+00
         -2   -1    0    0    0  501 -0.00000000000E+00  0.00000000000E+00  0.52024093662E+02  0.52024093727E+02  0.26000000000E-02 0.  1.
          2   -1    0    0  501    0  0.00000000000E+00 -0.00000000000E+00 -0.38551524011E+02  0.38551524099E+02  0.26000000000E-02 0. -1.
         23    2    1    2    0    0  0.00000000000E+00  0.00000000000E+00  0.13472569651E+02  0.90575617826E+02  0.89568032308E+02 0.  0.
        -11    1    3    3    0    0  0.16700529159E+02  0.38950644626E+02  0.21374891199E+02  0.47465212156E+02  0.51100000000E-03 0.  1.
         11    1    3    3    0    0 -0.16700529159E+02 -0.38950644626E+02 -0.79023215480E+01  0.43110405670E+02  0.51100000000E-03 0. -1.
<mgrwt>
<rscale>  0 0.89568032E+02</rscale>
<asrwt>0</asrwt>
<pdfrwt beam="2">  1        2 0.59310037E-02 0.89568032E+02</pdfrwt>
<pdfrwt beam="1">  1       -2 0.80037067E-02 0.89568032E+02</pdfrwt>
<totfact> 0.99481967E+04</totfact>
</mgrwt>
</event>
<event>
 5    1  0.2799021E+000  0.9160064E+02  0.7818608E-02  0.1299021E+00
          2   -1    0    0  501    0  0.00000000000E+00  0.00000000000E+00  0.77316108185E+02  0.77316108229E+02  0.26000000000E-02 0. -1.
         -2   -1    0    0    0  501 -0.00000000000E+00 -0.00000000000E+00 -0.27131077098E+02  0.27131077222E+02  0.26000000000E-02 0.  1.
         23    2    1    2    0    0  0.00000000000E+00  0.00000000000E+00  0.50185031088E+02  0.10444718545E+03  0.91600639754E+02 0.  0.
        -11    1    3    3    0    0 -0.98887196605E+01  0.10889829915E+02 -0.24364349578E+02  0.28460441015E+02  0.51100000000E-03 0.  1.
         11    1    3    3    0    0  0.98887196605E+01 -0.10889829915E+02  0.74549380666E+02  0.75986744436E+02  0.51100000000E-03 0. -1.
<mgrwt>
<rscale>  0 0.91600640E+02</rscale>
<asrwt>0</asrwt>
<pdfrwt beam="1">  1        2 0.11894786E-01 0.91600640E+02</pdfrwt>
<pdfrwt beam="2">  1       -2 0.41740119E-02 0.91600640E+02</pdfrwt>
<totfact> 0.11228414E+05</totfact>
</mgrwt>
</event>
<event>
 5    1  0.2799021E+000  0.8691494E+02  0.7818608E-02  0.1310499E+00
          2   -1    0    0  501    0  0.00000000000E+00  0.00000000000E+00  0.11933968100E+03  0.11933968103E+03  0.26000000000E-02 0. -1.
         -2   -1    0    0    0  501 -0.00000000000E+00 -0.00000000000E+00 -0.15825010620E+02  0.15825010834E+02  0.26000000000E-02 0.  1.
         23    2    1    2    0    0  0.00000000000E+00  0.00000000000E+00  0.10351467038E+03  0.13516469186E+03  0.86914940846E+02 0.  0.
        -11    1    3    3    0    0  0.13466441103E+01  0.22785750431E+02 -0.57522304208E+01  0.23539159461E+02  0.51100000000E-03 0.  1.
         11    1    3    3    0    0 -0.13466441103E+01 -0.22785750431E+02  0.10926690080E+03  0.11162553240E+03  0.51100000000E-03 0. -1.
<mgrwt>
<rscale>  0 0.86914941E+02</rscale>
<asrwt>0</asrwt>
<pdfrwt beam="1">  1        2 0.18359950E-01 0.86914941E+02</pdfrwt>
<pdfrwt beam="2">  1       -2 0.24346171E-02 0.86914941E+02</pdfrwt>
<totfact> 0.14768739E+05</totfact>
</mgrwt>
</event>
<event>
 5    1  0.2799021E+000  0.9256426E+02  0.7818608E-02  0.1296758E+00
          2   -1    0    0  501    0  0.00000000000E+00  0.00000000000E+00  0.48602920751E+02  0.48602920821E+02  0.26000000000E-02 0.  1.
         -2   -1    0    0    0  501 -0.00000000000E+00 -0.00000000000E+00 -0.44072155813E+02  0.44072155889E+02  0.26000000000E-02 0. -1.
         23    2    1    2    0    0  0.00000000000E+00  0.00000000000E+00  0.45307649385E+01  0.92675076710E+02  0.92564258827E+02 0.  0.
        -11    1    3    3    0    0  0.38152344340E+02 -0.25881067120E+02 -0.18143565480E+01  0.46138085178E+02  0.51100000000E-03 0. -1.
         11    1    3    3    0    0 -0.38152344340E+02  0.25881067120E+02  0.63451214865E+01  0.46536991532E+02  0.51100000000E-03 0.  1.
<mgrwt>
<rscale>  0 0.92564259E+02</rscale>
<asrwt>0</asrwt>
<pdfrwt beam="1">  1        2 0.74773724E-02 0.92564259E+02</pdfrwt>
<pdfrwt beam="2">  1       -2 0.67803317E-02 0.92564259E+02</pdfrwt>
<totfact> 0.96084045E+04</totfact>
</mgrwt>
</event>
<event>
 5    1  0.2799021E+000  0.9020073E+02  0.7818608E-02  0.1302366E+00
         -2   -1    0    0    0  501 -0.00000000000E+00  0.00000000000E+00  0.13033013308E+02  0.13033013568E+02  0.26000000000E-02 0. -1.
          2   -1    0    0  501    0  0.00000000000E+00 -0.00000000000E+00 -0.15606849590E+03  0.15606849592E+03  0.26000000000E-02 0.  1.
         23    2    1    2    0    0  0.00000000000E+00  0.00000000000E+00 -0.14303548259E+03  0.16910150949E+03  0.90200727443E+02 0.  0.
        -11    1    3    3    0    0 -0.26009116246E+02 -0.19204133035E+02 -0.12567569536E+02  0.34687413536E+02  0.51100000000E-03 0. -1.
         11    1    3    3    0    0  0.26009116246E+02  0.19204133035E+02 -0.13046791305E+03  0.13441409595E+03  0.51100000000E-03 0.  1.
<mgrwt>
<rscale>  0 0.90200727E+02</rscale>
<asrwt>0</asrwt>
<pdfrwt beam="2">  1        2 0.24010537E-01 0.90200727E+02</pdfrwt>
<pdfrwt beam="1">  1       -2 0.20050791E-02 0.90200727E+02</pdfrwt>
<totfact> 0.14590799E+05</totfact>
</mgrwt>
</event>
<event>
 5    1  0.2799021E+000  0.9183977E+02  0.7818608E-02  0.1298457E+00
          2   -1    0    0  501    0  0.00000000000E+00  0.00000000000E+00  0.20499945184E+02  0.20499945349E+02  0.26000000000E-02 0. -1.
         -2   -1    0    0    0  501 -0.00000000000E+00 -0.00000000000E+00 -0.10286056228E+03  0.10286056231E+03  0.26000000000E-02 0.  1.
         23    2    1    2    0    0  0.00000000000E+00  0.00000000000E+00 -0.82360617095E+02  0.12336050766E+03  0.91839771354E+02 0.  0.
        -11    1    3    3    0    0 -0.16299864149E+02  0.20830138055E+02  0.92404565212E+01  0.28017249323E+02  0.51100000000E-03 0. -1.
         11    1    3    3    0    0  0.16299864149E+02 -0.20830138055E+02 -0.91601073616E+02  0.95343258338E+02  0.51100000000E-03 0.  1.
<mgrwt>
<rscale>  0 0.91839771E+02</rscale>
<asrwt>0</asrwt>
<pdfrwt beam="1">  1        2 0.31538378E-02 0.91839771E+02</pdfrwt>
<pdfrwt beam="2">  1       -2 0.15824702E-01 0.91839771E+02</pdfrwt>
<totfact> 0.77716567E+04</totfact>
</mgrwt>
</event>
<event>
 5    1  0.2799021E+000  0.9309337E+02  0.7818608E-02  0.1295529E+00
          2   -1    0    0  501    0  0.00000000000E+00  0.00000000000E+00  0.29611799184E+03  0.29611799185E+03  0.26000000000E-02 0. -1.
         -2   -1    0    0    0  501 -0.00000000000E+00 -0.00000000000E+00 -0.73166565531E+01  0.73166570150E+01  0.26000000000E-02 0.  1.
         23    2    1    2    0    0  0.00000000000E+00  0.00000000000E+00  0.28880133528E+03  0.30343464886E+03  0.93093366408E+02 0.  0.
        -11    1    3    3    0    0 -0.33717486243E+02 -0.31191547243E+02  0.16896852670E+03  0.17510038410E+03  0.51100000000E-03 0. -1.
         11    1    3    3    0    0  0.33717486243E+02  0.31191547243E+02  0.11983280859E+03  0.12833426476E+03  0.51100000000E-03 0.  1.
<mgrwt>
<rscale>  0 0.93093366E+02</rscale>
<asrwt>0</asrwt>
<pdfrwt beam="1">  1        2 0.45556619E-01 0.93093366E+02</pdfrwt>
<pdfrwt beam="2">  1       -2 0.11256394E-02 0.93093366E+02</pdfrwt>
<totfact> 0.16911844E+05</totfact>
</mgrwt>
</event>
<event>
 5    1  0.2799021E+000  0.9177856E+02  0.7818608E-02  0.1298601E+00
         -2   -1    0    0    0  501 -0.00000000000E+00  0.00000000000E+00  0.88253830955E+02  0.88253830993E+02  0.26000000000E-02 0.  1.
          2   -1    0    0  501    0  0.00000000000E+00 -0.00000000000E+00 -0.23861017659E+02  0.23861017801E+02  0.26000000000E-02 0. -1.
         23    2    1    2    0    0  0.00000000000E+00  0.00000000000E+00  0.64392813296E+02  0.11211484879E+03  0.91778564578E+02 0.  0.
        -11    1    3    3    0    0 -0.16937289775E+01  0.22301111681E+02  0.81145311425E+02  0.84171075000E+02  0.51100000000E-03 0.  1.
         11    1    3    3    0    0  0.16937289775E+01 -0.22301111681E+02 -0.16752498129E+02  0.27943773794E+02  0.51100000000E-03 0. -1.
<mgrwt>
<rscale>  0 0.91778565E+02</rscale>
<asrwt>0</asrwt>
<pdfrwt beam="2">  1        2 0.36709258E-02 0.91778565E+02</pdfrwt>
<pdfrwt beam="1">  1       -2 0.13577513E-01 0.91778565E+02</pdfrwt>
<totfact> 0.81431178E+04</totfact>
</mgrwt>
</event>
<event>
 5    1  0.2799021E+000  0.9347778E+02  0.7818608E-02  0.1294642E+00
          2   -1    0    0  501    0  0.00000000000E+00  0.00000000000E+00  0.84172321856E+02  0.84172321896E+02  0.26000000000E-02 0. -1.
         -2   -1    0    0    0  501 -0.00000000000E+00 -0.00000000000E+00 -0.25952996699E+02  0.25952996829E+02  0.26000000000E-02 0.  1.
         23    2    1    2    0    0  0.00000000000E+00  0.00000000000E+00  0.58219325157E+02  0.11012531872E+03  0.93477783470E+02 0.  0.
        -11    1    3    3    0    0  0.16112539729E+02 -0.44728027113E+01 -0.22308355269E+02  0.27879788659E+02  0.51100000000E-03 0.  1.
         11    1    3    3    0    0 -0.16112539729E+02  0.44728027113E+01  0.80527680426E+02  0.82245530065E+02  0.51100000000E-03 0. -1.
<mgrwt>
<rscale>  0 0.93477783E+02</rscale>
<asrwt>0</asrwt>
<pdfrwt beam="1">  1        2 0.12949588E-01 0.93477783E+02</pdfrwt>
<pdfrwt beam="2">  1       -2 0.39927687E-02 0.93477783E+02</pdfrwt>
<totfact> 0.10874574E+05</totfact>
</mgrwt>
</event>
<event>
 5    1  0.2799021E+000  0.9095182E+02  0.7818608E-02  0.1300563E+00
         -2   -1    0    0    0  501 -0.00000000000E+00  0.00000000000E+00  0.15091829533E+02  0.15091829757E+02  0.26000000000E-02 0.  1.
          2   -1    0    0  501    0  0.00000000000E+00 -0.00000000000E+00 -0.13703163974E+03  0.13703163976E+03  0.26000000000E-02 0. -1.
         23    2    1    2    0    0  0.00000000000E+00  0.00000000000E+00 -0.12193981020E+03  0.15212346952E+03  0.90951815078E+02 0.  0.
        -11    1    3    3    0    0 -0.10881403018E+02  0.22468613796E+02  0.26057606238E+01  0.25100468646E+02  0.51100000000E-03 0.  1.
         11    1    3    3    0    0  0.10881403018E+02 -0.22468613796E+02 -0.12454557083E+03  0.12702300087E+03  0.51100000000E-03 0. -1.
<mgrwt>
<rscale>  0 0.90951815E+02</rscale>
<asrwt>0</asrwt>
<pdfrwt beam="2">  1        2 0.21081790E-01 0.90951815E+02</pdfrwt>
<pdfrwt beam="1">  1       -2 0.23218200E-02 0.90951815E+02</pdfrwt>
<totfact> 0.13653582E+05</totfact>
</mgrwt>
</event>
<event>
 5    1  0.2799021E+000  0.9059451E+02  0.7818608E-02  0.1301418E+00
          2   -1    0    0  501    0  0.00000000000E+00  0.00000000000E+00  0.36318195134E+02  0.36318195227E+02  0.26000000000E-02 0. -1.
         -2   -1    0    0    0  501 -0.00000000000E+00 -0.00000000000E+00 -0.56496232060E+02  0.56496232119E+02  0.26000000000E-02 0.  1.
         23    2    1    2    0    0  0.00000000000E+00  0.00000000000E+00 -0.20178036926E+02  0.92814427347E+02  0.90594507281E+02 0.  0.
        -11    1    3    3    0    0  0.17232964768E+02 -0.33279298152E+02 -0.36155636209E+02  0.52074147042E+02  0.51100000000E-03 0. -1.
         11    1    3    3    0    0 -0.17232964768E+02  0.33279298152E+02  0.15977599283E+02  0.40740280305E+02  0.51100000000E-03 0.  1.
<mgrwt>
<rscale>  0 0.90594507E+02</rscale>
<asrwt>0</asrwt>
<pdfrwt beam="1">  1        2 0.55874147E-02 0.90594507E+02</pdfrwt>
<pdfrwt beam="2">  1       -2 0.86917280E-02 0.90594507E+02</pdfrwt>
<totfact> 0.94783705E+04</totfact>
</mgrwt>
</event>
<event>
 5    1  0.2799021E+000  0.8947980E+02  0.7818608E-02  0.1304116E+00
          2   -1    0    0  501    0  0.00000000000E+00  0.00000000000E+00  0.30989597606E+02  0.30989597715E+02  0.26000000000E-02 0. -1.
         -2   -1    0    0    0  501 -0.00000000000E+00 -0.00000000000E+00 -0.64591302857E+02  0.64591302909E+02  0.26000000000E-02 0.  1.
         23    2    1    2    0    0  0.00000000000E+00  0.00000000000E+00 -0.33601705250E+02  0.95580900624E+02  0.89479796426E+02 0.  0.
        -11    1    3    3    0    0  0.36277861298E+02  0.26148244754E+02 -0.18251605492E+02  0.48300466120E+02  0.51100000000E-03 0. -1.
         11    1    3    3    0    0 -0.36277861298E+02 -0.26148244754E+02 -0.15350099759E+02  0.47280434505E+02  0.51100000000E-03 0.  1.
<mgrwt>
<rscale>  0 0.89479796E+02</rscale>
<asrwt>0</asrwt>
<pdfrwt beam="1">  1        2 0.47676304E-02 0.89479796E+02</pdfrwt>
<pdfrwt beam="2">  1       -2 0.99371235E-02 0.89479796E+02</pdfrwt>
<totfact> 0.94318988E+04</totfact>
</mgrwt>
</event>
<event>
 5    1  0.2799021E+000  0.8885236E+02  0.7818608E-02  0.1305655E+00
          2   -1    0    0  501    0  0.00000000000E+00  0.00000000000E+00  0.89354286611E+02  0.89354286649E+02  0.26000000000E-02 0. -1.
         -2   -1    0    0    0  501 -0.00000000000E+00 -0.00000000000E+00 -0.22088310913E+02  0.22088311066E+02  0.26000000000E-02 0.  1.
         23    2    1    2    0    0  0.00000000000E+00  0.00000000000E+00  0.67265975698E+02  0.11144259772E+03  0.88852355618E+02 0.  0.
        -11    1    3    3    0    0 -0.26899192341E+02  0.14760888426E+02  0.73929879700E+02  0.80044222080E+02  0.51100000000E-03 0. -1.
         11    1    3    3    0    0  0.26899192341E+02 -0.14760888426E+02 -0.66639040015E+01  0.31398375635E+02  0.51100000000E-03 0.  1.
<mgrwt>
<rscale>  0 0.88852356E+02</rscale>
<asrwt>0</asrwt>
<pdfrwt beam="1">  1        2 0.13746813E-01 0.88852356E+02</pdfrwt>
<pdfrwt beam="2">  1       -2 0.33982017E-02 0.88852356E+02</pdfrwt>
<totfact> 0.12736181E+05</totfact>
</mgrwt>
</event>
<event>
 5    1  0.2799021E+000  0.9087779E+02  0.7818608E-02  0.1300740E+00
         -2   -1    0    0    0  501 -0.00000000000E+00  0.00000000000E+00  0.61188559978E+02  0.61188560033E+02  0.26000000000E-02 0.  1.
          2   -1    0    0  501    0  0.00000000000E+00 -0.00000000000E+00 -0.33743123800E+02  0.33743123900E+02  0.26000000000E-02 0. -1.
         23    2    1    2    0    0  0.00000000000E+00  0.00000000000E+00  0.27445436178E+02  0.94931683933E+02  0.90877789627E+02 0.  0.
        -11    1    3    3    0    0  0.43275578602E+02  0.71660761620E+01  0.13378400208E+01  0.43885284175E+02  0.51100000000E-03 0. -1.
         11    1    3    3    0    0 -0.43275578602E+02 -0.71660761620E+01  0.26107596157E+02  0.51046399758E+02  0.51100000000E-03 0.  1.
<mgrwt>
<rscale>  0 0.90877790E+02</rscale>
<asrwt>0</asrwt>
<pdfrwt beam="2">  1        2 0.51912498E-02 0.90877790E+02</pdfrwt>
<pdfrwt beam="1">  1       -2 0.94136246E-02 0.90877790E+02</pdfrwt>
<totfact> 0.92144471E+04</totfact>
</mgrwt>
</event>
<event>
 5    1  0.2799021E+000  0.9091114E+02  0.7818608E-02  0.1300660E+00
          2   -1    0    0  501    0  0.00000000000E+00  0.00000000000E+00  0.21583158773E+03  0.21583158775E+03  0.26000000000E-02 0. -1.
         -2   -1    0    0    0  501 -0.00000000000E+00 -0.00000000000E+00 -0.95732461352E+01  0.95732464882E+01  0.26000000000E-02 0.  1.
         23    2    1    2    0    0  0.00000000000E+00  0.00000000000E+00  0.20625834160E+03  0.22540483424E+03  0.90911142434E+02 0.  0.
        -11    1    3    3    0    0  0.41178696354E+02 -0.19170381478E+02  0.98820156068E+02  0.10875942168E+03  0.51100000000E-03 0. -1.
         11    1    3    3    0    0 -0.41178696354E+02  0.19170381478E+02  0.10743818553E+03  0.11664541255E+03  0.51100000000E-03 0.  1.
<mgrwt>
<rscale>  0 0.90911142E+02</rscale>
<asrwt>0</asrwt>
<pdfrwt beam="1">  1        2 0.33204858E-01 0.90911142E+02</pdfrwt>
<pdfrwt beam="2">  1       -2 0.14728072E-02 0.90911142E+02</pdfrwt>
<totfact> 0.16027556E+05</totfact>
</mgrwt>
</event>
<event>
 5    1  0.2799021E+000  0.9065385E+02  0.7818608E-02  0.1301276E+00
          2   -1    0    0  501    0  0.00000000000E+00  0.00000000000E+00  0.19652993734E+02  0.19652993906E+02  0.26000000000E-02 0. -1.
         -2   -1    0    0    0  501 -0.00000000000E+00 -0.00000000000E+00 -0.10454031083E+03  0.10454031087E+03  0.26000000000E-02 0.  1.
         23    2    1    2    0    0  0.00000000000E+00  0.00000000000E+00 -0.84887317100E+02  0.12419330477E+03  0.90653849040E+02 0.  0.
        -11    1    3    3    0    0  0.11154623396E+02 -0.15954948395E+02 -0.98521316186E+02  0.10042627019E+03  0.51100000000E-03 0.  1.
         11    1    3    3    0    0 -0.11154623396E+02  0.15954948395E+02  0.13633999086E+02  0.23767034580E+02  0.51100000000E-03 0. -1.
<mgrwt>
<rscale>  0 0.90653849E+02</rscale>
<asrwt>0</asrwt>
<pdfrwt beam="1">  1        2 0.30235376E-02 0.90653849E+02</pdfrwt>
<pdfrwt beam="2">  1       -2 0.16083125E-01 0.90653849E+02</pdfrwt>
<totfact> 0.79883898E+04</totfact>
</mgrwt>
</event>
<event>
 5    1  0.2799021E+000  0.9132482E+02  0.7818608E-02  0.1299675E+00
         -2   -1    0    0    0  501 -0.00000000000E+00  0.00000000000E+00  0.57579829305E+02  0.57579829364E+02  0.26000000000E-02 0.  1.
          2   -1    0    0  501    0  0.00000000000E+00 -0.00000000000E+00 -0.36211565698E+02  0.36211565792E+02  0.26000000000E-02 0. -1.
         23    2    1    2    0    0  0.00000000000E+00  0.00000000000E+00  0.21368263607E+02  0.93791395155E+02  0.91324822013E+02 0.  0.
        -11    1    3    3    0    0 -0.23282928041E+02 -0.47840800283E+01  0.50725275385E+02  0.56018173150E+02  0.51100000000E-03 0.  1.
         11    1    3    3    0    0  0.23282928041E+02  0.47840800283E+01 -0.29357011779E+02  0.37773222006E+02  0.51100000000E-03 0. -1.
<mgrwt>
<rscale>  0 0.91324822E+02</rscale>
<asrwt>0</asrwt>
<pdfrwt beam="2">  1        2 0.55710101E-02 0.91324822E+02</pdfrwt>
<pdfrwt beam="1">  1       -2 0.88584353E-02 0.91324822E+02</pdfrwt>
<totfact> 0.92519278E+04</totfact>
</mgrwt>
</event>
<event>
 5    1  0.2799021E+000  0.8906220E+02  0.7818608E-02  0.1305139E+00
          2   -1    0    0  501    0  0.00000000000E+00  0.00000000000E+00  0.32636110080E+03  0.32636110081E+03  0.26000000000E-02 0.  1.
         -2   -1    0    0    0  501 -0.00000000000E+00 -0.00000000000E+00 -0.60761487793E+01  0.60761493355E+01  0.26000000000E-02 0. -1.
         23    2    1    2    0    0  0.00000000000E+00  0.00000000000E+00  0.32028495202E+03  0.33243725015E+03  0.89062196210E+02 0.  0.
        -11    1    3    3    0    0  0.41408431997E+02  0.70350426825E+01  0.21536395610E+03  0.21942147492E+03  0.51100000000E-03 0.  1.
         11    1    3    3    0    0 -0.41408431997E+02 -0.70350426825E+01  0.10492099592E+03  0.11301577523E+03  0.51100000000E-03 0. -1.
<mgrwt>
<rscale>  0 0.89062196E+02</rscale>
<asrwt>0</asrwt>
<pdfrwt beam="1">  1        2 0.50209416E-01 0.89062196E+02</pdfrwt>
<pdfrwt beam="2">  1       -2 0.93479186E-03 0.89062196E+02</pdfrwt>
<totfact> 0.19730066E+05</totfact>
</mgrwt>
</event>
<event>
 5    1  0.2799021E+000  0.9027180E+02  0.7818608E-02  0.1302195E+00
         -2   -1    0    0    0  501 -0.00000000000E+00  0.00000000000E+00  0.20724482020E+03  0.20724482022E+03  0.26000000000E-02 0.  1.
          2   -1    0    0  501    0  0.00000000000E+00 -0.00000000000E+00 -0.98301580110E+01  0.98301583548E+01  0.26000000000E-02 0. -1.
         23    2    1    2    0    0  0.00000000000E+00  0.00000000000E+00  0.19741466219E+03  0.21707497857E+03  0.90271797780E+02 0.  0.
        -11    1    3    3    0    0 -0.27402226261E+02 -0.30494740977E+02  0.14410669393E+03  0.14982506622E+03  0.51100000000E-03 0.  1.
         11    1    3    3    0    0  0.27402226261E+02  0.30494740977E+02  0.53307968254E+02  0.67249912349E+02  0.51100000000E-03 0. -1.
<mgrwt>
<rscale>  0 0.90271798E+02</rscale>
<asrwt>0</asrwt>
<pdfrwt beam="2">  1        2 0.15123321E-02 0.90271798E+02</pdfrwt>
<pdfrwt beam="1">  1       -2 0.31883816E-01 0.90271798E+02</pdfrwt>
<totfact> 0.62939183E+04</totfact>
</mgrwt>
</event>
<event>
 5    1  0.2799021E+000  0.9226128E+02  0.7818608E-02  0.1297466E+00
         -2   -1    0    0    0  501 -0.00000000000E+00  0.00000000000E+00  0.59191464387E+02  0.59191464444E+02  0.26000000000E-02 0.  1.
          2   -1    0    0  501    0  0.00000000000E+00 -0.00000000000E+00 -0.35951733806E+02  0.35951733900E+02  0.26000000000E-02 0. -1.
         23    2    1    2    0    0  0.00000000000E+00  0.00000000000E+00  0.23239730581E+02  0.95143198344E+02  0.92261276349E+02 0.  0.
        -11    1    3    3    0    0 -0.61054419678E+01 -0.45574277813E+02  0.77966946512E+01  0.46637749384E+02  0.51100000000E-03 0.  1.
         11    1    3    3    0    0  0.61054419678E+01  0.45574277813E+02  0.15443035930E+02  0.48505448960E+02  0.51100000000E-03 0. -1.
<mgrwt>
<rscale>  0 0.92261276E+02</rscale>
<asrwt>0</asrwt>
<pdfrwt beam="2">  1        2 0.55310360E-02 0.92261276E+02</pdfrwt>
<pdfrwt beam="1">  1       -2 0.91063791E-02 0.92261276E+02</pdfrwt>
<totfact> 0.89627232E+04</totfact>
</mgrwt>
</event>
<event>
 5    1  0.2799021E+000  0.6163892E+02  0.7818608E-02  0.1391080E+00
         -2   -1    0    0    0  501 -0.00000000000E+00  0.00000000000E+00  0.12491876457E+03  0.12491876460E+03  0.26000000000E-02 0.  1.
          2   -1    0    0  501    0  0.00000000000E+00 -0.00000000000E+00 -0.76036550782E+01  0.76036555227E+01  0.26000000000E-02 0. -1.
         23    2    1    2    0    0  0.00000000000E+00  0.00000000000E+00  0.11731510949E+03  0.13252242012E+03  0.61638923736E+02 0.  0.
        -11    1    3    3    0    0 -0.25005127925E+02 -0.13521262789E+02  0.33059409574E+02  0.43600522148E+02  0.51100000000E-03 0. -1.
         11    1    3    3    0    0  0.25005127925E+02  0.13521262789E+02  0.84255699918E+02  0.88921897971E+02  0.51100000000E-03 0.  1.
<mgrwt>
<rscale>  0 0.61638924E+02</rscale>
<asrwt>0</asrwt>
<pdfrwt beam="2">  1        2 0.11697933E-02 0.61638924E+02</pdfrwt>
<pdfrwt beam="1">  1       -2 0.19218269E-01 0.61638924E+02</pdfrwt>
<totfact> 0.19830920E+05</totfact>
</mgrwt>
</event>
<event>
 5    1  0.2799021E+000  0.8779974E+02  0.7818608E-02  0.1308269E+00
         -2   -1    0    0    0  501 -0.00000000000E+00  0.00000000000E+00  0.27038624610E+02  0.27038624735E+02  0.26000000000E-02 0. -1.
          2   -1    0    0  501    0  0.00000000000E+00 -0.00000000000E+00 -0.71275767626E+02  0.71275767673E+02  0.26000000000E-02 0.  1.
         23    2    1    2    0    0  0.00000000000E+00  0.00000000000E+00 -0.44237143015E+02  0.98314392409E+02  0.87799743351E+02 0.  0.
        -11    1    3    3    0    0  0.30437319497E+01 -0.41281745884E+02 -0.38489708034E+02  0.56523486023E+02  0.51100000000E-03 0.  1.
         11    1    3    3    0    0 -0.30437319497E+01  0.41281745884E+02 -0.57474349812E+01  0.41790906385E+02  0.51100000000E-03 0. -1.
<mgrwt>
<rscale>  0 0.87799743E+02</rscale>
<asrwt>0</asrwt>
<pdfrwt beam="2">  1        2 0.10965503E-01 0.87799743E+02</pdfrwt>
<pdfrwt beam="1">  1       -2 0.41597884E-02 0.87799743E+02</pdfrwt>
<totfact> 0.12349295E+05</totfact>
</mgrwt>
</event>
<event>
 5    1  0.2799021E+000  0.9604757E+02  0.7818608E-02  0.1288834E+00
          2   -1    0    0  501    0  0.00000000000E+00  0.00000000000E+00  0.13719054963E+03  0.13719054965E+03  0.26000000000E-02 0. -1.
         -2   -1    0    0    0  501 -0.00000000000E+00 -0.00000000000E+00 -0.16810807506E+02  0.16810807707E+02  0.26000000000E-02 0.  1.
         23    2    1    2    0    0  0.00000000000E+00  0.00000000000E+00  0.12037974212E+03  0.15400135736E+03  0.96047570272E+02 0.  0.
        -11    1    3    3    0    0  0.22546036528E+02 -0.17380560195E+02 -0.18235951789E+01  0.28526008053E+02  0.51100000000E-03 0.  1.
         11    1    3    3    0    0 -0.22546036528E+02  0.17380560195E+02  0.12220333730E+03  0.12547534931E+03  0.51100000000E-03 0. -1.
<mgrwt>
<rscale>  0 0.96047570E+02</rscale>
<asrwt>0</asrwt>
<pdfrwt beam="1">  1        2 0.21106238E-01 0.96047570E+02</pdfrwt>
<pdfrwt beam="2">  1       -2 0.25862782E-02 0.96047570E+02</pdfrwt>
<totfact> 0.11768378E+05</totfact>
</mgrwt>
</event>
<event>
 5    1  0.2799021E+000  0.8220008E+02  0.7818608E-02  0.1322921E+00
          2   -1    0    0  501    0  0.00000000000E+00  0.00000000000E+00  0.22209410553E+02  0.22209410705E+02  0.26000000000E-02 0. -1.
         -2   -1    0    0    0  501 -0.00000000000E+00 -0.00000000000E+00 -0.76058445729E+02  0.76058445774E+02  0.26000000000E-02 0.  1.
         23    2    1    2    0    0  0.00000000000E+00  0.00000000000E+00 -0.53849035176E+02  0.98267856479E+02  0.82200079243E+02 0.  0.
        -11    1    3    3    0    0 -0.17131050621E+02 -0.98206935448E+01  0.16167122105E+02  0.25520477160E+02  0.51100000000E-03 0. -1.
         11    1    3    3    0    0  0.17131050621E+02  0.98206935448E+01 -0.70016157281E+02  0.72747379319E+02  0.51100000000E-03 0.  1.
<mgrwt>
<rscale>  0 0.82200079E+02</rscale>
<asrwt>0</asrwt>
<pdfrwt beam="1">  1        2 0.34168325E-02 0.82200079E+02</pdfrwt>
<pdfrwt beam="2">  1       -2 0.11701299E-01 0.82200079E+02</pdfrwt>
<totfact> 0.11123108E+05</totfact>
</mgrwt>
</event>
<event>
 5    1  0.2799021E+000  0.8890695E+02  0.7818608E-02  0.1305520E+00
         -2   -1    0    0    0  501 -0.00000000000E+00  0.00000000000E+00  0.51715550263E+01  0.51715556799E+01  0.26000000000E-02 0.  1.
          2   -1    0    0  501    0  0.00000000000E+00 -0.00000000000E+00 -0.38211166506E+03  0.38211166507E+03  0.26000000000E-02 0. -1.
         23    2    1    2    0    0  0.00000000000E+00  0.00000000000E+00 -0.37694011004E+03  0.38728322075E+03  0.88906954292E+02 0.  0.
        -11    1    3    3    0    0 -0.32383714010E+02  0.29909960378E+02 -0.16352202409E+03  0.16935986250E+03  0.51100000000E-03 0. -1.
         11    1    3    3    0    0  0.32383714010E+02 -0.29909960378E+02 -0.21341808595E+03  0.21792335825E+03  0.51100000000E-03 0.  1.
<mgrwt>
<rscale>  0 0.88906954E+02</rscale>
<asrwt>0</asrwt>
<pdfrwt beam="2">  1        2 0.58786388E-01 0.88906954E+02</pdfrwt>
<pdfrwt beam="1">  1       -2 0.79562420E-03 0.88906954E+02</pdfrwt>
<totfact> 0.20994343E+05</totfact>
</mgrwt>
</event>
<event>
 5    1  0.2799021E+000  0.9053089E+02  0.7818608E-02  0.1301571E+00
          2   -1    0    0  501    0  0.00000000000E+00  0.00000000000E+00  0.25673109130E+02  0.25673109261E+02  0.26000000000E-02 0. -1.
         -2   -1    0    0    0  501 -0.00000000000E+00 -0.00000000000E+00 -0.79809597896E+02  0.79809597938E+02  0.26000000000E-02 0.  1.
         23    2    1    2    0    0  0.00000000000E+00  0.00000000000E+00 -0.54136488766E+02  0.10548270720E+03  0.90530890321E+02 0.  0.
        -11    1    3    3    0    0 -0.33441624397E+01  0.44941151662E+02 -0.32021188572E+02  0.55283334314E+02  0.51100000000E-03 0.  1.
         11    1    3    3    0    0  0.33441624397E+01 -0.44941151662E+02 -0.22115300195E+02  0.50199372885E+02  0.51100000000E-03 0. -1.
<mgrwt>
<rscale>  0 0.90530890E+02</rscale>
<asrwt>0</asrwt>
<pdfrwt beam="1">  1        2 0.39497091E-02 0.90530890E+02</pdfrwt>
<pdfrwt beam="2">  1       -2 0.12278400E-01 0.90530890E+02</pdfrwt>
<totfact> 0.86633913E+04</totfact>
</mgrwt>
</event>
<event>
 5    1  0.2799021E+000  0.8915386E+02  0.7818608E-02  0.1304914E+00
         -2   -1    0    0    0  501 -0.00000000000E+00  0.00000000000E+00  0.47254708256E+01  0.47254715409E+01  0.26000000000E-02 0.  1.
          2   -1    0    0  501    0  0.00000000000E+00 -0.00000000000E+00 -0.42050894617E+03  0.42050894618E+03  0.26000000000E-02 0. -1.
         23    2    1    2    0    0  0.00000000000E+00  0.00000000000E+00 -0.41578347534E+03  0.42523441772E+03  0.89153864993E+02 0.  0.
        -11    1    3    3    0    0  0.32128645060E+02  0.30853650750E+02 -0.21602162760E+03  0.22056640993E+03  0.51100000000E-03 0.  1.
         11    1    3    3    0    0 -0.32128645060E+02 -0.30853650750E+02 -0.19976184774E+03  0.20466800779E+03  0.51100000000E-03 0. -1.
<mgrwt>
<rscale>  0 0.89153865E+02</rscale>
<asrwt>0</asrwt>
<pdfrwt beam="2">  1        2 0.64693655E-01 0.89153865E+02</pdfrwt>
<pdfrwt beam="1">  1       -2 0.72699589E-03 0.89153865E+02</pdfrwt>
<totfact> 0.21563912E+05</totfact>
</mgrwt>
</event>
<event>
 5    1  0.2799021E+000  0.8835193E+02  0.7818608E-02  0.1306893E+00
         -2   -1    0    0    0  501 -0.00000000000E+00  0.00000000000E+00  0.12104335570E+02  0.12104335849E+02  0.26000000000E-02 0.  1.
          2   -1    0    0  501    0  0.00000000000E+00 -0.00000000000E+00 -0.16122455090E+03  0.16122455092E+03  0.26000000000E-02 0. -1.
         23    2    1    2    0    0  0.00000000000E+00  0.00000000000E+00 -0.14912021533E+03  0.17332888677E+03  0.88351934722E+02 0.  0.
        -11    1    3    3    0    0  0.84961785111E+01  0.26382670914E+02 -0.70762819706E+01  0.28606015812E+02  0.51100000000E-03 0.  1.
         11    1    3    3    0    0 -0.84961785111E+01 -0.26382670914E+02 -0.14204393336E+03  0.14472287096E+03  0.51100000000E-03 0. -1.
<mgrwt>
<rscale>  0 0.88351935E+02</rscale>
<asrwt>0</asrwt>
<pdfrwt beam="2">  1        2 0.24803776E-01 0.88351935E+02</pdfrwt>
<pdfrwt beam="1">  1       -2 0.18622056E-02 0.88351935E+02</pdfrwt>
<totfact> 0.15602750E+05</totfact>
</mgrwt>
</event>
<event>
 5    1  0.2799021E+000  0.9844576E+02  0.7818608E-02  0.1283599E+00
          2   -1    0    0  501    0  0.00000000000E+00  0.00000000000E+00  0.19124231152E+02  0.19124231329E+02  0.26000000000E-02 0. -1.
         -2   -1    0    0    0  501 -0.00000000000E+00 -0.00000000000E+00 -0.12669225844E+03  0.12669225847E+03  0.26000000000E-02 0.  1.
         23    2    1    2    0    0  0.00000000000E+00  0.00000000000E+00 -0.10756802729E+03  0.14581648980E+03  0.98445762742E+02 0.  0.
        -11    1    3    3    0    0  0.27945098662E+02 -0.22060517003E+02 -0.34390011593E+01  0.35769004444E+02  0.51100000000E-03 0. -1.
         11    1    3    3    0    0 -0.27945098662E+02  0.22060517003E+02 -0.10412902613E+03  0.11004748535E+03  0.51100000000E-03 0.  1.
<mgrwt>
<rscale>  0 0.98445763E+02</rscale>
<asrwt>0</asrwt>
<pdfrwt beam="1">  1        2 0.29421895E-02 0.98445763E+02</pdfrwt>
<pdfrwt beam="2">  1       -2 0.19491116E-01 0.98445763E+02</pdfrwt>
<totfact> 0.61079706E+04</totfact>
</mgrwt>
</event>
<event>
 5    1  0.2799021E+000  0.9339754E+02  0.7818608E-02  0.1294827E+00
         -2   -1    0    0    0  501 -0.00000000000E+00  0.00000000000E+00  0.20035097285E+02  0.20035097453E+02  0.26000000000E-02 0.  1.
          2   -1    0    0  501    0  0.00000000000E+00 -0.00000000000E+00 -0.10884774253E+03  0.10884774256E+03  0.26000000000E-02 0. -1.
         23    2    1    2    0    0  0.00000000000E+00  0.00000000000E+00 -0.88812645241E+02  0.12888284001E+03  0.93397540087E+02 0.  0.
        -11    1    3    3    0    0 -0.15352672343E+02  0.27687349045E+02  0.29655991393E+01  0.31797619781E+02  0.51100000000E-03 0.  1.
         11    1    3    3    0    0  0.15352672343E+02 -0.27687349045E+02 -0.91778244380E+02  0.97085220229E+02  0.51100000000E-03 0. -1.
<mgrwt>
<rscale>  0 0.93397540E+02</rscale>
<asrwt>0</asrwt>
<pdfrwt beam="2">  1        2 0.16745806E-01 0.93397540E+02</pdfrwt>
<pdfrwt beam="1">  1       -2 0.30823227E-02 0.93397540E+02</pdfrwt>
<totfact> 0.11785671E+05</totfact>
</mgrwt>
</event>
<event>
 5    1  0.2799021E+000  0.9609484E+02  0.7818608E-02  0.1288729E+00
         -2   -1    0    0    0  501 -0.00000000000E+00  0.00000000000E+00  0.18752733533E+02  0.18752733713E+02  0.26000000000E-02 0.  1.
          2   -1    0    0  501    0  0.00000000000E+00 -0.00000000000E+00 -0.12310497487E+03  0.12310497490E+03  0.26000000000E-02 0. -1.
         23    2    1    2    0    0  0.00000000000E+00  0.00000000000E+00 -0.10435224134E+03  0.14185770862E+03  0.96094844922E+02 0.  0.
        -11    1    3    3    0    0  0.42658609123E+02 -0.69246887384E+01 -0.21180768325E+02  0.48128299301E+02  0.51100000000E-03 0.  1.
         11    1    3    3    0    0 -0.42658609123E+02  0.69246887384E+01 -0.83171473017E+02  0.93729409315E+02  0.51100000000E-03 0. -1.
<mgrwt>
<rscale>  0 0.96094845E+02</rscale>
<asrwt>0</asrwt>
<pdfrwt beam="2">  1        2 0.18939226E-01 0.96094845E+02</pdfrwt>
<pdfrwt beam="1">  1       -2 0.28850360E-02 0.96094845E+02</pdfrwt>
<totfact> 0.11336078E+05</totfact>
</mgrwt>
</event>
<event>
 5    1  0.2799021E+000  0.8739661E+02  0.7818608E-02  0.1309282E+00
          2   -1    0    0  501    0  0.00000000000E+00  0.00000000000E+00  0.16223576965E+03  0.16223576967E+03  0.26000000000E-02 0. -1.
         -2   -1    0    0    0  501 -0.00000000000E+00 -0.00000000000E+00 -0.11770165290E+02  0.11770165577E+02  0.26000000000E-02 0.  1.
         23    2    1    2    0    0  0.00000000000E+00  0.00000000000E+00  0.15046560436E+03  0.17400593525E+03  0.87396609809E+02 0.  0.
        -11    1    3    3    0    0 -0.42303148443E+02 -0.75656626714E+01  0.91003949887E+02  0.10064052124E+03  0.51100000000E-03 0. -1.
         11    1    3    3    0    0  0.42303148443E+02  0.75656626714E+01  0.59461654471E+02  0.73365414008E+02  0.51100000000E-03 0.  1.
<mgrwt>
<rscale>  0 0.87396610E+02</rscale>
<asrwt>0</asrwt>
<pdfrwt beam="1">  1        2 0.24959348E-01 0.87396610E+02</pdfrwt>
<pdfrwt beam="2">  1       -2 0.18107947E-02 0.87396610E+02</pdfrwt>
<totfact> 0.16100886E+05</totfact>
</mgrwt>
</event>
<event>
 5    1  0.2799021E+000  0.8989864E+02  0.7818608E-02  0.1303097E+00
          2   -1    0    0  501    0  0.00000000000E+00  0.00000000000E+00  0.13160730949E+02  0.13160731205E+02  0.26000000000E-02 0. -1.
         -2   -1    0    0    0  501 -0.00000000000E+00 -0.00000000000E+00 -0.15352046559E+03  0.15352046562E+03  0.26000000000E-02 0.  1.
         23    2    1    2    0    0  0.00000000000E+00  0.00000000000E+00 -0.14035973464E+03  0.16668119682E+03  0.89898644395E+02 0.  0.
        -11    1    3    3    0    0  0.26523589048E+02 -0.47547479646E+01 -0.13688457823E+03  0.13951163450E+03  0.51100000000E-03 0.  1.
         11    1    3    3    0    0 -0.26523589048E+02  0.47547479646E+01 -0.34751564157E+01  0.27169562319E+02  0.51100000000E-03 0. -1.
<mgrwt>
<rscale>  0 0.89898644E+02</rscale>
<asrwt>0</asrwt>
<pdfrwt beam="1">  1        2 0.20247280E-02 0.89898644E+02</pdfrwt>
<pdfrwt beam="2">  1       -2 0.23618532E-01 0.89898644E+02</pdfrwt>
<totfact> 0.71785631E+04</totfact>
</mgrwt>
</event>
<event>
 5    1  0.2799021E+000  0.8852313E+02  0.7818608E-02  0.1306468E+00
         -2   -1    0    0    0  501 -0.00000000000E+00  0.00000000000E+00  0.20891668708E+03  0.20891668709E+03  0.26000000000E-02 0.  1.
          2   -1    0    0  501    0  0.00000000000E+00 -0.00000000000E+00 -0.93773556803E+01  0.93773560407E+01  0.26000000000E-02 0. -1.
         23    2    1    2    0    0  0.00000000000E+00  0.00000000000E+00  0.19953933140E+03  0.21829404313E+03  0.88523129709E+02 0.  0.
        -11    1    3    3    0    0  0.39396553930E+02  0.28623294235E+01  0.50524310290E+02  0.64132576136E+02  0.51100000000E-03 0. -1.
         11    1    3    3    0    0 -0.39396553930E+02 -0.28623294235E+01  0.14901502111E+03  0.15416146700E+03  0.51100000000E-03 0.  1.
<mgrwt>
<rscale>  0 0.88523130E+02</rscale>
<asrwt>0</asrwt>
<pdfrwt beam="2">  1        2 0.14426704E-02 0.88523130E+02</pdfrwt>
<pdfrwt beam="1">  1       -2 0.32141023E-01 0.88523130E+02</pdfrwt>
<totfact> 0.65926747E+04</totfact>
</mgrwt>
</event>
<event>
 5    1  0.2799021E+000  0.9276392E+02  0.7818608E-02  0.1296293E+00
          2   -1    0    0  501    0  0.00000000000E+00  0.00000000000E+00  0.43818912720E+02  0.43818912797E+02  0.26000000000E-02 0. -1.
         -2   -1    0    0    0  501 -0.00000000000E+00 -0.00000000000E+00 -0.49094923921E+02  0.49094923990E+02  0.26000000000E-02 0.  1.
         23    2    1    2    0    0  0.00000000000E+00  0.00000000000E+00 -0.52760112010E+01  0.92913836787E+02  0.92763919561E+02 0.  0.
        -11    1    3    3    0    0 -0.43063348617E+02 -0.15760699731E+02 -0.96087459420E+01  0.46852744305E+02  0.51100000000E-03 0.  1.
         11    1    3    3    0    0  0.43063348617E+02  0.15760699731E+02  0.43327347410E+01  0.46061092482E+02  0.51100000000E-03 0. -1.
<mgrwt>
<rscale>  0 0.92763920E+02</rscale>
<asrwt>0</asrwt>
<pdfrwt beam="1">  1        2 0.67413712E-02 0.92763920E+02</pdfrwt>
<pdfrwt beam="2">  1       -2 0.75530652E-02 0.92763920E+02</pdfrwt>
<totfact> 0.92922665E+04</totfact>
</mgrwt>
</event>
<event>
 5    1  0.2799021E+000  0.8958638E+02  0.7818608E-02  0.1303856E+00
          2   -1    0    0  501    0  0.00000000000E+00  0.00000000000E+00  0.25874060507E+02  0.25874060638E+02  0.26000000000E-02 0. -1.
         -2   -1    0    0    0  501 -0.00000000000E+00 -0.00000000000E+00 -0.77545991979E+02  0.77545992023E+02  0.26000000000E-02 0.  1.
         23    2    1    2    0    0  0.00000000000E+00  0.00000000000E+00 -0.51671931472E+02  0.10342005266E+03  0.89586376142E+02 0.  0.
        -11    1    3    3    0    0  0.29657820128E+02  0.28881539185E+02 -0.60856420186E+01  0.41842139519E+02  0.51100000000E-03 0. -1.
         11    1    3    3    0    0 -0.29657820128E+02 -0.28881539185E+02 -0.45586289453E+02  0.61577913142E+02  0.51100000000E-03 0.  1.
<mgrwt>
<rscale>  0 0.89586376E+02</rscale>
<asrwt>0</asrwt>
<pdfrwt beam="1">  1        2 0.39806247E-02 0.89586376E+02</pdfrwt>
<pdfrwt beam="2">  1       -2 0.11930153E-01 0.89586376E+02</pdfrwt>
<totfact> 0.89592635E+04</totfact>
</mgrwt>
</event>
<event>
 5    1  0.2799021E+000  0.8733847E+02  0.7818608E-02  0.1309428E+00
         -2   -1    0    0    0  501 -0.00000000000E+00  0.00000000000E+00  0.23702352190E+03  0.23702352191E+03  0.26000000000E-02 0. -1.
          2   -1    0    0  501    0  0.00000000000E+00 -0.00000000000E+00 -0.80456239026E+01  0.80456243227E+01  0.26000000000E-02 0.  1.
         23    2    1    2    0    0  0.00000000000E+00  0.00000000000E+00  0.22897789799E+03  0.24506914623E+03  0.87338471854E+02 0.  0.
        -11    1    3    3    0    0 -0.29789622762E+02  0.13880275347E+02  0.33799936110E+02  0.47143603482E+02  0.51100000000E-03 0.  1.
         11    1    3    3    0    0  0.29789622762E+02 -0.13880275347E+02  0.19517796188E+03  0.19792554275E+03  0.51100000000E-03 0. -1.
<mgrwt>
<rscale>  0 0.87338472E+02</rscale>
<asrwt>0</asrwt>
<pdfrwt beam="2">  1        2 0.12377880E-02 0.87338472E+02</pdfrwt>
<pdfrwt beam="1">  1       -2 0.36465166E-01 0.87338472E+02</pdfrwt>
<totfact> 0.64376739E+04</totfact>
</mgrwt>
</event>
<event>
 5    1  0.2799021E+000  0.9285313E+02  0.7818608E-02  0.1296086E+00
         -2   -1    0    0    0  501 -0.00000000000E+00  0.00000000000E+00  0.44729315269E+01  0.44729322826E+01  0.26000000000E-02 0.  1.
          2   -1    0    0  501    0  0.00000000000E+00 -0.00000000000E+00 -0.48188215969E+03  0.48188215970E+03  0.26000000000E-02 0. -1.
         23    2    1    2    0    0  0.00000000000E+00  0.00000000000E+00 -0.47740922817E+03  0.48635509198E+03  0.92853133277E+02 0.  0.
        -11    1    3    3    0    0  0.30985598241E+02  0.34314656859E+02 -0.26081766771E+03  0.26488385901E+03  0.51100000000E-03 0.  1.
         11    1    3    3    0    0 -0.30985598241E+02 -0.34314656859E+02 -0.21659156046E+03  0.22147123298E+03  0.51100000000E-03 0. -1.
<mgrwt>
<rscale>  0 0.92853133E+02</rscale>
<asrwt>0</asrwt>
<pdfrwt beam="2">  1        2 0.74135676E-01 0.92853133E+02</pdfrwt>
<pdfrwt beam="1">  1       -2 0.68814375E-03 0.92853133E+02</pdfrwt>
<totfact> 0.20286054E+05</totfact>
</mgrwt>
</event>
<event>
 5    1  0.2799021E+000  0.9107958E+02  0.7818608E-02  0.1300258E+00
         -2   -1    0    0    0  501 -0.00000000000E+00  0.00000000000E+00  0.15117310173E+03  0.15117310175E+03  0.26000000000E-02 0.  1.
          2   -1    0    0  501    0  0.00000000000E+00 -0.00000000000E+00 -0.13718527670E+02  0.13718527917E+02  0.26000000000E-02 0. -1.
         23    2    1    2    0    0  0.00000000000E+00  0.00000000000E+00  0.13745457406E+03  0.16489162967E+03  0.91079578418E+02 0.  0.
        -11    1    3    3    0    0  0.43941987739E+02 -0.75278613239E+01  0.85546149897E+02  0.96466111900E+02  0.51100000000E-03 0. -1.
         11    1    3    3    0    0 -0.43941987739E+02  0.75278613239E+01  0.51908424161E+02  0.68425517767E+02  0.51100000000E-03 0.  1.
<mgrwt>
<rscale>  0 0.91079578E+02</rscale>
<asrwt>0</asrwt>
<pdfrwt beam="2">  1        2 0.21105427E-02 0.91079578E+02</pdfrwt>
<pdfrwt beam="1">  1       -2 0.23257401E-01 0.91079578E+02</pdfrwt>
<totfact> 0.69847026E+04</totfact>
</mgrwt>
</event>
<event>
 5    1  0.2799021E+000  0.9121905E+02  0.7818608E-02  0.1299926E+00
          2   -1    0    0  501    0  0.00000000000E+00  0.00000000000E+00  0.74631846411E+02  0.74631846457E+02  0.26000000000E-02 0. -1.
         -2   -1    0    0    0  501 -0.00000000000E+00 -0.00000000000E+00 -0.27873203444E+02  0.27873203565E+02  0.26000000000E-02 0.  1.
         23    2    1    2    0    0  0.00000000000E+00  0.00000000000E+00  0.46758642967E+02  0.10250505002E+03  0.91219047287E+02 0.  0.
        -11    1    3    3    0    0  0.40357607325E+02  0.20366615097E+02  0.16572375101E+02  0.48147472376E+02  0.51100000000E-03 0.  1.
         11    1    3    3    0    0 -0.40357607325E+02 -0.20366615097E+02  0.30186267867E+02  0.54357577646E+02  0.51100000000E-03 0. -1.
<mgrwt>
<rscale>  0 0.91219047E+02</rscale>
<asrwt>0</asrwt>
<pdfrwt beam="1">  1        2 0.11481823E-01 0.91219047E+02</pdfrwt>
<pdfrwt beam="2">  1       -2 0.42881852E-02 0.91219047E+02</pdfrwt>
<totfact> 0.11247028E+05</totfact>
</mgrwt>
</event>
<event>
 5    1  0.2799021E+000  0.9280901E+02  0.7818608E-02  0.1296188E+00
         -2   -1    0    0    0  501 -0.00000000000E+00  0.00000000000E+00  0.81845133662E+02  0.81845133703E+02  0.26000000000E-02 0.  1.
          2   -1    0    0  501    0  0.00000000000E+00 -0.00000000000E+00 -0.26310396387E+02  0.26310396515E+02  0.26000000000E-02 0. -1.
         23    2    1    2    0    0  0.00000000000E+00  0.00000000000E+00  0.55534737275E+02  0.10815553022E+03  0.92809006419E+02 0.  0.
        -11    1    3    3    0    0 -0.27967972927E+02 -0.34903023121E+02  0.42179641482E+02  0.61478050461E+02  0.51100000000E-03 0.  1.
         11    1    3    3    0    0  0.27967972927E+02  0.34903023121E+02  0.13355095793E+02  0.46677479758E+02  0.51100000000E-03 0. -1.
<mgrwt>
<rscale>  0 0.92809006E+02</rscale>
<asrwt>0</asrwt>
<pdfrwt beam="2">  1        2 0.40477533E-02 0.92809006E+02</pdfrwt>
<pdfrwt beam="1">  1       -2 0.12591559E-01 0.92809006E+02</pdfrwt>
<totfact> 0.80929318E+04</totfact>
</mgrwt>
</event>
<event>
 5    1  0.2799021E+000  0.9229163E+02  0.7818608E-02  0.1297395E+00
          2   -1    0    0  501    0  0.00000000000E+00  0.00000000000E+00  0.81617905219E+02  0.81617905261E+02  0.26000000000E-02 0. -1.
         -2   -1    0    0    0  501 -0.00000000000E+00 -0.00000000000E+00 -0.26090304905E+02  0.26090305035E+02  0.26000000000E-02 0.  1.
         23    2    1    2    0    0  0.00000000000E+00  0.00000000000E+00  0.55527600314E+02  0.10770821030E+03  0.92291625668E+02 0.  0.
        -11    1    3    3    0    0  0.38792867227E+02  0.12657919844E+02  0.26160998172E+01  0.40889527522E+02  0.51100000000E-03 0.  1.
         11    1    3    3    0    0 -0.38792867227E+02 -0.12657919844E+02  0.52911500497E+02  0.66818682773E+02  0.51100000000E-03 0. -1.
<mgrwt>
<rscale>  0 0.92291626E+02</rscale>
<asrwt>0</asrwt>
<pdfrwt beam="1">  1        2 0.12556601E-01 0.92291626E+02</pdfrwt>
<pdfrwt beam="2">  1       -2 0.40138932E-02 0.92291626E+02</pdfrwt>
<totfact> 0.11167699E+05</totfact>
</mgrwt>
</event>
<event>
 5    1  0.2799021E+000  0.9175063E+02  0.7818608E-02  0.1298667E+00
          2   -1    0    0  501    0  0.00000000000E+00  0.00000000000E+00  0.69763697259E+02  0.69763697307E+02  0.26000000000E-02 0. -1.
         -2   -1    0    0    0  501 -0.00000000000E+00 -0.00000000000E+00 -0.30166755263E+02  0.30166755375E+02  0.26000000000E-02 0.  1.
         23    2    1    2    0    0  0.00000000000E+00  0.00000000000E+00  0.39596941996E+02  0.99930452682E+02  0.91750627016E+02 0.  0.
        -11    1    3    3    0    0 -0.14564026378E+02  0.46316075167E+01 -0.27312666239E+02  0.31297673873E+02  0.51100000000E-03 0.  1.
         11    1    3    3    0    0  0.14564026378E+02 -0.46316075167E+01  0.66909608235E+02  0.68632778808E+02  0.51100000000E-03 0. -1.
<mgrwt>
<rscale>  0 0.91750627E+02</rscale>
<asrwt>0</asrwt>
<pdfrwt beam="1">  1        2 0.10732876E-01 0.91750627E+02</pdfrwt>
<pdfrwt beam="2">  1       -2 0.46410393E-02 0.91750627E+02</pdfrwt>
<totfact> 0.10859005E+05</totfact>
</mgrwt>
</event>
<event>
 5    1  0.2799021E+000  0.9081096E+02  0.7818608E-02  0.1300900E+00
          2   -1    0    0  501    0  0.00000000000E+00  0.00000000000E+00  0.14654670542E+03  0.14654670544E+03  0.26000000000E-02 0. -1.
         -2   -1    0    0    0  501 -0.00000000000E+00 -0.00000000000E+00 -0.14068264198E+02  0.14068264438E+02  0.26000000000E-02 0.  1.
         23    2    1    2    0    0  0.00000000000E+00  0.00000000000E+00  0.13247844122E+03  0.16061496988E+03  0.90810963884E+02 0.  0.
        -11    1    3    3    0    0 -0.11655812722E+02  0.40585143536E+02  0.95763145937E+02  0.10465940935E+03  0.51100000000E-03 0. -1.
         11    1    3    3    0    0  0.11655812722E+02 -0.40585143536E+02  0.36715295285E+02  0.55955560530E+02  0.51100000000E-03 0.  1.
<mgrwt>
<rscale>  0 0.90810964E+02</rscale>
<asrwt>0</asrwt>
<pdfrwt beam="1">  1        2 0.22545647E-01 0.90810964E+02</pdfrwt>
<pdfrwt beam="2">  1       -2 0.21643484E-02 0.90810964E+02</pdfrwt>
<totfact> 0.14023193E+05</totfact>
</mgrwt>
</event>
<event>
 5    1  0.2799021E+000  0.9128874E+02  0.7818608E-02  0.1299760E+00
         -2   -1    0    0    0  501 -0.00000000000E+00  0.00000000000E+00  0.73519843903E+02  0.73519843949E+02  0.26000000000E-02 0.  1.
          2   -1    0    0  501    0  0.00000000000E+00 -0.00000000000E+00 -0.28338046090E+02  0.28338046209E+02  0.26000000000E-02 0. -1.
         23    2    1    2    0    0  0.00000000000E+00  0.00000000000E+00  0.45181797813E+02  0.10185789016E+03  0.91288744836E+02 0.  0.
        -11    1    3    3    0    0  0.37567514648E+02  0.67710424235E+01 -0.53312653138E+01  0.38543320594E+02  0.51100000000E-03 0. -1.
         11    1    3    3    0    0 -0.37567514648E+02 -0.67710424235E+01  0.50513063127E+02  0.63314569564E+02  0.51100000000E-03 0.  1.
<mgrwt>
<rscale>  0 0.91288745E+02</rscale>
<asrwt>0</asrwt>
<pdfrwt beam="2">  1        2 0.43596994E-02 0.91288745E+02</pdfrwt>
<pdfrwt beam="1">  1       -2 0.11310745E-01 0.91288745E+02</pdfrwt>
<totfact> 0.86803813E+04</totfact>
</mgrwt>
</event>
<event>
 5    1  0.2799021E+000  0.1069159E+03  0.7818608E-02  0.1266390E+00
          2   -1    0    0  501    0  0.00000000000E+00  0.00000000000E+00  0.92193108021E+02  0.92193108058E+02  0.26000000000E-02 0. -1.
         -2   -1    0    0    0  501 -0.00000000000E+00 -0.00000000000E+00 -0.30997489877E+02  0.30997489986E+02  0.26000000000E-02 0.  1.
         23    2    1    2    0    0  0.00000000000E+00  0.00000000000E+00  0.61195618144E+02  0.12319059804E+03  0.10691594720E+03 0.  0.
        -11    1    3    3    0    0  0.31338916679E+02 -0.45209843742E+01 -0.19030449037E+02  0.36942184412E+02  0.51100000000E-03 0.  1.
         11    1    3    3    0    0 -0.31338916679E+02  0.45209843742E+01  0.80226067181E+02  0.86248413632E+02  0.51100000000E-03 0. -1.
<mgrwt>
<rscale>  0 0.10691595E+03</rscale>
<asrwt>0</asrwt>
<pdfrwt beam="1">  1        2 0.14183555E-01 0.10691595E+03</pdfrwt>
<pdfrwt beam="2">  1       -2 0.47688447E-02 0.10691595E+03</pdfrwt>
<totfact> 0.76668198E+04</totfact>
</mgrwt>
</event>
<event>
 5    1  0.2799021E+000  0.9110751E+02  0.7818608E-02  0.1300192E+00
         -2   -1    0    0    0  501 -0.00000000000E+00  0.00000000000E+00  0.15743794416E+02  0.15743794631E+02  0.26000000000E-02 0.  1.
          2   -1    0    0  501    0  0.00000000000E+00 -0.00000000000E+00 -0.13180715832E+03  0.13180715835E+03  0.26000000000E-02 0. -1.
         23    2    1    2    0    0  0.00000000000E+00  0.00000000000E+00 -0.11606336391E+03  0.14755095298E+03  0.91107514969E+02 0.  0.
        -11    1    3    3    0    0 -0.42991333725E+02 -0.91921569231E+01 -0.38706031744E+02  0.58573948288E+02  0.51100000000E-03 0.  1.
         11    1    3    3    0    0  0.42991333725E+02  0.91921569231E+01 -0.77357332161E+02  0.88977004691E+02  0.51100000000E-03 0. -1.
<mgrwt>
<rscale>  0 0.91107515E+02</rscale>
<asrwt>0</asrwt>
<pdfrwt beam="2">  1        2 0.20278024E-01 0.91107515E+02</pdfrwt>
<pdfrwt beam="1">  1       -2 0.24221223E-02 0.91107515E+02</pdfrwt>
<totfact> 0.13416486E+05</totfact>
</mgrwt>
</event>
<event>
 5    1  0.2799021E+000  0.9152838E+02  0.7818608E-02  0.1299192E+00
          2   -1    0    0  501    0  0.00000000000E+00  0.00000000000E+00  0.21726418968E+02  0.21726419123E+02  0.26000000000E-02 0. -1.
         -2   -1    0    0    0  501 -0.00000000000E+00 -0.00000000000E+00 -0.96396983752E+02  0.96396983787E+02  0.26000000000E-02 0.  1.
         23    2    1    2    0    0  0.00000000000E+00  0.00000000000E+00 -0.74670564784E+02  0.11812340291E+03  0.91528383958E+02 0.  0.
        -11    1    3    3    0    0 -0.25930387301E+02  0.22793376359E+02 -0.76104667119E+02  0.83569392417E+02  0.51100000000E-03 0.  1.
         11    1    3    3    0    0  0.25930387301E+02 -0.22793376359E+02  0.14341023347E+01  0.34554010493E+02  0.51100000000E-03 0. -1.
<mgrwt>
<rscale>  0 0.91528384E+02</rscale>
<asrwt>0</asrwt>
<pdfrwt beam="1">  1        2 0.33425261E-02 0.91528384E+02</pdfrwt>
<pdfrwt beam="2">  1       -2 0.14830305E-01 0.91528384E+02</pdfrwt>
<totfact> 0.79910443E+04</totfact>
</mgrwt>
</event>
<event>
 5    1  0.2799021E+000  0.8913012E+02  0.7818608E-02  0.1304972E+00
          2   -1    0    0  501    0  0.00000000000E+00  0.00000000000E+00  0.56344851663E+02  0.56344851723E+02  0.26000000000E-02 0. -1.
         -2   -1    0    0    0  501 -0.00000000000E+00 -0.00000000000E+00 -0.35248025675E+02  0.35248025771E+02  0.26000000000E-02 0.  1.
         23    2    1    2    0    0  0.00000000000E+00  0.00000000000E+00  0.21096825988E+02  0.91592877494E+02  0.89130124766E+02 0.  0.
        -11    1    3    3    0    0  0.37929129877E+02 -0.12740457560E+02 -0.96179550058E+01  0.41151466691E+02  0.51100000000E-03 0.  1.
         11    1    3    3    0    0 -0.37929129877E+02  0.12740457560E+02  0.30714780994E+02  0.50441410803E+02  0.51100000000E-03 0. -1.
<mgrwt>
<rscale>  0 0.89130125E+02</rscale>
<asrwt>0</asrwt>
<pdfrwt beam="1">  1        2 0.86684386E-02 0.89130125E+02</pdfrwt>
<pdfrwt beam="2">  1       -2 0.54227733E-02 0.89130125E+02</pdfrwt>
<totfact> 0.11120870E+05</totfact>
</mgrwt>
</event>
<event>
 5    1  0.2799021E+000  0.9090800E+02  0.7818608E-02  0.1300668E+00
         -2   -1    0    0    0  501 -0.00000000000E+00  0.00000000000E+00  0.61363980359E+01  0.61363985867E+01  0.26000000000E-02 0.  1.
          2   -1    0    0  501    0  0.00000000000E+00 -0.00000000000E+00 -0.33669038846E+03  0.33669038847E+03  0.26000000000E-02 0. -1.
         23    2    1    2    0    0  0.00000000000E+00  0.00000000000E+00 -0.33055399043E+03  0.34282678706E+03  0.90908004809E+02 0.  0.
        -11    1    3    3    0    0 -0.45355859764E+02 -0.48096917907E+00 -0.15416589150E+03  0.16070005429E+03  0.51100000000E-03 0. -1.
         11    1    3    3    0    0  0.45355859764E+02  0.48096917907E+00 -0.17638809893E+03  0.18212673277E+03  0.51100000000E-03 0.  1.
<mgrwt>
<rscale>  0 0.90908005E+02</rscale>
<asrwt>0</asrwt>
<pdfrwt beam="2">  1        2 0.51798507E-01 0.90908005E+02</pdfrwt>
<pdfrwt beam="1">  1       -2 0.94406155E-03 0.90908005E+02</pdfrwt>
<totfact> 0.18898881E+05</totfact>
</mgrwt>
</event>
<event>
 5    1  0.2799021E+000  0.1020969E+03  0.7818608E-02  0.1275947E+00
         -2   -1    0    0    0  501 -0.00000000000E+00  0.00000000000E+00  0.13662828400E+02  0.13662828647E+02  0.26000000000E-02 0. -1.
          2   -1    0    0  501    0  0.00000000000E+00 -0.00000000000E+00 -0.19073252519E+03  0.19073252521E+03  0.26000000000E-02 0.  1.
         23    2    1    2    0    0  0.00000000000E+00  0.00000000000E+00 -0.17706969679E+03  0.20439535386E+03  0.10209693020E+03 0.  0.
        -11    1    3    3    0    0 -0.33119300494E+02 -0.69654308373E+01 -0.12025388338E+02  0.35916782385E+02  0.51100000000E-03 0. -1.
         11    1    3    3    0    0  0.33119300494E+02  0.69654308373E+01 -0.16504430845E+03  0.16847857147E+03  0.51100000000E-03 0.  1.
<mgrwt>
<rscale>  0 0.10209693E+03</rscale>
<asrwt>0</asrwt>
<pdfrwt beam="2">  1        2 0.29343463E-01 0.10209693E+03</pdfrwt>
<pdfrwt beam="1">  1       -2 0.21019738E-02 0.10209693E+03</pdfrwt>
<totfact> 0.11183735E+05</totfact>
</mgrwt>
</event>
<event>
 5    1  0.2799021E+000  0.9119071E+02  0.7818608E-02  0.1299994E+00
         -2   -1    0    0    0  501 -0.00000000000E+00  0.00000000000E+00  0.11362173046E+02  0.11362173344E+02  0.26000000000E-02 0. -1.
          2   -1    0    0  501    0  0.00000000000E+00 -0.00000000000E+00 -0.18296995175E+03  0.18296995176E+03  0.26000000000E-02 0.  1.
         23    2    1    2    0    0  0.00000000000E+00  0.00000000000E+00 -0.17160777870E+03  0.19433212511E+03  0.91190707524E+02 0.  0.
        -11    1    3    3    0    0  0.23770335435E+01 -0.39545880929E+02 -0.13390193699E+03  0.13963973546E+03  0.51100000000E-03 0. -1.
         11    1    3    3    0    0 -0.23770335435E+01  0.39545880929E+02 -0.37705841705E+02  0.54692389653E+02  0.51100000000E-03 0.  1.
<mgrwt>
<rscale>  0 0.91190708E+02</rscale>
<asrwt>0</asrwt>
<pdfrwt beam="2">  1        2 0.28149221E-01 0.91190708E+02</pdfrwt>
<pdfrwt beam="1">  1       -2 0.17480268E-02 0.91190708E+02</pdfrwt>
<totfact> 0.14975440E+05</totfact>
</mgrwt>
</event>
<event>
 5    1  0.2799021E+000  0.9087969E+02  0.7818608E-02  0.1300735E+00
          2   -1    0    0  501    0  0.00000000000E+00  0.00000000000E+00  0.89774735867E+02  0.89774735905E+02  0.26000000000E-02 0. -1.
         -2   -1    0    0    0  501 -0.00000000000E+00 -0.00000000000E+00 -0.22999559477E+02  0.22999559624E+02  0.26000000000E-02 0.  1.
         23    2    1    2    0    0  0.00000000000E+00  0.00000000000E+00  0.66775176390E+02  0.11277429553E+03  0.90879687226E+02 0.  0.
        -11    1    3    3    0    0 -0.17268845737E+02 -0.24212121100E+02 -0.92454985821E+01  0.31143523974E+02  0.51100000000E-03 0.  1.
         11    1    3    3    0    0  0.17268845737E+02  0.24212121100E+02  0.76020674972E+02  0.81630771555E+02  0.51100000000E-03 0. -1.
<mgrwt>
<rscale>  0 0.90879687E+02</rscale>
<asrwt>0</asrwt>
<pdfrwt beam="1">  1        2 0.13811498E-01 0.90879687E+02</pdfrwt>
<pdfrwt beam="2">  1       -2 0.35383938E-02 0.90879687E+02</pdfrwt>
<totfact> 0.11984699E+05</totfact>
</mgrwt>
</event>
<event>
 5    1  0.2799021E+000  0.9050592E+02  0.7818608E-02  0.1301631E+00
          2   -1    0    0  501    0  0.00000000000E+00  0.00000000000E+00  0.39158622856E+02  0.39158622943E+02  0.26000000000E-02 0. -1.
         -2   -1    0    0    0  501 -0.00000000000E+00 -0.00000000000E+00 -0.52295767699E+02  0.52295767764E+02  0.26000000000E-02 0.  1.
         23    2    1    2    0    0  0.00000000000E+00  0.00000000000E+00 -0.13137144843E+02  0.91454390706E+02  0.90505916960E+02 0.  0.
        -11    1    3    3    0    0 -0.43141338529E+02  0.10661327868E+02 -0.15201597163E+02  0.46967303079E+02  0.51100000000E-03 0.  1.
         11    1    3    3    0    0  0.43141338529E+02 -0.10661327868E+02  0.20644523200E+01  0.44487087628E+02  0.51100000000E-03 0. -1.
<mgrwt>
<rscale>  0 0.90505917E+02</rscale>
<asrwt>0</asrwt>
<pdfrwt beam="1">  1        2 0.60244035E-02 0.90505917E+02</pdfrwt>
<pdfrwt beam="2">  1       -2 0.80455027E-02 0.90505917E+02</pdfrwt>
<totfact> 0.96916731E+04</totfact>
</mgrwt>
</event>
<event>
 5    1  0.2799021E+000  0.8905837E+02  0.7818608E-02  0.1305148E+00
         -2   -1    0    0    0  501 -0.00000000000E+00  0.00000000000E+00  0.44350869811E+02  0.44350869887E+02  0.26000000000E-02 0. -1.
          2   -1    0    0  501    0  0.00000000000E+00 -0.00000000000E+00 -0.44708215923E+02  0.44708215999E+02  0.26000000000E-02 0.  1.
         23    2    1    2    0    0  0.00000000000E+00  0.00000000000E+00 -0.35734611213E+00  0.89059085886E+02  0.89058368964E+02 0.  0.
        -11    1    3    3    0    0  0.26695954756E+02 -0.12521360317E+02 -0.33546437913E+02  0.44663429799E+02  0.51100000000E-03 0.  1.
         11    1    3    3    0    0 -0.26695954756E+02  0.12521360317E+02  0.33189091801E+02  0.44395656086E+02  0.51100000000E-03 0. -1.
<mgrwt>
<rscale>  0 0.89058369E+02</rscale>
<asrwt>0</asrwt>
<pdfrwt beam="2">  1        2 0.68781871E-02 0.89058369E+02</pdfrwt>
<pdfrwt beam="1">  1       -2 0.68232107E-02 0.89058369E+02</pdfrwt>
<totfact> 0.10501542E+05</totfact>
</mgrwt>
</event>
<event>
 5    1  0.2799021E+000  0.9110253E+02  0.7818608E-02  0.1300204E+00
          2   -1    0    0  501    0  0.00000000000E+00  0.00000000000E+00  0.13046133990E+03  0.13046133993E+03  0.26000000000E-02 0. -1.
         -2   -1    0    0    0  501 -0.00000000000E+00 -0.00000000000E+00 -0.15904462672E+02  0.15904462884E+02  0.26000000000E-02 0.  1.
         23    2    1    2    0    0  0.00000000000E+00  0.00000000000E+00  0.11455687723E+03  0.14636580281E+03  0.91102525278E+02 0.  0.
        -11    1    3    3    0    0  0.11576200172E+01 -0.28183643591E+02 -0.18459626967E+00  0.28208011738E+02  0.51100000000E-03 0.  1.
         11    1    3    3    0    0 -0.11576200172E+01  0.28183643591E+02  0.11474147350E+03  0.11815779107E+03  0.51100000000E-03 0. -1.
<mgrwt>
<rscale>  0 0.91102525E+02</rscale>
<asrwt>0</asrwt>
<pdfrwt beam="1">  1        2 0.20070975E-01 0.91102525E+02</pdfrwt>
<pdfrwt beam="2">  1       -2 0.24468404E-02 0.91102525E+02</pdfrwt>
<totfact> 0.13373289E+05</totfact>
</mgrwt>
</event>
<event>
 5    1  0.2799021E+000  0.9565042E+02  0.7818608E-02  0.1289718E+00
          2   -1    0    0  501    0  0.00000000000E+00  0.00000000000E+00  0.45297953552E+02  0.45297953627E+02  0.26000000000E-02 0. -1.
         -2   -1    0    0    0  501 -0.00000000000E+00 -0.00000000000E+00 -0.50493470058E+02  0.50493470125E+02  0.26000000000E-02 0.  1.
         23    2    1    2    0    0  0.00000000000E+00  0.00000000000E+00 -0.51955165060E+01  0.95791423751E+02  0.95650423274E+02 0.  0.
        -11    1    3    3    0    0 -0.40357433344E+02 -0.13054670802E+02  0.19527885766E+02  0.46695665523E+02  0.51100000000E-03 0. -1.
         11    1    3    3    0    0  0.40357433344E+02  0.13054670802E+02 -0.24723402272E+02  0.49095758229E+02  0.51100000000E-03 0.  1.
<mgrwt>
<rscale>  0 0.95650423E+02</rscale>
<asrwt>0</asrwt>
<pdfrwt beam="1">  1        2 0.69689159E-02 0.95650423E+02</pdfrwt>
<pdfrwt beam="2">  1       -2 0.77682262E-02 0.95650423E+02</pdfrwt>
<totfact> 0.85785594E+04</totfact>
</mgrwt>
</event>
<event>
 5    1  0.2799021E+000  0.1058575E+03  0.7818608E-02  0.1268439E+00
          2   -1    0    0  501    0  0.00000000000E+00  0.00000000000E+00  0.53550493482E+02  0.53550493545E+02  0.26000000000E-02 0. -1.
         -2   -1    0    0    0  501 -0.00000000000E+00 -0.00000000000E+00 -0.52314226619E+02  0.52314226683E+02  0.26000000000E-02 0.  1.
         23    2    1    2    0    0  0.00000000000E+00  0.00000000000E+00  0.12362668634E+01  0.10586472023E+03  0.10585750155E+03 0.  0.
        -11    1    3    3    0    0 -0.26438660567E+02 -0.10142830001E+02 -0.44101499907E+02  0.52410133251E+02  0.51100000000E-03 0.  1.
         11    1    3    3    0    0  0.26438660567E+02  0.10142830001E+02  0.45337766771E+02  0.53454586978E+02  0.51100000000E-03 0. -1.
<mgrwt>
<rscale>  0 0.10585750E+03</rscale>
<asrwt>0</asrwt>
<pdfrwt beam="1">  1        2 0.82385375E-02 0.10585750E+03</pdfrwt>
<pdfrwt beam="2">  1       -2 0.80483425E-02 0.10585750E+03</pdfrwt>
<totfact> 0.66911648E+04</totfact>
</mgrwt>
</event>
<event>
 5    1  0.2799021E+000  0.9754775E+02  0.7818608E-02  0.1285539E+00
         -2   -1    0    0    0  501 -0.00000000000E+00  0.00000000000E+00  0.34421171046E+02  0.34421171144E+02  0.26000000000E-02 0. -1.
          2   -1    0    0  501    0  0.00000000000E+00 -0.00000000000E+00 -0.69111264194E+02  0.69111264243E+02  0.26000000000E-02 0.  1.
         23    2    1    2    0    0  0.00000000000E+00  0.00000000000E+00 -0.34690093148E+02  0.10353243539E+03  0.97547745308E+02 0.  0.
        -11    1    3    3    0    0 -0.16790602458E+02  0.43966917661E+02 -0.37582366541E+01  0.47213753532E+02  0.51100000000E-03 0. -1.
         11    1    3    3    0    0  0.16790602458E+02 -0.43966917661E+02 -0.30931856494E+02  0.56318681856E+02  0.51100000000E-03 0.  1.
<mgrwt>
<rscale>  0 0.97547745E+02</rscale>
<asrwt>0</asrwt>
<pdfrwt beam="2">  1        2 0.10632502E-01 0.97547745E+02</pdfrwt>
<pdfrwt beam="1">  1       -2 0.52955648E-02 0.97547745E+02</pdfrwt>
<totfact> 0.91125156E+04</totfact>
</mgrwt>
</event>
<event>
 5    1  0.2799021E+000  0.9135358E+02  0.7818608E-02  0.1299607E+00
         -2   -1    0    0    0  501 -0.00000000000E+00  0.00000000000E+00  0.77137734309E+02  0.77137734353E+02  0.26000000000E-02 0.  1.
          2   -1    0    0  501    0  0.00000000000E+00 -0.00000000000E+00 -0.27047320384E+02  0.27047320509E+02  0.26000000000E-02 0. -1.
         23    2    1    2    0    0  0.00000000000E+00  0.00000000000E+00  0.50090413925E+02  0.10418505486E+03  0.91353577321E+02 0.  0.
        -11    1    3    3    0    0 -0.23121028874E+02  0.31628629648E+02  0.51825780626E+02  0.64968174727E+02  0.51100000000E-03 0.  1.
         11    1    3    3    0    0  0.23121028874E+02 -0.31628629648E+02 -0.17353667009E+01  0.39216880134E+02  0.51100000000E-03 0. -1.
<mgrwt>
<rscale>  0 0.91353577E+02</rscale>
<asrwt>0</asrwt>
<pdfrwt beam="2">  1        2 0.41611262E-02 0.91353577E+02</pdfrwt>
<pdfrwt beam="1">  1       -2 0.11867344E-01 0.91353577E+02</pdfrwt>
<totfact> 0.85527585E+04</totfact>
</mgrwt>
</event>
<event>
 5    1  0.2799021E+000  0.9207239E+02  0.7818608E-02  0.1297909E+00
          2   -1    0    0  501    0  0.00000000000E+00  0.00000000000E+00  0.62875129984E+02  0.62875130038E+02  0.26000000000E-02 0. -1.
         -2   -1    0    0    0  501 -0.00000000000E+00 -0.00000000000E+00 -0.33706989905E+02  0.33706990005E+02  0.26000000000E-02 0.  1.
         23    2    1    2    0    0  0.00000000000E+00  0.00000000000E+00  0.29168140079E+02  0.96582120043E+02  0.92072392802E+02 0.  0.
        -11    1    3    3    0    0 -0.32628993309E+02 -0.30575385280E+02  0.31014018271E+01  0.44823253819E+02  0.51100000000E-03 0.  1.
         11    1    3    3    0    0  0.32628993309E+02  0.30575385280E+02  0.26066738252E+02  0.51758866223E+02  0.51100000000E-03 0. -1.
<mgrwt>
<rscale>  0 0.92072393E+02</rscale>
<asrwt>0</asrwt>
<pdfrwt beam="1">  1        2 0.96730970E-02 0.92072393E+02</pdfrwt>
<pdfrwt beam="2">  1       -2 0.51856907E-02 0.92072393E+02</pdfrwt>
<totfact> 0.10449694E+05</totfact>
</mgrwt>
</event>
<event>
 5    1  0.2799021E+000  0.9179368E+02  0.7818608E-02  0.1298565E+00
         -2   -1    0    0    0  501 -0.00000000000E+00  0.00000000000E+00  0.17606639725E+02  0.17606639917E+02  0.26000000000E-02 0. -1.
          2   -1    0    0  501    0  0.00000000000E+00 -0.00000000000E+00 -0.11964350495E+03  0.11964350497E+03  0.26000000000E-02 0.  1.
         23    2    1    2    0    0  0.00000000000E+00  0.00000000000E+00 -0.10203686522E+03  0.13725014489E+03  0.91793683925E+02 0.  0.
        -11    1    3    3    0    0  0.25678328898E+02  0.10598697366E+02  0.36088910042E+01  0.28013087216E+02  0.51100000000E-03 0. -1.
         11    1    3    3    0    0 -0.25678328898E+02 -0.10598697366E+02 -0.10564575623E+03  0.10923705768E+03  0.51100000000E-03 0.  1.
<mgrwt>
<rscale>  0 0.91793684E+02</rscale>
<asrwt>0</asrwt>
<pdfrwt beam="2">  1        2 0.18406693E-01 0.91793684E+02</pdfrwt>
<pdfrwt beam="1">  1       -2 0.27087139E-02 0.91793684E+02</pdfrwt>
<totfact> 0.12736735E+05</totfact>
</mgrwt>
</event>
<event>
 5    1  0.2799021E+000  0.9219654E+02  0.7818608E-02  0.1297618E+00
         -2   -1    0    0    0  501 -0.00000000000E+00  0.00000000000E+00  0.29376119611E+03  0.29376119612E+03  0.26000000000E-02 0.  1.
          2   -1    0    0  501    0  0.00000000000E+00 -0.00000000000E+00 -0.72339383080E+01  0.72339387752E+01  0.26000000000E-02 0. -1.
         23    2    1    2    0    0  0.00000000000E+00  0.00000000000E+00  0.28652725780E+03  0.30099513490E+03  0.92196538807E+02 0.  0.
        -11    1    3    3    0    0  0.37733633061E+02 -0.12825200081E+02  0.67628094980E+02  0.78497592651E+02  0.51100000000E-03 0. -1.
         11    1    3    3    0    0 -0.37733633061E+02  0.12825200081E+02  0.21889916282E+03  0.22249754225E+03  0.51100000000E-03 0.  1.
<mgrwt>
<rscale>  0 0.92196539E+02</rscale>
<asrwt>0</asrwt>
<pdfrwt beam="2">  1        2 0.11129135E-02 0.92196539E+02</pdfrwt>
<pdfrwt beam="1">  1       -2 0.45194034E-01 0.92196539E+02</pdfrwt>
<totfact> 0.50145515E+04</totfact>
</mgrwt>
</event>
<event>
 5    1  0.2799021E+000  0.9029911E+02  0.7818608E-02  0.1302129E+00
         -2   -1    0    0    0  501 -0.00000000000E+00  0.00000000000E+00  0.24951066720E+03  0.24951066721E+03  0.26000000000E-02 0.  1.
          2   -1    0    0  501    0  0.00000000000E+00 -0.00000000000E+00 -0.81699203057E+01  0.81699207194E+01  0.26000000000E-02 0. -1.
         23    2    1    2    0    0  0.00000000000E+00  0.00000000000E+00  0.24134074689E+03  0.25768058793E+03  0.90299110105E+02 0.  0.
        -11    1    3    3    0    0 -0.22403618434E+02 -0.37741446004E+02  0.15088972909E+03  0.15714340334E+03  0.51100000000E-03 0.  1.
         11    1    3    3    0    0  0.22403618434E+02  0.37741446004E+02  0.90451017798E+02  0.10053718459E+03  0.51100000000E-03 0. -1.
<mgrwt>
<rscale>  0 0.90299110E+02</rscale>
<asrwt>0</asrwt>
<pdfrwt beam="2">  1        2 0.12569109E-02 0.90299110E+02</pdfrwt>
<pdfrwt beam="1">  1       -2 0.38386254E-01 0.90299110E+02</pdfrwt>
<totfact> 0.57644338E+04</totfact>
</mgrwt>
</event>
<event>
 5    1  0.2799021E+000  0.9350415E+02  0.7818608E-02  0.1294581E+00
          2   -1    0    0  501    0  0.00000000000E+00  0.00000000000E+00  0.75610360953E+02  0.75610360997E+02  0.26000000000E-02 0. -1.
         -2   -1    0    0    0  501 -0.00000000000E+00 -0.00000000000E+00 -0.28908159616E+02  0.28908159733E+02  0.26000000000E-02 0.  1.
         23    2    1    2    0    0  0.00000000000E+00  0.00000000000E+00  0.46702201337E+02  0.10451852073E+03  0.93504147320E+02 0.  0.
        -11    1    3    3    0    0  0.35234983175E+01 -0.27451805333E+02 -0.18766803192E+02  0.33439640529E+02  0.51100000000E-03 0.  1.
         11    1    3    3    0    0 -0.35234983175E+01  0.27451805333E+02  0.65469004528E+02  0.71078880201E+02  0.51100000000E-03 0. -1.
<mgrwt>
<rscale>  0 0.93504147E+02</rscale>
<asrwt>0</asrwt>
<pdfrwt beam="1">  1        2 0.11632363E-01 0.93504147E+02</pdfrwt>
<pdfrwt beam="2">  1       -2 0.44474092E-02 0.93504147E+02</pdfrwt>
<totfact> 0.10534007E+05</totfact>
</mgrwt>
</event>
<event>
 5    1  0.2799021E+000  0.7081483E+02  0.7818608E-02  0.1357344E+00
          2   -1    0    0  501    0  0.00000000000E+00  0.00000000000E+00  0.40824148353E+02  0.40824148436E+02  0.26000000000E-02 0.  1.
         -2   -1    0    0    0  501 -0.00000000000E+00 -0.00000000000E+00 -0.30709401987E+02  0.30709402097E+02  0.26000000000E-02 0. -1.
         23    2    1    2    0    0  0.00000000000E+00  0.00000000000E+00  0.10114746366E+02  0.71533550533E+02  0.70814834306E+02 0.  0.
        -11    1    3    3    0    0 -0.26765936152E+02 -0.62104444144E+01  0.27615618907E+02  0.38956480408E+02  0.51100000000E-03 0.  1.
         11    1    3    3    0    0  0.26765936152E+02  0.62104444144E+01 -0.17500872541E+02  0.32577070124E+02  0.51100000000E-03 0. -1.
<mgrwt>
<rscale>  0 0.70814834E+02</rscale>
<asrwt>0</asrwt>
<pdfrwt beam="1">  1        2 0.62806382E-02 0.70814834E+02</pdfrwt>
<pdfrwt beam="2">  1       -2 0.47245234E-02 0.70814834E+02</pdfrwt>
<totfact> 0.19544029E+05</totfact>
</mgrwt>
</event>
<event>
 5    1  0.2799021E+000  0.9431843E+02  0.7818608E-02  0.1292719E+00
          2   -1    0    0  501    0  0.00000000000E+00  0.00000000000E+00  0.19530795371E+02  0.19530795544E+02  0.26000000000E-02 0.  1.
         -2   -1    0    0    0  501 -0.00000000000E+00 -0.00000000000E+00 -0.11387101431E+03  0.11387101434E+03  0.26000000000E-02 0. -1.
         23    2    1    2    0    0  0.00000000000E+00  0.00000000000E+00 -0.94340218936E+02  0.13340180988E+03  0.94318428584E+02 0.  0.
        -11    1    3    3    0    0 -0.13769138785E+02 -0.25341254334E+02 -0.99944057970E+02  0.10402203169E+03  0.51100000000E-03 0. -1.
         11    1    3    3    0    0  0.13769138785E+02  0.25341254334E+02  0.56038390340E+01  0.29379778186E+02  0.51100000000E-03 0.  1.
<mgrwt>
<rscale>  0 0.94318429E+02</rscale>
<asrwt>0</asrwt>
<pdfrwt beam="1">  1        2 0.30047378E-02 0.94318429E+02</pdfrwt>
<pdfrwt beam="2">  1       -2 0.17518617E-01 0.94318429E+02</pdfrwt>
<totfact> 0.70449243E+04</totfact>
</mgrwt>
</event>
<event>
 5    1  0.2799021E+000  0.9060073E+02  0.7818608E-02  0.1301403E+00
          2   -1    0    0  501    0  0.00000000000E+00  0.00000000000E+00  0.27199471816E+02  0.27199471941E+02  0.26000000000E-02 0. -1.
         -2   -1    0    0    0  501 -0.00000000000E+00 -0.00000000000E+00 -0.75447165801E+02  0.75447165846E+02  0.26000000000E-02 0.  1.
         23    2    1    2    0    0  0.00000000000E+00  0.00000000000E+00 -0.48247693985E+02  0.10264663779E+03  0.90600729986E+02 0.  0.
        -11    1    3    3    0    0  0.64152377614E+01 -0.15195967509E+02 -0.71923987893E+02  0.73791142685E+02  0.51100000000E-03 0.  1.
         11    1    3    3    0    0 -0.64152377614E+01  0.15195967509E+02  0.23676293908E+02  0.28855495101E+02  0.51100000000E-03 0. -1.
<mgrwt>
<rscale>  0 0.90600730E+02</rscale>
<asrwt>0</asrwt>
<pdfrwt beam="1">  1        2 0.41845342E-02 0.90600730E+02</pdfrwt>
<pdfrwt beam="2">  1       -2 0.11607256E-01 0.90600730E+02</pdfrwt>
<totfact> 0.87807268E+04</totfact>
</mgrwt>
</event>
<event>
 4    1  0.2799021E+000  0.4606579E+02  0.7818608E-02  0.1467796E+00
         -2   -1    0    0    0  501 -0.00000000000E+00  0.00000000000E+00  0.46706966606E+02  0.46706966678E+02  0.26000000000E-02 0. -1.
          2   -1    0    0  501    0  0.00000000000E+00 -0.00000000000E+00 -0.11358354625E+02  0.11358354923E+02  0.26000000000E-02 0.  1.
        -11    1    1    2    0    0 -0.15017996852E+02 -0.55121126482E+00  0.39675857511E+02  0.42426615854E+02  0.51100000000E-03 0. -1.
         11    1    1    2    0    0  0.15017996852E+02  0.55121126482E+00 -0.43272455303E+01  0.15638705748E+02  0.51100000000E-03 0.  1.
<mgrwt>
<rscale>  0 0.46065792E+02</rscale>
<asrwt>0</asrwt>
<pdfrwt beam="2">  1        2 0.17474392E-02 0.46065792E+02</pdfrwt>
<pdfrwt beam="1">  1       -2 0.71856873E-02 0.46065792E+02</pdfrwt>
<totfact> 0.50175619E+05</totfact>
</mgrwt>
</event>
<event>
 5    1  0.2799021E+000  0.9355462E+02  0.7818608E-02  0.1294465E+00
          2   -1    0    0  501    0  0.00000000000E+00  0.00000000000E+00  0.49449980422E+02  0.49449980491E+02  0.26000000000E-02 0.  1.
         -2   -1    0    0    0  501 -0.00000000000E+00 -0.00000000000E+00 -0.44249092828E+02  0.44249092904E+02  0.26000000000E-02 0. -1.
         23    2    1    2    0    0  0.00000000000E+00  0.00000000000E+00  0.52008875943E+01  0.93699073395E+02  0.93554621069E+02 0.  0.
        -11    1    3    3    0    0 -0.96093767938E+01  0.38397232969E+02  0.27567415306E+02  0.48235360566E+02  0.51100000000E-03 0.  1.
         11    1    3    3    0    0  0.96093767938E+01 -0.38397232969E+02 -0.22366527712E+02  0.45463712829E+02  0.51100000000E-03 0. -1.
<mgrwt>
<rscale>  0 0.93554621E+02</rscale>
<asrwt>0</asrwt>
<pdfrwt beam="1">  1        2 0.76076893E-02 0.93554621E+02</pdfrwt>
<pdfrwt beam="2">  1       -2 0.68075527E-02 0.93554621E+02</pdfrwt>
<totfact> 0.93621080E+04</totfact>
</mgrwt>
</event>
<event>
 5    1  0.2799021E+000  0.9161095E+02  0.7818608E-02  0.1298997E+00
          2   -1    0    0  501    0  0.00000000000E+00  0.00000000000E+00  0.47809429358E+02  0.47809429428E+02  0.26000000000E-02 0. -1.
         -2   -1    0    0    0  501 -0.00000000000E+00 -0.00000000000E+00 -0.43885513092E+02  0.43885513169E+02  0.26000000000E-02 0.  1.
         23    2    1    2    0    0  0.00000000000E+00  0.00000000000E+00  0.39239162656E+01  0.91694942598E+02  0.91610945739E+02 0.  0.
        -11    1    3    3    0    0 -0.15397601818E+02 -0.41226947241E+02  0.14677701121E+02  0.46391618111E+02  0.51100000000E-03 0. -1.
         11    1    3    3    0    0  0.15397601818E+02  0.41226947241E+02 -0.10753784855E+02  0.45303324486E+02  0.51100000000E-03 0.  1.
<mgrwt>
<rscale>  0 0.91610946E+02</rscale>
<asrwt>0</asrwt>
<pdfrwt beam="1">  1        2 0.73552969E-02 0.91610946E+02</pdfrwt>
<pdfrwt beam="2">  1       -2 0.67516174E-02 0.91610946E+02</pdfrwt>
<totfact> 0.98552254E+04</totfact>
</mgrwt>
</event>
<event>
 5    1  0.2799021E+000  0.8949289E+02  0.7818608E-02  0.1304084E+00
          2   -1    0    0  501    0  0.00000000000E+00  0.00000000000E+00  0.26050963616E+03  0.26050963618E+03  0.26000000000E-02 0. -1.
         -2   -1    0    0    0  501 -0.00000000000E+00 -0.00000000000E+00 -0.76858738719E+01  0.76858743117E+01  0.26000000000E-02 0.  1.
         23    2    1    2    0    0  0.00000000000E+00  0.00000000000E+00  0.25282376229E+03  0.26819551049E+03  0.89492888358E+02 0.  0.
        -11    1    3    3    0    0 -0.23765478312E+02  0.32078797771E+02  0.65849314576E+02  0.77006359842E+02  0.51100000000E-03 0.  1.
         11    1    3    3    0    0  0.23765478312E+02 -0.32078797771E+02  0.18697444771E+03  0.19118915065E+03  0.51100000000E-03 0. -1.
<mgrwt>
<rscale>  0 0.89492888E+02</rscale>
<asrwt>0</asrwt>
<pdfrwt beam="1">  1        2 0.40078410E-01 0.89492888E+02</pdfrwt>
<pdfrwt beam="2">  1       -2 0.11824420E-02 0.89492888E+02</pdfrwt>
<totfact> 0.17914916E+05</totfact>
</mgrwt>
</event>
<event>
 5    1  0.2799021E+000  0.9303656E+02  0.7818608E-02  0.1295660E+00
         -2   -1    0    0    0  501 -0.00000000000E+00  0.00000000000E+00  0.12862749329E+02  0.12862749592E+02  0.26000000000E-02 0.  1.
          2   -1    0    0  501    0  0.00000000000E+00 -0.00000000000E+00 -0.16823388093E+03  0.16823388095E+03  0.26000000000E-02 0. -1.
         23    2    1    2    0    0  0.00000000000E+00  0.00000000000E+00 -0.15537113160E+03  0.18109663054E+03  0.93036557644E+02 0.  0.
        -11    1    3    3    0    0 -0.39150497858E+02  0.21295651204E+02 -0.10363219375E+03  0.11280912119E+03  0.51100000000E-03 0. -1.
         11    1    3    3    0    0  0.39150497858E+02 -0.21295651204E+02 -0.51738937849E+02  0.68287509346E+02  0.51100000000E-03 0.  1.
<mgrwt>
<rscale>  0 0.93036558E+02</rscale>
<asrwt>0</asrwt>
<pdfrwt beam="2">  1        2 0.25882134E-01 0.93036558E+02</pdfrwt>
<pdfrwt beam="1">  1       -2 0.19788847E-02 0.93036558E+02</pdfrwt>
<totfact> 0.13770123E+05</totfact>
</mgrwt>
</event>
<event>
 5    1  0.2799021E+000  0.9111854E+02  0.7818608E-02  0.1300165E+00
          2   -1    0    0  501    0  0.00000000000E+00  0.00000000000E+00  0.17637978703E+03  0.17637978705E+03  0.26000000000E-02 0. -1.
         -2   -1    0    0    0  501 -0.00000000000E+00 -0.00000000000E+00 -0.11768053889E+02  0.11768054176E+02  0.26000000000E-02 0.  1.
         23    2    1    2    0    0  0.00000000000E+00  0.00000000000E+00  0.16461173314E+03  0.18814784122E+03  0.91118535272E+02 0.  0.
        -11    1    3    3    0    0  0.32826832314E+02 -0.16398286306E+02  0.13806276574E+03  0.14285598341E+03  0.51100000000E-03 0. -1.
         11    1    3    3    0    0 -0.32826832314E+02  0.16398286306E+02  0.26548967400E+02  0.45291857809E+02  0.51100000000E-03 0.  1.
<mgrwt>
<rscale>  0 0.91118535E+02</rscale>
<asrwt>0</asrwt>
<pdfrwt beam="1">  1        2 0.27135351E-01 0.91118535E+02</pdfrwt>
<pdfrwt beam="2">  1       -2 0.18104699E-02 0.91118535E+02</pdfrwt>
<totfact> 0.14813428E+05</totfact>
</mgrwt>
</event>
<event>
 5    1  0.2799021E+000  0.9457787E+02  0.7818608E-02  0.1292130E+00
         -2   -1    0    0    0  501 -0.00000000000E+00  0.00000000000E+00  0.26501968501E+02  0.26501968628E+02  0.26000000000E-02 0.  1.
          2   -1    0    0  501    0  0.00000000000E+00 -0.00000000000E+00 -0.84380268531E+02  0.84380268571E+02  0.26000000000E-02 0. -1.
         23    2    1    2    0    0  0.00000000000E+00  0.00000000000E+00 -0.57878300031E+02  0.11088223720E+03  0.94577866924E+02 0.  0.
        -11    1    3    3    0    0 -0.50324538192E+01 -0.12663812614E+02  0.24150170724E+02  0.27729559817E+02  0.51100000000E-03 0.  1.
         11    1    3    3    0    0  0.50324538192E+01  0.12663812614E+02 -0.82028470755E+02  0.83152677383E+02  0.51100000000E-03 0. -1.
<mgrwt>
<rscale>  0 0.94577867E+02</rscale>
<asrwt>0</asrwt>
<pdfrwt beam="2">  1        2 0.12981580E-01 0.94577867E+02</pdfrwt>
<pdfrwt beam="1">  1       -2 0.40772260E-02 0.94577867E+02</pdfrwt>
<totfact> 0.10533180E+05</totfact>
</mgrwt>
</event>
<event>
 5    1  0.2799021E+000  0.8835579E+02  0.7818608E-02  0.1306883E+00
         -2   -1    0    0    0  501 -0.00000000000E+00  0.00000000000E+00  0.27083567064E+02  0.27083567189E+02  0.26000000000E-02 0.  1.
          2   -1    0    0  501    0  0.00000000000E+00 -0.00000000000E+00 -0.72061652657E+02  0.72061652704E+02  0.26000000000E-02 0. -1.
         23    2    1    2    0    0  0.00000000000E+00  0.00000000000E+00 -0.44978085593E+02  0.99145219893E+02  0.88355794627E+02 0.  0.
        -11    1    3    3    0    0  0.43672342692E+02 -0.10823447391E+01 -0.15110208744E+02  0.46225138128E+02  0.51100000000E-03 0. -1.
         11    1    3    3    0    0 -0.43672342692E+02  0.10823447391E+01 -0.29867876848E+02  0.52920081765E+02  0.51100000000E-03 0.  1.
<mgrwt>
<rscale>  0 0.88355795E+02</rscale>
<asrwt>0</asrwt>
<pdfrwt beam="2">  1        2 0.11086408E-01 0.88355795E+02</pdfrwt>
<pdfrwt beam="1">  1       -2 0.41667027E-02 0.88355795E+02</pdfrwt>
<totfact> 0.12171247E+05</totfact>
</mgrwt>
</event>
<event>
 5    1  0.2799021E+000  0.8916165E+02  0.7818608E-02  0.1304895E+00
         -2   -1    0    0    0  501 -0.00000000000E+00  0.00000000000E+00  0.10836627967E+03  0.10836627970E+03  0.26000000000E-02 0.  1.
          2   -1    0    0  501    0  0.00000000000E+00 -0.00000000000E+00 -0.18340115496E+02  0.18340115681E+02  0.26000000000E-02 0. -1.
         23    2    1    2    0    0  0.00000000000E+00  0.00000000000E+00  0.90026164171E+02  0.12670639538E+03  0.89161653162E+02 0.  0.
        -11    1    3    3    0    0  0.19635106485E+02  0.31427383412E+02  0.97932941901E+01  0.38329185305E+02  0.51100000000E-03 0. -1.
         11    1    3    3    0    0 -0.19635106485E+02 -0.31427383412E+02  0.80232869981E+02  0.88377210074E+02  0.51100000000E-03 0.  1.
<mgrwt>
<rscale>  0 0.89161653E+02</rscale>
<asrwt>0</asrwt>
<pdfrwt beam="2">  1        2 0.28215563E-02 0.89161653E+02</pdfrwt>
<pdfrwt beam="1">  1       -2 0.16671735E-01 0.89161653E+02</pdfrwt>
<totfact> 0.82353422E+04</totfact>
</mgrwt>
</event>
<event>
 5    1  0.2799021E+000  0.9875418E+02  0.7818608E-02  0.1282938E+00
          2   -1    0    0  501    0  0.00000000000E+00  0.00000000000E+00  0.17735556640E+03  0.17735556642E+03  0.26000000000E-02 0. -1.
         -2   -1    0    0    0  501 -0.00000000000E+00 -0.00000000000E+00 -0.13746942419E+02  0.13746942665E+02  0.26000000000E-02 0.  1.
         23    2    1    2    0    0  0.00000000000E+00  0.00000000000E+00  0.16360862398E+03  0.19110250909E+03  0.98754175290E+02 0.  0.
        -11    1    3    3    0    0 -0.47993992491E+02 -0.10666472341E+02  0.90651033738E+02  0.10312519995E+03  0.51100000000E-03 0.  1.
         11    1    3    3    0    0  0.47993992491E+02  0.10666472341E+02  0.72957590245E+02  0.87977309132E+02  0.51100000000E-03 0. -1.
<mgrwt>
<rscale>  0 0.98754175E+02</rscale>
<asrwt>0</asrwt>
<pdfrwt beam="1">  1        2 0.27285471E-01 0.98754175E+02</pdfrwt>
<pdfrwt beam="2">  1       -2 0.21149143E-02 0.98754175E+02</pdfrwt>
<totfact> 0.11928442E+05</totfact>
</mgrwt>
</event>
<event>
 5    1  0.2799021E+000  0.9162905E+02  0.7818608E-02  0.1298954E+00
          2   -1    0    0  501    0  0.00000000000E+00  0.00000000000E+00  0.36434695984E+02  0.36434696077E+02  0.26000000000E-02 0. -1.
         -2   -1    0    0    0  501 -0.00000000000E+00 -0.00000000000E+00 -0.57609117189E+02  0.57609117247E+02  0.26000000000E-02 0.  1.
         23    2    1    2    0    0  0.00000000000E+00  0.00000000000E+00 -0.21174421205E+02  0.94043813324E+02  0.91629049494E+02 0.  0.
        -11    1    3    3    0    0 -0.15243536427E+01  0.21155219788E+02 -0.52266569701E+02  0.56406216739E+02  0.51100000000E-03 0.  1.
         11    1    3    3    0    0  0.15243536427E+01 -0.21155219788E+02  0.31092148496E+02  0.37637596584E+02  0.51100000000E-03 0. -1.
<mgrwt>
<rscale>  0 0.91629049E+02</rscale>
<asrwt>0</asrwt>
<pdfrwt beam="1">  1        2 0.56053379E-02 0.91629049E+02</pdfrwt>
<pdfrwt beam="2">  1       -2 0.88629411E-02 0.91629049E+02</pdfrwt>
<totfact> 0.91770991E+04</totfact>
</mgrwt>
</event>
<event>
 5    1  0.2799021E+000  0.9791542E+02  0.7818608E-02  0.1284742E+00
         -2   -1    0    0    0  501 -0.00000000000E+00  0.00000000000E+00  0.12720855675E+03  0.12720855678E+03  0.26000000000E-02 0.  1.
          2   -1    0    0  501    0  0.00000000000E+00 -0.00000000000E+00 -0.18841951838E+02  0.18841952018E+02  0.26000000000E-02 0. -1.
         23    2    1    2    0    0  0.00000000000E+00  0.00000000000E+00  0.10836660492E+03  0.14605050880E+03  0.97915422990E+02 0.  0.
        -11    1    3    3    0    0  0.89026785142E+01  0.40001041406E+02  0.94138006780E+02  0.10267085915E+03  0.51100000000E-03 0.  1.
         11    1    3    3    0    0 -0.89026785142E+01 -0.40001041406E+02  0.14228598135E+02  0.43379649646E+02  0.51100000000E-03 0. -1.
<mgrwt>
<rscale>  0 0.97915423E+02</rscale>
<asrwt>0</asrwt>
<pdfrwt beam="2">  1        2 0.28987618E-02 0.97915423E+02</pdfrwt>
<pdfrwt beam="1">  1       -2 0.19570548E-01 0.97915423E+02</pdfrwt>
<totfact> 0.61829364E+04</totfact>
</mgrwt>
</event>
<event>
 5    1  0.2799021E+000  0.8314188E+02  0.7818608E-02  0.1320364E+00
         -2   -1    0    0    0  501 -0.00000000000E+00  0.00000000000E+00  0.12664222054E+03  0.12664222056E+03  0.26000000000E-02 0.  1.
          2   -1    0    0  501    0  0.00000000000E+00 -0.00000000000E+00 -0.13645868692E+02  0.13645868939E+02  0.26000000000E-02 0. -1.
         23    2    1    2    0    0  0.00000000000E+00  0.00000000000E+00  0.11299635184E+03  0.14028808950E+03  0.83141881901E+02 0.  0.
        -11    1    3    3    0    0 -0.13940933414E+02 -0.39111700043E+02  0.53094766539E+02  0.67402736879E+02  0.51100000000E-03 0.  1.
         11    1    3    3    0    0  0.13940933414E+02  0.39111700043E+02  0.59901585305E+02  0.72885352623E+02  0.51100000000E-03 0. -1.
<mgrwt>
<rscale>  0 0.83141882E+02</rscale>
<asrwt>0</asrwt>
<pdfrwt beam="2">  1        2 0.20993645E-02 0.83141882E+02</pdfrwt>
<pdfrwt beam="1">  1       -2 0.19483418E-01 0.83141882E+02</pdfrwt>
<totfact> 0.93428182E+04</totfact>
</mgrwt>
</event>
<event>
 5    1  0.2799021E+000  0.9858625E+02  0.7818608E-02  0.1283297E+00
         -2   -1    0    0    0  501 -0.00000000000E+00  0.00000000000E+00  0.79912972529E+01  0.79912976758E+01  0.26000000000E-02 0. -1.
          2   -1    0    0  501    0  0.00000000000E+00 -0.00000000000E+00 -0.30405725945E+03  0.30405725946E+03  0.26000000000E-02 0.  1.
         23    2    1    2    0    0  0.00000000000E+00  0.00000000000E+00 -0.29606596220E+03  0.31204855714E+03  0.98586246706E+02 0.  0.
        -11    1    3    3    0    0  0.48972985297E+02  0.42773169909E+01 -0.15951684160E+03  0.16691995532E+03  0.51100000000E-03 0. -1.
         11    1    3    3    0    0 -0.48972985297E+02 -0.42773169909E+01 -0.13654912060E+03  0.14512860182E+03  0.51100000000E-03 0.  1.
<mgrwt>
<rscale>  0 0.98586247E+02</rscale>
<asrwt>0</asrwt>
<pdfrwt beam="2">  1        2 0.46778031E-01 0.98586247E+02</pdfrwt>
<pdfrwt beam="1">  1       -2 0.12294306E-02 0.98586247E+02</pdfrwt>
<totfact> 0.14644506E+05</totfact>
</mgrwt>
</event>
<event>
 5    1  0.2799021E+000  0.9083190E+02  0.7818608E-02  0.1300850E+00
          2   -1    0    0  501    0  0.00000000000E+00  0.00000000000E+00  0.28180823072E+02  0.28180823191E+02  0.26000000000E-02 0. -1.
         -2   -1    0    0    0  501 -0.00000000000E+00 -0.00000000000E+00 -0.73191912366E+02  0.73191912412E+02  0.26000000000E-02 0.  1.
         23    2    1    2    0    0  0.00000000000E+00  0.00000000000E+00 -0.45011089295E+02  0.10137273560E+03  0.90831896184E+02 0.  0.
        -11    1    3    3    0    0  0.42103642509E+02  0.14206227137E+02 -0.32979445724E+02  0.55336944644E+02  0.51100000000E-03 0. -1.
         11    1    3    3    0    0 -0.42103642509E+02 -0.14206227137E+02 -0.12031643571E+02  0.46035790960E+02  0.51100000000E-03 0.  1.
<mgrwt>
<rscale>  0 0.90831896E+02</rscale>
<asrwt>0</asrwt>
<pdfrwt beam="1">  1        2 0.43355113E-02 0.90831896E+02</pdfrwt>
<pdfrwt beam="2">  1       -2 0.11260294E-01 0.90831896E+02</pdfrwt>
<totfact> 0.87980759E+04</totfact>
</mgrwt>
</event>
<event>
 5    1  0.2799021E+000  0.8858663E+02  0.7818608E-02  0.1306311E+00
          2   -1    0    0  501    0  0.00000000000E+00  0.00000000000E+00  0.88491538912E+02  0.88491538951E+02  0.26000000000E-02 0.  1.
         -2   -1    0    0    0  501 -0.00000000000E+00 -0.00000000000E+00 -0.22170456475E+02  0.22170456628E+02  0.26000000000E-02 0. -1.
         23    2    1    2    0    0  0.00000000000E+00  0.00000000000E+00  0.66321082437E+02  0.11066199558E+03  0.88586631552E+02 0.  0.
        -11    1    3    3    0    0  0.88799004185E+01 -0.19940895169E+02 -0.14984646050E+02  0.26477000380E+02  0.51100000000E-03 0. -1.
         11    1    3    3    0    0 -0.88799004185E+01  0.19940895169E+02  0.81305728487E+02  0.84184995199E+02  0.51100000000E-03 0.  1.
<mgrwt>
<rscale>  0 0.88586632E+02</rscale>
<asrwt>0</asrwt>
<pdfrwt beam="1">  1        2 0.13614083E-01 0.88586632E+02</pdfrwt>
<pdfrwt beam="2">  1       -2 0.34108395E-02 0.88586632E+02</pdfrwt>
<totfact> 0.12805336E+05</totfact>
</mgrwt>
</event>
<event>
 5    1  0.2799021E+000  0.9129492E+02  0.7818608E-02  0.1299746E+00
          2   -1    0    0  501    0  0.00000000000E+00  0.00000000000E+00  0.26318860230E+02  0.26318860359E+02  0.26000000000E-02 0. -1.
         -2   -1    0    0    0  501 -0.00000000000E+00 -0.00000000000E+00 -0.79171004437E+02  0.79171004480E+02  0.26000000000E-02 0.  1.
         23    2    1    2    0    0  0.00000000000E+00  0.00000000000E+00 -0.52852144206E+02  0.10548986484E+03  0.91294920102E+02 0.  0.
        -11    1    3    3    0    0 -0.43247908105E+02  0.61481294640E+01 -0.11118211154E+02  0.45075444212E+02  0.51100000000E-03 0. -1.
         11    1    3    3    0    0  0.43247908105E+02 -0.61481294640E+01 -0.41733933052E+02  0.60414420626E+02  0.51100000000E-03 0.  1.
<mgrwt>
<rscale>  0 0.91294920E+02</rscale>
<asrwt>0</asrwt>
<pdfrwt beam="1">  1        2 0.40490555E-02 0.91294920E+02</pdfrwt>
<pdfrwt beam="2">  1       -2 0.12180154E-01 0.91294920E+02</pdfrwt>
<totfact> 0.85052484E+04</totfact>
</mgrwt>
</event>
<event>
 4    1  0.2799021E+000  0.1366248E+03  0.7818608E-02  0.1217944E+00
         -2   -1    0    0    0  501 -0.00000000000E+00  0.00000000000E+00  0.20377415865E+03  0.20377415866E+03  0.26000000000E-02 0.  1.
          2   -1    0    0  501    0  0.00000000000E+00 -0.00000000000E+00 -0.22900754176E+02  0.22900754324E+02  0.26000000000E-02 0. -1.
        -11    1    1    2    0    0 -0.35556303639E+01 -0.40061406076E+02  0.18204912670E+03  0.18643884599E+03  0.51100000000E-03 0.  1.
         11    1    1    2    0    0  0.35556303639E+01  0.40061406076E+02 -0.11757222274E+01  0.40236066993E+02  0.51100000000E-03 0. -1.
<mgrwt>
<rscale>  0 0.13662477E+03</rscale>
<asrwt>0</asrwt>
<pdfrwt beam="2">  1        2 0.35231931E-02 0.13662477E+03</pdfrwt>
<pdfrwt beam="1">  1       -2 0.31349870E-01 0.13662477E+03</pdfrwt>
<totfact> 0.21938894E+04</totfact>
</mgrwt>
</event>
<event>
 5    1  0.2799021E+000  0.8677257E+02  0.7818608E-02  0.1310861E+00
          2   -1    0    0  501    0  0.00000000000E+00  0.00000000000E+00  0.97341982009E+01  0.97341985481E+01  0.26000000000E-02 0. -1.
         -2   -1    0    0    0  501 -0.00000000000E+00 -0.00000000000E+00 -0.19337695640E+03  0.19337695641E+03  0.26000000000E-02 0.  1.
         23    2    1    2    0    0  0.00000000000E+00  0.00000000000E+00 -0.18364275819E+03  0.20311115496E+03  0.86772568432E+02 0.  0.
        -11    1    3    3    0    0  0.41529478602E+02  0.46095633350E+01 -0.11916126501E+03  0.12627490941E+03  0.51100000000E-03 0.  1.
         11    1    3    3    0    0 -0.41529478602E+02 -0.46095633350E+01 -0.64481493188E+02  0.76836245556E+02  0.51100000000E-03 0. -1.
<mgrwt>
<rscale>  0 0.86772568E+02</rscale>
<asrwt>0</asrwt>
<pdfrwt beam="1">  1        2 0.14975691E-02 0.86772568E+02</pdfrwt>
<pdfrwt beam="2">  1       -2 0.29750298E-01 0.86772568E+02</pdfrwt>
<totfact> 0.71724850E+04</totfact>
</mgrwt>
</event>
<event>
 5    1  0.2799021E+000  0.9075787E+02  0.7818608E-02  0.1301027E+00
          2   -1    0    0  501    0  0.00000000000E+00  0.00000000000E+00  0.66361605087E+02  0.66361605138E+02  0.26000000000E-02 0.  1.
         -2   -1    0    0    0  501 -0.00000000000E+00 -0.00000000000E+00 -0.31030711476E+02  0.31030711585E+02  0.26000000000E-02 0. -1.
         23    2    1    2    0    0  0.00000000000E+00  0.00000000000E+00  0.35330893611E+02  0.97392316723E+02  0.90757871908E+02 0.  0.
        -11    1    3    3    0    0  0.45066869211E+02 -0.51644907039E+01  0.16328084877E+02  0.48211005183E+02  0.51100000000E-03 0.  1.
         11    1    3    3    0    0 -0.45066869211E+02  0.51644907039E+01  0.19002808735E+02  0.49181311540E+02  0.51100000000E-03 0. -1.
<mgrwt>
<rscale>  0 0.90757872E+02</rscale>
<asrwt>0</asrwt>
<pdfrwt beam="1">  1        2 0.10209478E-01 0.90757872E+02</pdfrwt>
<pdfrwt beam="2">  1       -2 0.47739557E-02 0.90757872E+02</pdfrwt>
<totfact> 0.11042197E+05</totfact>
</mgrwt>
</event>
<event>
 5    1  0.2799021E+000  0.8801382E+02  0.7818608E-02  0.1307734E+00
         -2   -1    0    0    0  501 -0.00000000000E+00  0.00000000000E+00  0.31137865117E+02  0.31137865226E+02  0.26000000000E-02 0.  1.
          2   -1    0    0  501    0  0.00000000000E+00 -0.00000000000E+00 -0.62194639772E+02  0.62194639826E+02  0.26000000000E-02 0. -1.
         23    2    1    2    0    0  0.00000000000E+00  0.00000000000E+00 -0.31056774655E+02  0.93332505052E+02  0.88013824183E+02 0.  0.
        -11    1    3    3    0    0  0.19155566614E+02  0.13531218634E+02 -0.55015401313E+02  0.59805718722E+02  0.51100000000E-03 0. -1.
         11    1    3    3    0    0 -0.19155566614E+02 -0.13531218634E+02  0.23958626658E+02  0.33526786330E+02  0.51100000000E-03 0.  1.
<mgrwt>
<rscale>  0 0.88013824E+02</rscale>
<asrwt>0</asrwt>
<pdfrwt beam="2">  1        2 0.95684061E-02 0.88013824E+02</pdfrwt>
<pdfrwt beam="1">  1       -2 0.47904408E-02 0.88013824E+02</pdfrwt>
<totfact> 0.11824579E+05</totfact>
</mgrwt>
</event>
<event>
 5    1  0.2799021E+000  0.9031428E+02  0.7818608E-02  0.1302092E+00
          2   -1    0    0  501    0  0.00000000000E+00  0.00000000000E+00  0.37297358269E+02  0.37297358360E+02  0.26000000000E-02 0. -1.
         -2   -1    0    0    0  501 -0.00000000000E+00 -0.00000000000E+00 -0.54673235594E+02  0.54673235656E+02  0.26000000000E-02 0.  1.
         23    2    1    2    0    0  0.00000000000E+00  0.00000000000E+00 -0.17375877325E+02  0.91970594016E+02  0.90314279330E+02 0.  0.
        -11    1    3    3    0    0  0.12277989311E+02 -0.33230891049E+02  0.19827859458E+02  0.40597846647E+02  0.51100000000E-03 0. -1.
         11    1    3    3    0    0 -0.12277989311E+02  0.33230891049E+02 -0.37203736783E+02  0.51372747369E+02  0.51100000000E-03 0.  1.
<mgrwt>
<rscale>  0 0.90314279E+02</rscale>
<asrwt>0</asrwt>
<pdfrwt beam="1">  1        2 0.57380551E-02 0.90314279E+02</pdfrwt>
<pdfrwt beam="2">  1       -2 0.84112670E-02 0.90314279E+02</pdfrwt>
<totfact> 0.96299688E+04</totfact>
</mgrwt>
</event>
<event>
 5    1  0.2799021E+000  0.9084110E+02  0.7818608E-02  0.1300828E+00
          2   -1    0    0  501    0  0.00000000000E+00  0.00000000000E+00  0.29873117640E+02  0.29873117753E+02  0.26000000000E-02 0.  1.
         -2   -1    0    0    0  501 -0.00000000000E+00 -0.00000000000E+00 -0.69059619665E+02  0.69059619714E+02  0.26000000000E-02 0. -1.
         23    2    1    2    0    0  0.00000000000E+00  0.00000000000E+00 -0.39186502025E+02  0.98932737467E+02  0.90841095336E+02 0.  0.
        -11    1    3    3    0    0  0.96608586270E+01 -0.31815754632E+02  0.14105678513E+02  0.36118480018E+02  0.51100000000E-03 0.  1.
         11    1    3    3    0    0 -0.96608586270E+01  0.31815754632E+02 -0.53292180537E+02  0.62814257449E+02  0.51100000000E-03 0. -1.
<mgrwt>
<rscale>  0 0.90841095E+02</rscale>
<asrwt>0</asrwt>
<pdfrwt beam="1">  1        2 0.45958643E-02 0.90841095E+02</pdfrwt>
<pdfrwt beam="2">  1       -2 0.10624557E-01 0.90841095E+02</pdfrwt>
<totfact> 0.89338513E+04</totfact>
</mgrwt>
</event>
<event>
 5    1  0.2799021E+000  0.5621952E+02  0.7818608E-02  0.1414418E+00
         -2   -1    0    0    0  501 -0.00000000000E+00  0.00000000000E+00  0.66454152971E+02  0.66454153022E+02  0.26000000000E-02 0. -1.
          2   -1    0    0  501    0  0.00000000000E+00 -0.00000000000E+00 -0.11890280088E+02  0.11890280373E+02  0.26000000000E-02 0.  1.
         23    2    1    2    0    0  0.00000000000E+00  0.00000000000E+00  0.54563872883E+02  0.78344433395E+02  0.56219516362E+02 0.  0.
        -11    1    3    3    0    0  0.12513250868E+02 -0.25675678202E+01 -0.76119621052E+01  0.14869963657E+02  0.51100000000E-03 0.  1.
         11    1    3    3    0    0 -0.12513250868E+02  0.25675678202E+01  0.62175834988E+02  0.63474469738E+02  0.51100000000E-03 0. -1.
<mgrwt>
<rscale>  0 0.56219516E+02</rscale>
<asrwt>0</asrwt>
<pdfrwt beam="2">  1        2 0.18292739E-02 0.56219516E+02</pdfrwt>
<pdfrwt beam="1">  1       -2 0.10223716E-01 0.56219516E+02</pdfrwt>
<totfact> 0.29093875E+05</totfact>
</mgrwt>
</event>
<event>
 5    1  0.2799021E+000  0.9289920E+02  0.7818608E-02  0.1295979E+00
         -2   -1    0    0    0  501 -0.00000000000E+00  0.00000000000E+00  0.39234447408E+02  0.39234447494E+02  0.26000000000E-02 0. -1.
          2   -1    0    0  501    0  0.00000000000E+00 -0.00000000000E+00 -0.54991602035E+02  0.54991602097E+02  0.26000000000E-02 0.  1.
         23    2    1    2    0    0  0.00000000000E+00  0.00000000000E+00 -0.15757154627E+02  0.94226049591E+02  0.92899195365E+02 0.  0.
        -11    1    3    3    0    0 -0.82638722100E+00  0.33573705547E+02 -0.40425652227E+02  0.52555779684E+02  0.51100000000E-03 0.  1.
         11    1    3    3    0    0  0.82638722100E+00 -0.33573705547E+02  0.24668497600E+02  0.41670269907E+02  0.51100000000E-03 0. -1.
<mgrwt>
<rscale>  0 0.92899195E+02</rscale>
<asrwt>0</asrwt>
<pdfrwt beam="2">  1        2 0.84602464E-02 0.92899195E+02</pdfrwt>
<pdfrwt beam="1">  1       -2 0.60360689E-02 0.92899195E+02</pdfrwt>
<totfact> 0.98267469E+04</totfact>
</mgrwt>
</event>
<event>
 5    1  0.2799021E+000  0.9359609E+02  0.7818608E-02  0.1294370E+00
          2   -1    0    0  501    0  0.00000000000E+00  0.00000000000E+00  0.17735784336E+03  0.17735784338E+03  0.26000000000E-02 0. -1.
         -2   -1    0    0    0  501 -0.00000000000E+00 -0.00000000000E+00 -0.12348239401E+02  0.12348239675E+02  0.26000000000E-02 0.  1.
         23    2    1    2    0    0  0.00000000000E+00  0.00000000000E+00  0.16500960396E+03  0.18970608306E+03  0.93596092595E+02 0.  0.
        -11    1    3    3    0    0  0.16813086792E+02  0.39047816437E+02  0.12215284168E+03  0.12933958631E+03  0.51100000000E-03 0. -1.
         11    1    3    3    0    0 -0.16813086792E+02 -0.39047816437E+02  0.42856762279E+02  0.60366496745E+02  0.51100000000E-03 0.  1.
<mgrwt>
<rscale>  0 0.93596093E+02</rscale>
<asrwt>0</asrwt>
<pdfrwt beam="1">  1        2 0.27285821E-01 0.93596093E+02</pdfrwt>
<pdfrwt beam="2">  1       -2 0.18997292E-02 0.93596093E+02</pdfrwt>
<totfact> 0.13802678E+05</totfact>
</mgrwt>
</event>
<event>
 5    1  0.2799021E+000  0.9162075E+02  0.7818608E-02  0.1298974E+00
         -2   -1    0    0    0  501 -0.00000000000E+00  0.00000000000E+00  0.17473078264E+03  0.17473078266E+03  0.26000000000E-02 0.  1.
          2   -1    0    0  501    0  0.00000000000E+00 -0.00000000000E+00 -0.12010422061E+02  0.12010422342E+02  0.26000000000E-02 0. -1.
         23    2    1    2    0    0  0.00000000000E+00  0.00000000000E+00  0.16272036058E+03  0.18674120500E+03  0.91620750369E+02 0.  0.
        -11    1    3    3    0    0  0.24176944851E+02 -0.26105517655E+02  0.22549512976E+02  0.42124853116E+02  0.51100000000E-03 0. -1.
         11    1    3    3    0    0 -0.24176944851E+02  0.26105517655E+02  0.14017084760E+03  0.14461635188E+03  0.51100000000E-03 0.  1.
<mgrwt>
<rscale>  0 0.91620750E+02</rscale>
<asrwt>0</asrwt>
<pdfrwt beam="2">  1        2 0.18477573E-02 0.91620750E+02</pdfrwt>
<pdfrwt beam="1">  1       -2 0.26881659E-01 0.91620750E+02</pdfrwt>
<totfact> 0.65105777E+04</totfact>
</mgrwt>
</event>
<event>
 5    1  0.2799021E+000  0.8914371E+02  0.7818608E-02  0.1304939E+00
          2   -1    0    0  501    0  0.00000000000E+00  0.00000000000E+00  0.19996537173E+03  0.19996537175E+03  0.26000000000E-02 0. -1.
         -2   -1    0    0    0  501 -0.00000000000E+00 -0.00000000000E+00 -0.99349708504E+01  0.99349711906E+01  0.26000000000E-02 0.  1.
         23    2    1    2    0    0  0.00000000000E+00  0.00000000000E+00  0.19003040088E+03  0.20990034294E+03  0.89143708173E+02 0.  0.
        -11    1    3    3    0    0 -0.10158043687E+02 -0.34949194308E+02  0.15559912429E+03  0.15979899723E+03  0.51100000000E-03 0. -1.
         11    1    3    3    0    0  0.10158043687E+02  0.34949194308E+02  0.34431276591E+02  0.50101345713E+02  0.51100000000E-03 0.  1.
<mgrwt>
<rscale>  0 0.89143708E+02</rscale>
<asrwt>0</asrwt>
<pdfrwt beam="1">  1        2 0.30763903E-01 0.89143708E+02</pdfrwt>
<pdfrwt beam="2">  1       -2 0.15284571E-02 0.89143708E+02</pdfrwt>
<totfact> 0.16433187E+05</totfact>
</mgrwt>
</event>
<event>
 5    1  0.2799021E+000  0.9868152E+02  0.7818608E-02  0.1283093E+00
          2   -1    0    0  501    0  0.00000000000E+00  0.00000000000E+00  0.24599258934E+02  0.24599259072E+02  0.26000000000E-02 0. -1.
         -2   -1    0    0    0  501 -0.00000000000E+00 -0.00000000000E+00 -0.98966831474E+02  0.98966831508E+02  0.26000000000E-02 0.  1.
         23    2    1    2    0    0  0.00000000000E+00  0.00000000000E+00 -0.74367572540E+02  0.12356609058E+03  0.98681522565E+02 0.  0.
        -11    1    3    3    0    0 -0.70365687359E+01  0.24600788865E+02 -0.90009928546E+02  0.93576168705E+02  0.51100000000E-03 0.  1.
         11    1    3    3    0    0  0.70365687359E+01 -0.24600788865E+02  0.15642356007E+02  0.29989921875E+02  0.51100000000E-03 0. -1.
<mgrwt>
<rscale>  0 0.98681523E+02</rscale>
<asrwt>0</asrwt>
<pdfrwt beam="1">  1        2 0.37845015E-02 0.98681523E+02</pdfrwt>
<pdfrwt beam="2">  1       -2 0.15225666E-01 0.98681523E+02</pdfrwt>
<totfact> 0.65762590E+04</totfact>
</mgrwt>
</event>
<event>
 5    1  0.2799021E+000  0.7995265E+02  0.7818608E-02  0.1329186E+00
          2   -1    0    0  501    0  0.00000000000E+00  0.00000000000E+00  0.25121445960E+02  0.25121446095E+02  0.26000000000E-02 0.  1.
         -2   -1    0    0    0  501 -0.00000000000E+00 -0.00000000000E+00 -0.63615231619E+02  0.63615231673E+02  0.26000000000E-02 0. -1.
         23    2    1    2    0    0  0.00000000000E+00  0.00000000000E+00 -0.38493785659E+02  0.88736677767E+02  0.79952651280E+02 0.  0.
        -11    1    3    3    0    0  0.25305269345E+02 -0.13676232600E+02  0.11564828831E+02  0.31002278318E+02  0.51100000000E-03 0.  1.
         11    1    3    3    0    0 -0.25305269345E+02  0.13676232600E+02 -0.50058614490E+02  0.57734399449E+02  0.51100000000E-03 0. -1.
<mgrwt>
<rscale>  0 0.79952651E+02</rscale>
<asrwt>0</asrwt>
<pdfrwt beam="1">  1        2 0.38648379E-02 0.79952651E+02</pdfrwt>
<pdfrwt beam="2">  1       -2 0.97869586E-02 0.79952651E+02</pdfrwt>
<totfact> 0.12445413E+05</totfact>
</mgrwt>
</event>
<event>
 5    1  0.2799021E+000  0.9145000E+02  0.7818608E-02  0.1299378E+00
          2   -1    0    0  501    0  0.00000000000E+00  0.00000000000E+00  0.18495364258E+03  0.18495364260E+03  0.26000000000E-02 0. -1.
         -2   -1    0    0    0  501 -0.00000000000E+00 -0.00000000000E+00 -0.11304322331E+02  0.11304322630E+02  0.26000000000E-02 0.  1.
         23    2    1    2    0    0  0.00000000000E+00  0.00000000000E+00  0.17364932025E+03  0.19625796523E+03  0.91449999961E+02 0.  0.
        -11    1    3    3    0    0 -0.39892994800E+02  0.22345539520E+02  0.86906447519E+02  0.98201348215E+02  0.51100000000E-03 0. -1.
         11    1    3    3    0    0  0.39892994800E+02 -0.22345539520E+02  0.86742872734E+02  0.98056617018E+02  0.51100000000E-03 0.  1.
<mgrwt>
<rscale>  0 0.91450000E+02</rscale>
<asrwt>0</asrwt>
<pdfrwt beam="1">  1        2 0.28454407E-01 0.91450000E+02</pdfrwt>
<pdfrwt beam="2">  1       -2 0.17391265E-02 0.91450000E+02</pdfrwt>
<totfact> 0.14918302E+05</totfact>
</mgrwt>
</event>
<event>
 5    1  0.2799021E+000  0.9150054E+02  0.7818608E-02  0.1299258E+00
          2   -1    0    0  501    0  0.00000000000E+00  0.00000000000E+00  0.58106008575E+02  0.58106008633E+02  0.26000000000E-02 0. -1.
         -2   -1    0    0    0  501 -0.00000000000E+00 -0.00000000000E+00 -0.36021871005E+02  0.36021871099E+02  0.26000000000E-02 0.  1.
         23    2    1    2    0    0  0.00000000000E+00  0.00000000000E+00  0.22084137570E+02  0.94127879732E+02  0.91500538854E+02 0.  0.
        -11    1    3    3    0    0  0.14250353032E+02  0.65716859039E+01 -0.33166636381E+02  0.36691761831E+02  0.51100000000E-03 0.  1.
         11    1    3    3    0    0 -0.14250353032E+02 -0.65716859039E+01  0.55250773951E+02  0.57436117901E+02  0.51100000000E-03 0. -1.
<mgrwt>
<rscale>  0 0.91500539E+02</rscale>
<asrwt>0</asrwt>
<pdfrwt beam="1">  1        2 0.89393858E-02 0.91500539E+02</pdfrwt>
<pdfrwt beam="2">  1       -2 0.55418264E-02 0.91500539E+02</pdfrwt>
<totfact> 0.10411373E+05</totfact>
</mgrwt>
</event>
<event>
 5    1  0.2799021E+000  0.9854270E+02  0.7818608E-02  0.1283391E+00
          2   -1    0    0  501    0  0.00000000000E+00  0.00000000000E+00  0.36128660504E+03  0.36128660505E+03  0.26000000000E-02 0. -1.
         -2   -1    0    0    0  501 -0.00000000000E+00 -0.00000000000E+00 -0.67195007753E+01  0.67195012783E+01  0.26000000000E-02 0.  1.
         23    2    1    2    0    0  0.00000000000E+00  0.00000000000E+00  0.35456710426E+03  0.36800610633E+03  0.98542695659E+02 0.  0.
        -11    1    3    3    0    0 -0.36150896755E+01 -0.48229021921E+02  0.14214003748E+03  0.15014292418E+03  0.51100000000E-03 0.  1.
         11    1    3    3    0    0  0.36150896755E+01  0.48229021921E+02  0.21242706679E+03  0.21786318214E+03  0.51100000000E-03 0. -1.
<mgrwt>
<rscale>  0 0.98542696E+02</rscale>
<asrwt>0</asrwt>
<pdfrwt beam="1">  1        2 0.55582554E-01 0.98542696E+02</pdfrwt>
<pdfrwt beam="2">  1       -2 0.10337694E-02 0.98542696E+02</pdfrwt>
<totfact> 0.15634970E+05</totfact>
</mgrwt>
</event>
<event>
 5    1  0.2799021E+000  0.9111935E+02  0.7818608E-02  0.1300163E+00
         -2   -1    0    0    0  501 -0.00000000000E+00  0.00000000000E+00  0.68946647461E+01  0.68946652363E+01  0.26000000000E-02 0.  1.
          2   -1    0    0  501    0  0.00000000000E+00 -0.00000000000E+00 -0.30105655791E+03  0.30105655792E+03  0.26000000000E-02 0. -1.
         23    2    1    2    0    0  0.00000000000E+00  0.00000000000E+00 -0.29416189316E+03  0.30795122315E+03  0.91119352798E+02 0.  0.
        -11    1    3    3    0    0 -0.37142533189E+02 -0.12613411774E+02 -0.68762186496E+02  0.79163780988E+02  0.51100000000E-03 0.  1.
         11    1    3    3    0    0  0.37142533189E+02  0.12613411774E+02 -0.22539970666E+03  0.22878744217E+03  0.51100000000E-03 0. -1.
<mgrwt>
<rscale>  0 0.91119353E+02</rscale>
<asrwt>0</asrwt>
<pdfrwt beam="2">  1        2 0.46316383E-01 0.91119353E+02</pdfrwt>
<pdfrwt beam="1">  1       -2 0.10607179E-02 0.91119353E+02</pdfrwt>
<totfact> 0.18019864E+05</totfact>
</mgrwt>
</event>
<event>
 5    1  0.2799021E+000  0.9122100E+02  0.7818608E-02  0.1299922E+00
         -2   -1    0    0    0  501 -0.00000000000E+00  0.00000000000E+00  0.93669662973E+01  0.93669666581E+01  0.26000000000E-02 0. -1.
          2   -1    0    0  501    0  0.00000000000E+00 -0.00000000000E+00 -0.22209087902E+03  0.22209087904E+03  0.26000000000E-02 0.  1.
         23    2    1    2    0    0  0.00000000000E+00  0.00000000000E+00 -0.21272391273E+03  0.23145784570E+03  0.91221002456E+02 0.  0.
        -11    1    3    3    0    0  0.44177687290E+02 -0.96962716010E+01 -0.91430011289E+02  0.10200555231E+03  0.51100000000E-03 0.  1.
         11    1    3    3    0    0 -0.44177687290E+02  0.96962716010E+01 -0.12129390144E+03  0.12945229339E+03  0.51100000000E-03 0. -1.
<mgrwt>
<rscale>  0 0.91221002E+02</rscale>
<asrwt>0</asrwt>
<pdfrwt beam="2">  1        2 0.34167824E-01 0.91221002E+02</pdfrwt>
<pdfrwt beam="1">  1       -2 0.14410719E-02 0.91221002E+02</pdfrwt>
<totfact> 0.16048718E+05</totfact>
</mgrwt>
</event>
<event>
 5    1  0.2799021E+000  0.9038874E+02  0.7818608E-02  0.1301913E+00
          2   -1    0    0  501    0  0.00000000000E+00  0.00000000000E+00  0.26217924663E+03  0.26217924664E+03  0.26000000000E-02 0.  1.
         -2   -1    0    0    0  501 -0.00000000000E+00 -0.00000000000E+00 -0.77905895679E+01  0.77905900018E+01  0.26000000000E-02 0. -1.
         23    2    1    2    0    0  0.00000000000E+00  0.00000000000E+00  0.25438865706E+03  0.26996983665E+03  0.90388737441E+02 0.  0.
        -11    1    3    3    0    0 -0.27630972984E+01  0.35856651382E+02  0.20894642206E+03  0.21201872900E+03  0.51100000000E-03 0.  1.
         11    1    3    3    0    0  0.27630972984E+01 -0.35856651382E+02  0.45442235005E+02  0.57951107647E+02  0.51100000000E-03 0. -1.
<mgrwt>
<rscale>  0 0.90388737E+02</rscale>
<asrwt>0</asrwt>
<pdfrwt beam="1">  1        2 0.40335261E-01 0.90388737E+02</pdfrwt>
<pdfrwt beam="2">  1       -2 0.11985525E-02 0.90388737E+02</pdfrwt>
<totfact> 0.17486347E+05</totfact>
</mgrwt>
</event>
<event>
 5    1  0.2799021E+000  0.6446429E+02  0.7818608E-02  0.1379998E+00
         -2   -1    0    0    0  501 -0.00000000000E+00  0.00000000000E+00  0.54881420934E+01  0.54881427092E+01  0.26000000000E-02 0.  1.
          2   -1    0    0  501    0  0.00000000000E+00 -0.00000000000E+00 -0.18930106539E+03  0.18930106541E+03  0.26000000000E-02 0. -1.
         23    2    1    2    0    0  0.00000000000E+00  0.00000000000E+00 -0.18381292330E+03  0.19478920812E+03  0.64464291108E+02 0.  0.
        -11    1    3    3    0    0 -0.12009856638E+02 -0.29805649825E+02 -0.84323484857E+02  0.90238924621E+02  0.51100000000E-03 0. -1.
         11    1    3    3    0    0  0.12009856638E+02  0.29805649825E+02 -0.99489438440E+02  0.10455028350E+03  0.51100000000E-03 0.  1.
<mgrwt>
<rscale>  0 0.64464291E+02</rscale>
<asrwt>0</asrwt>
<pdfrwt beam="2">  1        2 0.29123236E-01 0.64464291E+02</pdfrwt>
<pdfrwt beam="1">  1       -2 0.84432975E-03 0.64464291E+02</pdfrwt>
<totfact> 0.37865865E+05</totfact>
</mgrwt>
</event>
<event>
 5    1  0.2799021E+000  0.9045505E+02  0.7818608E-02  0.1301753E+00
         -2   -1    0    0    0  501 -0.00000000000E+00  0.00000000000E+00  0.21420043037E+02  0.21420043195E+02  0.26000000000E-02 0. -1.
          2   -1    0    0  501    0  0.00000000000E+00 -0.00000000000E+00 -0.95496025797E+02  0.95496025832E+02  0.26000000000E-02 0.  1.
         23    2    1    2    0    0  0.00000000000E+00  0.00000000000E+00 -0.74075982759E+02  0.11691606903E+03  0.90455049473E+02 0.  0.
        -11    1    3    3    0    0  0.44113272670E+01  0.15468736727E+02 -0.91673856777E+02  0.93074366186E+02  0.51100000000E-03 0.  1.
         11    1    3    3    0    0 -0.44113272670E+01 -0.15468736727E+02  0.17597874018E+02  0.23841702842E+02  0.51100000000E-03 0. -1.
<mgrwt>
<rscale>  0 0.90455049E+02</rscale>
<asrwt>0</asrwt>
<pdfrwt beam="2">  1        2 0.14691696E-01 0.90455049E+02</pdfrwt>
<pdfrwt beam="1">  1       -2 0.32953913E-02 0.90455049E+02</pdfrwt>
<totfact> 0.12365559E+05</totfact>
</mgrwt>
</event>
<event>
 5    1  0.2799021E+000  0.9036483E+02  0.7818608E-02  0.1301971E+00
         -2   -1    0    0    0  501 -0.00000000000E+00  0.00000000000E+00  0.20439636136E+03  0.20439636138E+03  0.26000000000E-02 0.  1.
          2   -1    0    0  501    0  0.00000000000E+00 -0.00000000000E+00 -0.99877043204E+01  0.99877046588E+01  0.26000000000E-02 0. -1.
         23    2    1    2    0    0  0.00000000000E+00  0.00000000000E+00  0.19440865704E+03  0.21438406604E+03  0.90364826331E+02 0.  0.
        -11    1    3    3    0    0 -0.23768140280E+01  0.38589532927E+02  0.15267295716E+03  0.15749232726E+03  0.51100000000E-03 0.  1.
         11    1    3    3    0    0  0.23768140280E+01 -0.38589532927E+02  0.41735699877E+02  0.56891738776E+02  0.51100000000E-03 0. -1.
<mgrwt>
<rscale>  0 0.90364826E+02</rscale>
<asrwt>0</asrwt>
<pdfrwt beam="2">  1        2 0.15365701E-02 0.90364826E+02</pdfrwt>
<pdfrwt beam="1">  1       -2 0.31445591E-01 0.90364826E+02</pdfrwt>
<totfact> 0.63157514E+04</totfact>
</mgrwt>
</event>
<event>
 5    1  0.2799021E+000  0.9119320E+02  0.7818608E-02  0.1299988E+00
          2   -1    0    0  501    0  0.00000000000E+00  0.00000000000E+00  0.41876896507E+03  0.41876896507E+03  0.26000000000E-02 0. -1.
         -2   -1    0    0    0  501 -0.00000000000E+00 -0.00000000000E+00 -0.49646700069E+01  0.49646706877E+01  0.26000000000E-02 0.  1.
         23    2    1    2    0    0  0.00000000000E+00  0.00000000000E+00  0.41380429506E+03  0.42373363576E+03  0.91193198576E+02 0.  0.
        -11    1    3    3    0    0  0.42938096754E+02 -0.13102771287E+02  0.16982073910E+03  0.17565433725E+03  0.51100000000E-03 0.  1.
         11    1    3    3    0    0 -0.42938096754E+02  0.13102771287E+02  0.24398355596E+03  0.24807929851E+03  0.51100000000E-03 0. -1.
<mgrwt>
<rscale>  0 0.91193199E+02</rscale>
<asrwt>0</asrwt>
<pdfrwt beam="1">  1        2 0.64426019E-01 0.91193199E+02</pdfrwt>
<pdfrwt beam="2">  1       -2 0.76379515E-03 0.91193199E+02</pdfrwt>
<totfact> 0.20280458E+05</totfact>
</mgrwt>
</event>
<event>
 5    1  0.2799021E+000  0.6763168E+02  0.7818608E-02  0.1368337E+00
         -2   -1    0    0    0  501 -0.00000000000E+00  0.00000000000E+00  0.15726919602E+03  0.15726919604E+03  0.26000000000E-02 0.  1.
          2   -1    0    0  501    0  0.00000000000E+00 -0.00000000000E+00 -0.72710419399E+01  0.72710424048E+01  0.26000000000E-02 0. -1.
         23    2    1    2    0    0  0.00000000000E+00  0.00000000000E+00  0.14999815408E+03  0.16454023845E+03  0.67631677789E+02 0.  0.
        -11    1    3    3    0    0  0.32922608597E+02 -0.34314090150E+01  0.91826187127E+02  0.97610047470E+02  0.51100000000E-03 0. -1.
         11    1    3    3    0    0 -0.32922608597E+02  0.34314090150E+01  0.58171966955E+02  0.66930190978E+02  0.51100000000E-03 0.  1.
<mgrwt>
<rscale>  0 0.67631678E+02</rscale>
<asrwt>0</asrwt>
<pdfrwt beam="2">  1        2 0.11186221E-02 0.67631678E+02</pdfrwt>
<pdfrwt beam="1">  1       -2 0.24195257E-01 0.67631678E+02</pdfrwt>
<totfact> 0.14587754E+05</totfact>
</mgrwt>
</event>
<event>
 5    1  0.2799021E+000  0.9336448E+02  0.7818608E-02  0.1294903E+00
         -2   -1    0    0    0  501 -0.00000000000E+00  0.00000000000E+00  0.85581054462E+01  0.85581058412E+01  0.26000000000E-02 0.  1.
          2   -1    0    0  501    0  0.00000000000E+00 -0.00000000000E+00 -0.25463945602E+03  0.25463945604E+03  0.26000000000E-02 0. -1.
         23    2    1    2    0    0  0.00000000000E+00  0.00000000000E+00 -0.24608135058E+03  0.26319756188E+03  0.93364476524E+02 0.  0.
        -11    1    3    3    0    0 -0.20789381925E+02  0.36627880993E+02 -0.66278525761E+02  0.78527976188E+02  0.51100000000E-03 0. -1.
         11    1    3    3    0    0  0.20789381925E+02 -0.36627880993E+02 -0.17980282482E+03  0.18466958569E+03  0.51100000000E-03 0.  1.
<mgrwt>
<rscale>  0 0.93364477E+02</rscale>
<asrwt>0</asrwt>
<pdfrwt beam="2">  1        2 0.39175295E-01 0.93364477E+02</pdfrwt>
<pdfrwt beam="1">  1       -2 0.13166318E-02 0.93364477E+02</pdfrwt>
<totfact> 0.15859301E+05</totfact>
</mgrwt>
</event>
<event>
 5    1  0.2799021E+000  0.9150161E+02  0.7818608E-02  0.1299256E+00
         -2   -1    0    0    0  501 -0.00000000000E+00  0.00000000000E+00  0.22948542032E+02  0.22948542179E+02  0.26000000000E-02 0.  1.
          2   -1    0    0  501    0  0.00000000000E+00 -0.00000000000E+00 -0.91209976661E+02  0.91209976698E+02  0.26000000000E-02 0. -1.
         23    2    1    2    0    0  0.00000000000E+00  0.00000000000E+00 -0.68261434630E+02  0.11415851888E+03  0.91501606404E+02 0.  0.
        -11    1    3    3    0    0  0.77762389652E+01  0.13922234318E+02  0.19368974704E+02  0.25088955383E+02  0.51100000000E-03 0.  1.
         11    1    3    3    0    0 -0.77762389652E+01 -0.13922234318E+02 -0.87630409334E+02  0.89069563495E+02  0.51100000000E-03 0. -1.
<mgrwt>
<rscale>  0 0.91501606E+02</rscale>
<asrwt>0</asrwt>
<pdfrwt beam="2">  1        2 0.14032304E-01 0.91501606E+02</pdfrwt>
<pdfrwt beam="1">  1       -2 0.35305450E-02 0.91501606E+02</pdfrwt>
<totfact> 0.11816140E+05</totfact>
</mgrwt>
</event>
<event>
 5    1  0.2799021E+000  0.9142602E+02  0.7818608E-02  0.1299435E+00
          2   -1    0    0  501    0  0.00000000000E+00  0.00000000000E+00  0.28452438682E+03  0.28452438683E+03  0.26000000000E-02 0.  1.
         -2   -1    0    0    0  501 -0.00000000000E+00 -0.00000000000E+00 -0.73444648727E+01  0.73444653329E+01  0.26000000000E-02 0. -1.
         23    2    1    2    0    0  0.00000000000E+00  0.00000000000E+00  0.27717992194E+03  0.29186885216E+03  0.91426023282E+02 0.  0.
        -11    1    3    3    0    0 -0.30222401798E+02  0.34296840712E+02  0.13894801946E+03  0.14627446450E+03  0.51100000000E-03 0. -1.
         11    1    3    3    0    0  0.30222401798E+02 -0.34296840712E+02  0.13823190249E+03  0.14559438766E+03  0.51100000000E-03 0.  1.
<mgrwt>
<rscale>  0 0.91426023E+02</rscale>
<asrwt>0</asrwt>
<pdfrwt beam="1">  1        2 0.43772975E-01 0.91426023E+02</pdfrwt>
<pdfrwt beam="2">  1       -2 0.11299179E-02 0.91426023E+02</pdfrwt>
<totfact> 0.17486711E+05</totfact>
</mgrwt>
</event>
<event>
 5    1  0.2799021E+000  0.8816696E+02  0.7818608E-02  0.1307352E+00
          2   -1    0    0  501    0  0.00000000000E+00  0.00000000000E+00  0.12250012031E+03  0.12250012034E+03  0.26000000000E-02 0. -1.
         -2   -1    0    0    0  501 -0.00000000000E+00 -0.00000000000E+00 -0.15864091037E+02  0.15864091250E+02  0.26000000000E-02 0.  1.
         23    2    1    2    0    0  0.00000000000E+00  0.00000000000E+00  0.10663602928E+03  0.13836421159E+03  0.88166957015E+02 0.  0.
        -11    1    3    3    0    0 -0.16521094214E+02  0.37281048822E+02  0.27033042789E+02  0.48924518986E+02  0.51100000000E-03 0. -1.
         11    1    3    3    0    0  0.16521094214E+02 -0.37281048822E+02  0.79602986486E+02  0.89439692604E+02  0.51100000000E-03 0.  1.
<mgrwt>
<rscale>  0 0.88166957E+02</rscale>
<asrwt>0</asrwt>
<pdfrwt beam="1">  1        2 0.18846171E-01 0.88166957E+02</pdfrwt>
<pdfrwt beam="2">  1       -2 0.24406295E-02 0.88166957E+02</pdfrwt>
<totfact> 0.14324338E+05</totfact>
</mgrwt>
</event>
<event>
 5    1  0.2799021E+000  0.9074182E+02  0.7818608E-02  0.1301065E+00
          2   -1    0    0  501    0  0.00000000000E+00  0.00000000000E+00  0.45618308799E+02  0.45618308873E+02  0.26000000000E-02 0. -1.
         -2   -1    0    0    0  501 -0.00000000000E+00 -0.00000000000E+00 -0.45124853265E+02  0.45124853340E+02  0.26000000000E-02 0.  1.
         23    2    1    2    0    0  0.00000000000E+00  0.00000000000E+00  0.49345553340E+00  0.90743162213E+02  0.90741820513E+02 0.  0.
        -11    1    3    3    0    0 -0.33967927337E+02 -0.29331133636E+02 -0.64155032268E+01  0.45335352319E+02  0.51100000000E-03 0.  1.
         11    1    3    3    0    0  0.33967927337E+02  0.29331133636E+02  0.69089587602E+01  0.45407809894E+02  0.51100000000E-03 0. -1.
<mgrwt>
<rscale>  0 0.90741821E+02</rscale>
<asrwt>0</asrwt>
<pdfrwt beam="1">  1        2 0.70182014E-02 0.90741821E+02</pdfrwt>
<pdfrwt beam="2">  1       -2 0.69422851E-02 0.90741821E+02</pdfrwt>
<totfact> 0.10005407E+05</totfact>
</mgrwt>
</event>
<event>
 5    1  0.2799021E+000  0.9273400E+02  0.7818608E-02  0.1296363E+00
          2   -1    0    0  501    0  0.00000000000E+00  0.00000000000E+00  0.93583430293E+02  0.93583430329E+02  0.26000000000E-02 0. -1.
         -2   -1    0    0    0  501 -0.00000000000E+00 -0.00000000000E+00 -0.22973067573E+02  0.22973067720E+02  0.26000000000E-02 0.  1.
         23    2    1    2    0    0  0.00000000000E+00  0.00000000000E+00  0.70610362720E+02  0.11655649805E+03  0.92733995459E+02 0.  0.
        -11    1    3    3    0    0 -0.40734017889E+02 -0.16275519215E+02  0.16420602698E+02  0.46837900597E+02  0.51100000000E-03 0.  1.
         11    1    3    3    0    0  0.40734017889E+02  0.16275519215E+02  0.54189760023E+02  0.69718597452E+02  0.51100000000E-03 0. -1.
<mgrwt>
<rscale>  0 0.92733995E+02</rscale>
<asrwt>0</asrwt>
<pdfrwt beam="1">  1        2 0.14397451E-01 0.92733995E+02</pdfrwt>
<pdfrwt beam="2">  1       -2 0.35343182E-02 0.92733995E+02</pdfrwt>
<totfact> 0.11474287E+05</totfact>
</mgrwt>
</event>
<event>
 5    1  0.2799021E+000  0.9153228E+02  0.7818608E-02  0.1299183E+00
         -2   -1    0    0    0  501 -0.00000000000E+00  0.00000000000E+00  0.78817313528E+01  0.78817317817E+01  0.26000000000E-02 0.  1.
          2   -1    0    0  501    0  0.00000000000E+00 -0.00000000000E+00 -0.26574611248E+03  0.26574611250E+03  0.26000000000E-02 0. -1.
         23    2    1    2    0    0  0.00000000000E+00  0.00000000000E+00 -0.25786438113E+03  0.27362784428E+03  0.91532279051E+02 0.  0.
        -11    1    3    3    0    0 -0.37371811523E+02 -0.19379789482E+02 -0.75263182319E+02  0.86236738980E+02  0.51100000000E-03 0.  1.
         11    1    3    3    0    0  0.37371811523E+02  0.19379789482E+02 -0.18260119881E+03  0.18739110530E+03  0.51100000000E-03 0. -1.
<mgrwt>
<rscale>  0 0.91532279E+02</rscale>
<asrwt>0</asrwt>
<pdfrwt beam="2">  1        2 0.40884011E-01 0.91532279E+02</pdfrwt>
<pdfrwt beam="1">  1       -2 0.12125743E-02 0.91532279E+02</pdfrwt>
<totfact> 0.16993676E+05</totfact>
</mgrwt>
</event>
<event>
 5    1  0.2799021E+000  0.8868445E+02  0.7818608E-02  0.1306069E+00
         -2   -1    0    0    0  501 -0.00000000000E+00  0.00000000000E+00  0.36253285617E+03  0.36253285618E+03  0.26000000000E-02 0. -1.
          2   -1    0    0  501    0  0.00000000000E+00 -0.00000000000E+00 -0.54235988868E+01  0.54235995100E+01  0.26000000000E-02 0.  1.
         23    2    1    2    0    0  0.00000000000E+00  0.00000000000E+00  0.35710925728E+03  0.36795645569E+03  0.88684449855E+02 0.  0.
        -11    1    3    3    0    0  0.68844487152E+01  0.43038788533E+02  0.14472013833E+03  0.15114116379E+03  0.51100000000E-03 0.  1.
         11    1    3    3    0    0 -0.68844487152E+01 -0.43038788533E+02  0.21238911896E+03  0.21681529190E+03  0.51100000000E-03 0. -1.
<mgrwt>
<rscale>  0 0.88684450E+02</rscale>
<asrwt>0</asrwt>
<pdfrwt beam="2">  1        2 0.83440010E-03 0.88684450E+02</pdfrwt>
<pdfrwt beam="1">  1       -2 0.55774270E-01 0.88684450E+02</pdfrwt>
<totfact> 0.48910574E+04</totfact>
</mgrwt>
</event>
<event>
 5    1  0.2799021E+000  0.8990393E+02  0.7818608E-02  0.1303085E+00
          2   -1    0    0  501    0  0.00000000000E+00  0.00000000000E+00  0.51789779457E+02  0.51789779522E+02  0.26000000000E-02 0. -1.
         -2   -1    0    0    0  501 -0.00000000000E+00 -0.00000000000E+00 -0.39016946126E+02  0.39016946213E+02  0.26000000000E-02 0.  1.
         23    2    1    2    0    0  0.00000000000E+00  0.00000000000E+00  0.12772833331E+02  0.90806725735E+02  0.89903927430E+02 0.  0.
        -11    1    3    3    0    0 -0.42056545453E+01  0.21306887502E+02 -0.33366242988E+02  0.39811771583E+02  0.51100000000E-03 0.  1.
         11    1    3    3    0    0  0.42056545453E+01 -0.21306887502E+02  0.46139076319E+02  0.50994954152E+02  0.51100000000E-03 0. -1.
<mgrwt>
<rscale>  0 0.89903927E+02</rscale>
<asrwt>0</asrwt>
<pdfrwt beam="1">  1        2 0.79676583E-02 0.89903927E+02</pdfrwt>
<pdfrwt beam="2">  1       -2 0.60026072E-02 0.89903927E+02</pdfrwt>
<totfact> 0.10616754E+05</totfact>
</mgrwt>
</event>
<event>
 5    1  0.2799021E+000  0.9082301E+02  0.7818608E-02  0.1300871E+00
         -2   -1    0    0    0  501 -0.00000000000E+00  0.00000000000E+00  0.22973065684E+02  0.22973065831E+02  0.26000000000E-02 0. -1.
          2   -1    0    0  501    0  0.00000000000E+00 -0.00000000000E+00 -0.89766196859E+02  0.89766196897E+02  0.26000000000E-02 0.  1.
         23    2    1    2    0    0  0.00000000000E+00  0.00000000000E+00 -0.66793131175E+02  0.11273926273E+03  0.90823009134E+02 0.  0.
        -11    1    3    3    0    0  0.34182471556E+02  0.19057721931E+02 -0.48042541781E+01  0.39429924997E+02  0.51100000000E-03 0. -1.
         11    1    3    3    0    0 -0.34182471556E+02 -0.19057721931E+02 -0.61988876997E+02  0.73309337730E+02  0.51100000000E-03 0.  1.
<mgrwt>
<rscale>  0 0.90823009E+02</rscale>
<asrwt>0</asrwt>
<pdfrwt beam="2">  1        2 0.13810184E-01 0.90823009E+02</pdfrwt>
<pdfrwt beam="1">  1       -2 0.35343179E-02 0.90823009E+02</pdfrwt>
<totfact> 0.12005023E+05</totfact>
</mgrwt>
</event>
<event>
 5    1  0.2799021E+000  0.9058390E+02  0.7818608E-02  0.1301444E+00
         -2   -1    0    0    0  501 -0.00000000000E+00  0.00000000000E+00  0.25184215605E+02  0.25184215739E+02  0.26000000000E-02 0.  1.
          2   -1    0    0  501    0  0.00000000000E+00 -0.00000000000E+00 -0.81454222432E+02  0.81454222474E+02  0.26000000000E-02 0. -1.
         23    2    1    2    0    0  0.00000000000E+00  0.00000000000E+00 -0.56270006827E+02  0.10663843821E+03  0.90583899431E+02 0.  0.
        -11    1    3    3    0    0 -0.44843232459E+02  0.37113128505E+01 -0.34214749086E+02  0.56527324328E+02  0.51100000000E-03 0. -1.
         11    1    3    3    0    0  0.44843232459E+02 -0.37113128505E+01 -0.22055257741E+02  0.50111113884E+02  0.51100000000E-03 0.  1.
<mgrwt>
<rscale>  0 0.90583899E+02</rscale>
<asrwt>0</asrwt>
<pdfrwt beam="2">  1        2 0.12531419E-01 0.90583899E+02</pdfrwt>
<pdfrwt beam="1">  1       -2 0.38744948E-02 0.90583899E+02</pdfrwt>
<totfact> 0.11755911E+05</totfact>
</mgrwt>
</event>
<event>
 5    1  0.2799021E+000  0.9174934E+02  0.7818608E-02  0.1298670E+00
         -2   -1    0    0    0  501 -0.00000000000E+00  0.00000000000E+00  0.70178306547E+01  0.70178311363E+01  0.26000000000E-02 0.  1.
          2   -1    0    0  501    0  0.00000000000E+00 -0.00000000000E+00 -0.29987691639E+03  0.29987691641E+03  0.26000000000E-02 0. -1.
         23    2    1    2    0    0  0.00000000000E+00  0.00000000000E+00 -0.29285908574E+03  0.30689474754E+03  0.91749343151E+02 0.  0.
        -11    1    3    3    0    0  0.39715595204E+02 -0.13912778687E+02 -0.20752290570E+03  0.21174666539E+03  0.51100000000E-03 0. -1.
         11    1    3    3    0    0 -0.39715595204E+02  0.13912778687E+02 -0.85336180035E+02  0.95148082148E+02  0.51100000000E-03 0.  1.
<mgrwt>
<rscale>  0 0.91749343E+02</rscale>
<asrwt>0</asrwt>
<pdfrwt beam="2">  1        2 0.46134900E-01 0.91749343E+02</pdfrwt>
<pdfrwt beam="1">  1       -2 0.10796665E-02 0.91749343E+02</pdfrwt>
<totfact> 0.17665454E+05</totfact>
</mgrwt>
</event>
<event>
 5    1  0.2799021E+000  0.9323246E+02  0.7818608E-02  0.1295207E+00
          2   -1    0    0  501    0  0.00000000000E+00  0.00000000000E+00  0.84786145237E+02  0.84786145277E+02  0.26000000000E-02 0. -1.
         -2   -1    0    0    0  501 -0.00000000000E+00 -0.00000000000E+00 -0.25630048185E+02  0.25630048316E+02  0.26000000000E-02 0.  1.
         23    2    1    2    0    0  0.00000000000E+00  0.00000000000E+00  0.59156097053E+02  0.11041619359E+03  0.93232462100E+02 0.  0.
        -11    1    3    3    0    0  0.32899663128E+02  0.30307813308E+02  0.45115626644E+02  0.63532441706E+02  0.51100000000E-03 0. -1.
         11    1    3    3    0    0 -0.32899663128E+02 -0.30307813308E+02  0.14040470409E+02  0.46883751887E+02  0.51100000000E-03 0.  1.
<mgrwt>
<rscale>  0 0.93232462E+02</rscale>
<asrwt>0</asrwt>
<pdfrwt beam="1">  1        2 0.13044023E-01 0.93232462E+02</pdfrwt>
<pdfrwt beam="2">  1       -2 0.39430843E-02 0.93232462E+02</pdfrwt>
<totfact> 0.10977845E+05</totfact>
</mgrwt>
</event>
<event>
 5    1  0.2799021E+000  0.9062835E+02  0.7818608E-02  0.1301337E+00
          2   -1    0    0  501    0  0.00000000000E+00  0.00000000000E+00  0.15002301300E+03  0.15002301303E+03  0.26000000000E-02 0. -1.
         -2   -1    0    0    0  501 -0.00000000000E+00 -0.00000000000E+00 -0.13687063200E+02  0.13687063447E+02  0.26000000000E-02 0.  1.
         23    2    1    2    0    0  0.00000000000E+00  0.00000000000E+00  0.13633594980E+03  0.16371007647E+03  0.90628350585E+02 0.  0.
        -11    1    3    3    0    0  0.36448834854E+02 -0.26923166759E+02  0.68174137651E+02  0.81860170506E+02  0.51100000000E-03 0. -1.
         11    1    3    3    0    0 -0.36448834854E+02  0.26923166759E+02  0.68161812153E+02  0.81849905967E+02  0.51100000000E-03 0.  1.
<mgrwt>
<rscale>  0 0.90628351E+02</rscale>
<asrwt>0</asrwt>
<pdfrwt beam="1">  1        2 0.23080464E-01 0.90628351E+02</pdfrwt>
<pdfrwt beam="2">  1       -2 0.21057020E-02 0.90628351E+02</pdfrwt>
<totfact> 0.14212369E+05</totfact>
</mgrwt>
</event>
<event>
 5    1  0.2799021E+000  0.9083127E+02  0.7818608E-02  0.1300851E+00
         -2   -1    0    0    0  501 -0.00000000000E+00  0.00000000000E+00  0.42972444393E+02  0.42972444471E+02  0.26000000000E-02 0.  1.
          2   -1    0    0  501    0  0.00000000000E+00 -0.00000000000E+00 -0.47997737756E+02  0.47997737827E+02  0.26000000000E-02 0. -1.
         23    2    1    2    0    0  0.00000000000E+00  0.00000000000E+00 -0.50252933638E+01  0.90970182298E+02  0.90831274867E+02 0.  0.
        -11    1    3    3    0    0 -0.54853757554E+01  0.37949375791E+02 -0.26887813252E+02  0.46831602277E+02  0.51100000000E-03 0. -1.
         11    1    3    3    0    0  0.54853757554E+01 -0.37949375791E+02  0.21862519888E+02  0.44138580021E+02  0.51100000000E-03 0.  1.
<mgrwt>
<rscale>  0 0.90831275E+02</rscale>
<asrwt>0</asrwt>
<pdfrwt beam="2">  1        2 0.73842673E-02 0.90831275E+02</pdfrwt>
<pdfrwt beam="1">  1       -2 0.66111453E-02 0.90831275E+02</pdfrwt>
<totfact> 0.10109612E+05</totfact>
</mgrwt>
</event>
<event>
 5    1  0.2799021E+000  0.9282762E+02  0.7818608E-02  0.1296145E+00
         -2   -1    0    0    0  501 -0.00000000000E+00  0.00000000000E+00  0.72202083733E+01  0.72202088415E+01  0.26000000000E-02 0.  1.
          2   -1    0    0  501    0  0.00000000000E+00 -0.00000000000E+00 -0.29836279138E+03  0.29836279139E+03  0.26000000000E-02 0. -1.
         23    2    1    2    0    0  0.00000000000E+00  0.00000000000E+00 -0.29114258301E+03  0.30558300024E+03  0.92827616535E+02 0.  0.
        -11    1    3    3    0    0  0.29983299855E+02 -0.29329277925E+02 -0.80142219691E+02  0.90454298909E+02  0.51100000000E-03 0.  1.
         11    1    3    3    0    0 -0.29983299855E+02  0.29329277925E+02 -0.21100036332E+03  0.21512870133E+03  0.51100000000E-03 0. -1.
<mgrwt>
<rscale>  0 0.92827617E+02</rscale>
<asrwt>0</asrwt>
<pdfrwt beam="2">  1        2 0.45901958E-01 0.92827617E+02</pdfrwt>
<pdfrwt beam="1">  1       -2 0.11108016E-02 0.92827617E+02</pdfrwt>
<totfact> 0.17089858E+05</totfact>
</mgrwt>
</event>
<event>
 5    1  0.2799021E+000  0.9201279E+02  0.7818608E-02  0.1298049E+00
         -2   -1    0    0    0  501 -0.00000000000E+00  0.00000000000E+00  0.43749403952E+01  0.43749411678E+01  0.26000000000E-02 0.  1.
          2   -1    0    0  501    0  0.00000000000E+00 -0.00000000000E+00 -0.48379813276E+03  0.48379813276E+03  0.26000000000E-02 0. -1.
         23    2    1    2    0    0  0.00000000000E+00  0.00000000000E+00 -0.47942319236E+03  0.48817307393E+03  0.92012785729E+02 0.  0.
        -11    1    3    3    0    0 -0.45161976261E+02  0.82794608471E+01 -0.22430317267E+03  0.22895428985E+03  0.51100000000E-03 0.  1.
         11    1    3    3    0    0  0.45161976261E+02 -0.82794608471E+01 -0.25512001969E+03  0.25921878408E+03  0.51100000000E-03 0. -1.
<mgrwt>
<rscale>  0 0.92012786E+02</rscale>
<asrwt>0</asrwt>
<pdfrwt beam="2">  1        2 0.74430440E-01 0.92012786E+02</pdfrwt>
<pdfrwt beam="1">  1       -2 0.67306820E-03 0.92012786E+02</pdfrwt>
<totfact> 0.20808642E+05</totfact>
</mgrwt>
</event>
<event>
 5    1  0.2799021E+000  0.9168101E+02  0.7818608E-02  0.1298831E+00
         -2   -1    0    0    0  501 -0.00000000000E+00  0.00000000000E+00  0.34448204340E+02  0.34448204438E+02  0.26000000000E-02 0.  1.
          2   -1    0    0  501    0  0.00000000000E+00 -0.00000000000E+00 -0.61000335403E+02  0.61000335459E+02  0.26000000000E-02 0. -1.
         23    2    1    2    0    0  0.00000000000E+00  0.00000000000E+00 -0.26552131063E+02  0.95448539897E+02  0.91681012781E+02 0.  0.
        -11    1    3    3    0    0 -0.22420386668E+02 -0.25934988794E+02 -0.44957744868E+02  0.56537564557E+02  0.51100000000E-03 0. -1.
         11    1    3    3    0    0  0.22420386668E+02  0.25934988794E+02  0.18405613805E+02  0.38910975340E+02  0.51100000000E-03 0.  1.
<mgrwt>
<rscale>  0 0.91681013E+02</rscale>
<asrwt>0</asrwt>
<pdfrwt beam="2">  1        2 0.93846670E-02 0.91681013E+02</pdfrwt>
<pdfrwt beam="1">  1       -2 0.52997238E-02 0.91681013E+02</pdfrwt>
<totfact> 0.10489641E+05</totfact>
</mgrwt>
</event>
<event>
 5    1  0.2799021E+000  0.9246881E+02  0.7818608E-02  0.1296981E+00
          2   -1    0    0  501    0  0.00000000000E+00  0.00000000000E+00  0.18745199520E+03  0.18745199521E+03  0.26000000000E-02 0. -1.
         -2   -1    0    0    0  501 -0.00000000000E+00 -0.00000000000E+00 -0.11403561366E+02  0.11403561663E+02  0.26000000000E-02 0.  1.
         23    2    1    2    0    0  0.00000000000E+00  0.00000000000E+00  0.17604843383E+03  0.19885555688E+03  0.92468813374E+02 0.  0.
        -11    1    3    3    0    0 -0.30730212123E+02  0.35550300897E+00  0.13741186366E+02  0.33664410325E+02  0.51100000000E-03 0.  1.
         11    1    3    3    0    0  0.30730212123E+02 -0.35550300897E+00  0.16230724746E+03  0.16519114655E+03  0.51100000000E-03 0. -1.
<mgrwt>
<rscale>  0 0.92468813E+02</rscale>
<asrwt>0</asrwt>
<pdfrwt beam="1">  1        2 0.28838766E-01 0.92468813E+02</pdfrwt>
<pdfrwt beam="2">  1       -2 0.17543942E-02 0.92468813E+02</pdfrwt>
<totfact> 0.14548003E+05</totfact>
</mgrwt>
</event>
<event>
 5    1  0.2799021E+000  0.8985930E+02  0.7818608E-02  0.1303193E+00
         -2   -1    0    0    0  501 -0.00000000000E+00  0.00000000000E+00  0.63929848775E+02  0.63929848828E+02  0.26000000000E-02 0. -1.
          2   -1    0    0  501    0  0.00000000000E+00 -0.00000000000E+00 -0.31576382467E+02  0.31576382574E+02  0.26000000000E-02 0.  1.
         23    2    1    2    0    0  0.00000000000E+00  0.00000000000E+00  0.32353466308E+02  0.95506231402E+02  0.89859298097E+02 0.  0.
        -11    1    3    3    0    0  0.21377000590E+02  0.23702408929E+02 -0.17431482473E+02  0.36368075626E+02  0.51100000000E-03 0.  1.
         11    1    3    3    0    0 -0.21377000590E+02 -0.23702408929E+02  0.49784948781E+02  0.59138155777E+02  0.51100000000E-03 0. -1.
<mgrwt>
<rscale>  0 0.89859298E+02</rscale>
<asrwt>0</asrwt>
<pdfrwt beam="2">  1        2 0.48579050E-02 0.89859298E+02</pdfrwt>
<pdfrwt beam="1">  1       -2 0.98353614E-02 0.89859298E+02</pdfrwt>
<totfact> 0.93608607E+04</totfact>
</mgrwt>
</event>
<event>
 5    1  0.2799021E+000  0.8546191E+02  0.7818608E-02  0.1314229E+00
          2   -1    0    0  501    0  0.00000000000E+00  0.00000000000E+00  0.89713926647E+02  0.89713926684E+02  0.26000000000E-02 0. -1.
         -2   -1    0    0    0  501 -0.00000000000E+00 -0.00000000000E+00 -0.20352853693E+02  0.20352853859E+02  0.26000000000E-02 0.  1.
         23    2    1    2    0    0  0.00000000000E+00  0.00000000000E+00  0.69361072954E+02  0.11006678054E+03  0.85461908110E+02 0.  0.
        -11    1    3    3    0    0 -0.11451881277E+02 -0.40871386979E+02  0.28329380960E+02  0.51031065874E+02  0.51100000000E-03 0.  1.
         11    1    3    3    0    0  0.11451881277E+02  0.40871386979E+02  0.41031691993E+02  0.59035714669E+02  0.51100000000E-03 0. -1.
<mgrwt>
<rscale>  0 0.85461908E+02</rscale>
<asrwt>0</asrwt>
<pdfrwt beam="1">  1        2 0.13802142E-01 0.85461908E+02</pdfrwt>
<pdfrwt beam="2">  1       -2 0.31312083E-02 0.85461908E+02</pdfrwt>
<totfact> 0.14187957E+05</totfact>
</mgrwt>
</event>
<event>
 5    1  0.2799021E+000  0.9136416E+02  0.7818608E-02  0.1299581E+00
          2   -1    0    0  501    0  0.00000000000E+00  0.00000000000E+00  0.49395447990E+02  0.49395448059E+02  0.26000000000E-02 0. -1.
         -2   -1    0    0    0  501 -0.00000000000E+00 -0.00000000000E+00 -0.42247865704E+02  0.42247865784E+02  0.26000000000E-02 0.  1.
         23    2    1    2    0    0  0.00000000000E+00  0.00000000000E+00  0.71475822865E+01  0.91643313842E+02  0.91364156207E+02 0.  0.
        -11    1    3    3    0    0 -0.44087554484E+02  0.22449391906E+01  0.15361295082E+02  0.46741005544E+02  0.51100000000E-03 0. -1.
         11    1    3    3    0    0  0.44087554484E+02 -0.22449391906E+01 -0.82137127953E+01  0.44902308299E+02  0.51100000000E-03 0.  1.
<mgrwt>
<rscale>  0 0.91364156E+02</rscale>
<asrwt>0</asrwt>
<pdfrwt beam="1">  1        2 0.75992996E-02 0.91364156E+02</pdfrwt>
<pdfrwt beam="2">  1       -2 0.64996717E-02 0.91364156E+02</pdfrwt>
<totfact> 0.10016708E+05</totfact>
</mgrwt>
</event>
<event>
 5    1  0.2799021E+000  0.7777809E+02  0.7818608E-02  0.1335478E+00
         -2   -1    0    0    0  501 -0.00000000000E+00  0.00000000000E+00  0.16831197349E+02  0.16831197550E+02  0.26000000000E-02 0.  1.
          2   -1    0    0  501    0  0.00000000000E+00 -0.00000000000E+00 -0.89854446681E+02  0.89854446719E+02  0.26000000000E-02 0. -1.
         23    2    1    2    0    0  0.00000000000E+00  0.00000000000E+00 -0.73023249332E+02  0.10668564427E+03  0.77778092996E+02 0.  0.
        -11    1    3    3    0    0  0.18075253504E+02  0.18174904795E+02 -0.76627104154E+02  0.80800711908E+02  0.51100000000E-03 0. -1.
         11    1    3    3    0    0 -0.18075253504E+02 -0.18174904795E+02  0.36038548215E+01  0.25884932361E+02  0.51100000000E-03 0.  1.
<mgrwt>
<rscale>  0 0.77778093E+02</rscale>
<asrwt>0</asrwt>
<pdfrwt beam="2">  1        2 0.13823761E-01 0.77778093E+02</pdfrwt>
<pdfrwt beam="1">  1       -2 0.25894150E-02 0.77778093E+02</pdfrwt>
<totfact> 0.18337659E+05</totfact>
</mgrwt>
</event>
<event>
 5    1  0.2799021E+000  0.9230459E+02  0.7818608E-02  0.1297365E+00
         -2   -1    0    0    0  501 -0.00000000000E+00  0.00000000000E+00  0.86378243512E+01  0.86378247425E+01  0.26000000000E-02 0.  1.
          2   -1    0    0  501    0  0.00000000000E+00 -0.00000000000E+00 -0.24659382212E+03  0.24659382213E+03  0.26000000000E-02 0. -1.
         23    2    1    2    0    0  0.00000000000E+00  0.00000000000E+00 -0.23795599777E+03  0.25523164687E+03  0.92304586522E+02 0.  0.
        -11    1    3    3    0    0  0.14196890293E+02  0.33908891067E+02 -0.41818775564E+02  0.55679211357E+02  0.51100000000E-03 0.  1.
         11    1    3    3    0    0 -0.14196890293E+02 -0.33908891067E+02 -0.19613722220E+03  0.19955243552E+03  0.51100000000E-03 0. -1.
<mgrwt>
<rscale>  0 0.92304587E+02</rscale>
<asrwt>0</asrwt>
<pdfrwt beam="2">  1        2 0.37937506E-01 0.92304587E+02</pdfrwt>
<pdfrwt beam="1">  1       -2 0.13288963E-02 0.92304587E+02</pdfrwt>
<totfact> 0.16159298E+05</totfact>
</mgrwt>
</event>
<event>
 5    1  0.2799021E+000  0.1121407E+03  0.7818608E-02  0.1256656E+00
          2   -1    0    0  501    0  0.00000000000E+00  0.00000000000E+00  0.52687609621E+02  0.52687609685E+02  0.26000000000E-02 0. -1.
         -2   -1    0    0    0  501 -0.00000000000E+00 -0.00000000000E+00 -0.59670263114E+02  0.59670263171E+02  0.26000000000E-02 0.  1.
         23    2    1    2    0    0  0.00000000000E+00  0.00000000000E+00 -0.69826534931E+01  0.11235787286E+03  0.11214068906E+03 0.  0.
        -11    1    3    3    0    0  0.45692653958E+02  0.58306681643E+01 -0.35523044590E+02  0.58169596992E+02  0.51100000000E-03 0.  1.
         11    1    3    3    0    0 -0.45692653958E+02 -0.58306681643E+01  0.28540391097E+02  0.54188275865E+02  0.51100000000E-03 0. -1.
<mgrwt>
<rscale>  0 0.11214069E+03</rscale>
<asrwt>0</asrwt>
<pdfrwt beam="1">  1        2 0.81057861E-02 0.11214069E+03</pdfrwt>
<pdfrwt beam="2">  1       -2 0.91800405E-02 0.11214069E+03</pdfrwt>
<totfact> 0.56176385E+04</totfact>
</mgrwt>
</event>
<event>
 5    1  0.2799021E+000  0.9244993E+02  0.7818608E-02  0.1297025E+00
         -2   -1    0    0    0  501 -0.00000000000E+00  0.00000000000E+00  0.28340008123E+03  0.28340008124E+03  0.26000000000E-02 0.  1.
          2   -1    0    0  501    0  0.00000000000E+00 -0.00000000000E+00 -0.75396853204E+01  0.75396857687E+01  0.26000000000E-02 0. -1.
         23    2    1    2    0    0  0.00000000000E+00  0.00000000000E+00  0.27586039591E+03  0.29093976701E+03  0.92449932378E+02 0.  0.
        -11    1    3    3    0    0  0.37581068509E+02  0.12969553569E+02  0.21214876321E+03  0.21584170996E+03  0.51100000000E-03 0.  1.
         11    1    3    3    0    0 -0.37581068509E+02 -0.12969553569E+02  0.63711632699E+02  0.75098057042E+02  0.51100000000E-03 0. -1.
<mgrwt>
<rscale>  0 0.92449932E+02</rscale>
<asrwt>0</asrwt>
<pdfrwt beam="2">  1        2 0.11599517E-02 0.92449932E+02</pdfrwt>
<pdfrwt beam="1">  1       -2 0.43600011E-01 0.92449932E+02</pdfrwt>
<totfact> 0.50783002E+04</totfact>
</mgrwt>
</event>
<event>
 5    1  0.2799021E+000  0.9176225E+02  0.7818608E-02  0.1298639E+00
         -2   -1    0    0    0  501 -0.00000000000E+00  0.00000000000E+00  0.14697207642E+02  0.14697207872E+02  0.26000000000E-02 0.  1.
          2   -1    0    0  501    0  0.00000000000E+00 -0.00000000000E+00 -0.14322977279E+03  0.14322977281E+03  0.26000000000E-02 0. -1.
         23    2    1    2    0    0  0.00000000000E+00  0.00000000000E+00 -0.12853256515E+03  0.15792698068E+03  0.91762252178E+02 0.  0.
        -11    1    3    3    0    0  0.22502635859E+02 -0.10641477678E+02 -0.13059841022E+03  0.13294944310E+03  0.51100000000E-03 0. -1.
         11    1    3    3    0    0 -0.22502635859E+02  0.10641477678E+02  0.20658450720E+01  0.24977537587E+02  0.51100000000E-03 0.  1.
<mgrwt>
<rscale>  0 0.91762252E+02</rscale>
<asrwt>0</asrwt>
<pdfrwt beam="2">  1        2 0.22035349E-01 0.91762252E+02</pdfrwt>
<pdfrwt beam="1">  1       -2 0.22611090E-02 0.91762252E+02</pdfrwt>
<totfact> 0.13526566E+05</totfact>
</mgrwt>
</event>
<event>
 5    1  0.2799021E+000  0.8824757E+02  0.7818608E-02  0.1307152E+00
         -2   -1    0    0    0  501 -0.00000000000E+00  0.00000000000E+00  0.75082828761E+01  0.75082833263E+01  0.26000000000E-02 0.  1.
          2   -1    0    0  501    0  0.00000000000E+00 -0.00000000000E+00 -0.25930143441E+03  0.25930143443E+03  0.26000000000E-02 0. -1.
         23    2    1    2    0    0  0.00000000000E+00  0.00000000000E+00 -0.25179315154E+03  0.26680971775E+03  0.88247574053E+02 0.  0.
        -11    1    3    3    0    0  0.34977157075E+01 -0.41523572730E+02 -0.82034279676E+02  0.92011217521E+02  0.51100000000E-03 0.  1.
         11    1    3    3    0    0 -0.34977157075E+01  0.41523572730E+02 -0.16975887186E+03  0.17479850023E+03  0.51100000000E-03 0. -1.
<mgrwt>
<rscale>  0 0.88247574E+02</rscale>
<asrwt>0</asrwt>
<pdfrwt beam="2">  1        2 0.39892522E-01 0.88247574E+02</pdfrwt>
<pdfrwt beam="1">  1       -2 0.11551207E-02 0.88247574E+02</pdfrwt>
<totfact> 0.18564885E+05</totfact>
</mgrwt>
</event>
<event>
 5    1  0.2799021E+000  0.9064313E+02  0.7818608E-02  0.1301302E+00
          2   -1    0    0  501    0  0.00000000000E+00  0.00000000000E+00  0.34250562444E+03  0.34250562445E+03  0.26000000000E-02 0. -1.
         -2   -1    0    0    0  501 -0.00000000000E+00 -0.00000000000E+00 -0.59971110044E+01  0.59971115680E+01  0.26000000000E-02 0.  1.
         23    2    1    2    0    0  0.00000000000E+00  0.00000000000E+00  0.33650851343E+03  0.34850273601E+03  0.90643132102E+02 0.  0.
        -11    1    3    3    0    0  0.41604833155E+02 -0.88348698069E+01  0.22843790490E+03  0.23236370943E+03  0.51100000000E-03 0. -1.
         11    1    3    3    0    0 -0.41604833155E+02  0.88348698069E+01  0.10807060853E+03  0.11613902658E+03  0.51100000000E-03 0.  1.
<mgrwt>
<rscale>  0 0.90643132E+02</rscale>
<asrwt>0</asrwt>
<pdfrwt beam="1">  1        2 0.52693166E-01 0.90643132E+02</pdfrwt>
<pdfrwt beam="2">  1       -2 0.92263263E-03 0.90643132E+02</pdfrwt>
<totfact> 0.19166317E+05</totfact>
</mgrwt>
</event>
<event>
 5    1  0.2799021E+000  0.9168534E+02  0.7818608E-02  0.1298821E+00
          2   -1    0    0  501    0  0.00000000000E+00  0.00000000000E+00  0.16446835934E+02  0.16446836139E+02  0.26000000000E-02 0. -1.
         -2   -1    0    0    0  501 -0.00000000000E+00 -0.00000000000E+00 -0.12777839515E+03  0.12777839517E+03  0.26000000000E-02 0.  1.
         23    2    1    2    0    0  0.00000000000E+00  0.00000000000E+00 -0.11133155921E+03  0.14422523131E+03  0.91685338361E+02 0.  0.
        -11    1    3    3    0    0  0.39807192417E+02 -0.18384285715E+02 -0.34622461188E+02  0.55868679494E+02  0.51100000000E-03 0.  1.
         11    1    3    3    0    0 -0.39807192417E+02  0.18384285715E+02 -0.76709098025E+02  0.88356551820E+02  0.51100000000E-03 0. -1.
<mgrwt>
<rscale>  0 0.91685338E+02</rscale>
<asrwt>0</asrwt>
<pdfrwt beam="1">  1        2 0.25302826E-02 0.91685338E+02</pdfrwt>
<pdfrwt beam="2">  1       -2 0.19658214E-01 0.91685338E+02</pdfrwt>
<totfact> 0.72846667E+04</totfact>
</mgrwt>
</event>
<event>
 5    1  0.2799021E+000  0.9767291E+02  0.7818608E-02  0.1285267E+00
         -2   -1    0    0    0  501 -0.00000000000E+00  0.00000000000E+00  0.12161850553E+02  0.12161850831E+02  0.26000000000E-02 0.  1.
          2   -1    0    0  501    0  0.00000000000E+00 -0.00000000000E+00 -0.19610498128E+03  0.19610498130E+03  0.26000000000E-02 0. -1.
         23    2    1    2    0    0  0.00000000000E+00  0.00000000000E+00 -0.18394313073E+03  0.20826683213E+03  0.97672913458E+02 0.  0.
        -11    1    3    3    0    0 -0.28025316188E+02  0.32615280721E+02 -0.14132953674E+03  0.14772681828E+03  0.51100000000E-03 0. -1.
         11    1    3    3    0    0  0.28025316188E+02 -0.32615280721E+02 -0.42613593988E+02  0.60540013849E+02  0.51100000000E-03 0.  1.
<mgrwt>
<rscale>  0 0.97672913E+02</rscale>
<asrwt>0</asrwt>
<pdfrwt beam="2">  1        2 0.30169995E-01 0.97672913E+02</pdfrwt>
<pdfrwt beam="1">  1       -2 0.18710541E-02 0.97672913E+02</pdfrwt>
<totfact> 0.12748207E+05</totfact>
</mgrwt>
</event>
<event>
 5    1  0.2799021E+000  0.9066657E+02  0.7818608E-02  0.1301245E+00
         -2   -1    0    0    0  501 -0.00000000000E+00  0.00000000000E+00  0.11148756612E+02  0.11148756915E+02  0.26000000000E-02 0.  1.
          2   -1    0    0  501    0  0.00000000000E+00 -0.00000000000E+00 -0.18433504842E+03  0.18433504844E+03  0.26000000000E-02 0. -1.
         23    2    1    2    0    0  0.00000000000E+00  0.00000000000E+00 -0.17318629181E+03  0.19548380536E+03  0.90666567627E+02 0.  0.
        -11    1    3    3    0    0 -0.22596269442E+02 -0.38958293139E+02 -0.75438381318E+02  0.87859486529E+02  0.51100000000E-03 0.  1.
         11    1    3    3    0    0  0.22596269442E+02  0.38958293139E+02 -0.97747910492E+02  0.10762431883E+03  0.51100000000E-03 0. -1.
<mgrwt>
<rscale>  0 0.90666568E+02</rscale>
<asrwt>0</asrwt>
<pdfrwt beam="2">  1        2 0.28359236E-01 0.90666568E+02</pdfrwt>
<pdfrwt beam="1">  1       -2 0.17151935E-02 0.90666568E+02</pdfrwt>
<totfact> 0.15250358E+05</totfact>
</mgrwt>
</event>
<event>
 5    1  0.2799021E+000  0.9154567E+02  0.7818608E-02  0.1299151E+00
         -2   -1    0    0    0  501 -0.00000000000E+00  0.00000000000E+00  0.10544827165E+02  0.10544827485E+02  0.26000000000E-02 0.  1.
          2   -1    0    0  501    0  0.00000000000E+00 -0.00000000000E+00 -0.19869007531E+03  0.19869007533E+03  0.26000000000E-02 0. -1.
         23    2    1    2    0    0  0.00000000000E+00  0.00000000000E+00 -0.18814524815E+03  0.20923490281E+03  0.91545672509E+02 0.  0.
        -11    1    3    3    0    0 -0.18294087777E+02  0.31104606760E+02 -0.29710841037E+02  0.46742959734E+02  0.51100000000E-03 0.  1.
         11    1    3    3    0    0  0.18294087777E+02 -0.31104606760E+02 -0.15843440711E+03  0.16249194308E+03  0.51100000000E-03 0. -1.
<mgrwt>
<rscale>  0 0.91545673E+02</rscale>
<asrwt>0</asrwt>
<pdfrwt beam="2">  1        2 0.30567701E-01 0.91545673E+02</pdfrwt>
<pdfrwt beam="1">  1       -2 0.16222813E-02 0.91545673E+02</pdfrwt>
<totfact> 0.15264251E+05</totfact>
</mgrwt>
</event>
<event>
 5    1  0.2799021E+000  0.8994738E+02  0.7818608E-02  0.1302979E+00
          2   -1    0    0  501    0  0.00000000000E+00  0.00000000000E+00  0.18881246353E+03  0.18881246355E+03  0.26000000000E-02 0. -1.
         -2   -1    0    0    0  501 -0.00000000000E+00 -0.00000000000E+00 -0.10712391058E+02  0.10712391374E+02  0.26000000000E-02 0.  1.
         23    2    1    2    0    0  0.00000000000E+00  0.00000000000E+00  0.17810007247E+03  0.19952485492E+03  0.89947384160E+02 0.  0.
        -11    1    3    3    0    0  0.27359818340E+02 -0.17212188866E+02  0.19685647501E+02  0.37846318486E+02  0.51100000000E-03 0.  1.
         11    1    3    3    0    0 -0.27359818340E+02  0.17212188866E+02  0.15841442497E+03  0.16167853644E+03  0.51100000000E-03 0. -1.
<mgrwt>
<rscale>  0 0.89947384E+02</rscale>
<asrwt>0</asrwt>
<pdfrwt beam="1">  1        2 0.29048070E-01 0.89947384E+02</pdfrwt>
<pdfrwt beam="2">  1       -2 0.16480603E-02 0.89947384E+02</pdfrwt>
<totfact> 0.15714806E+05</totfact>
</mgrwt>
</event>
<event>
 5    1  0.2799021E+000  0.9273641E+02  0.7818608E-02  0.1296357E+00
         -2   -1    0    0    0  501 -0.00000000000E+00  0.00000000000E+00  0.95539637253E+01  0.95539640791E+01  0.26000000000E-02 0.  1.
          2   -1    0    0  501    0  0.00000000000E+00 -0.00000000000E+00 -0.22503858958E+03  0.22503858959E+03  0.26000000000E-02 0. -1.
         23    2    1    2    0    0  0.00000000000E+00  0.00000000000E+00 -0.21548462585E+03  0.23459255367E+03  0.92736412803E+02 0.  0.
        -11    1    3    3    0    0  0.38982069007E+02 -0.21415468505E+01 -0.44458947864E+02  0.59167440138E+02  0.51100000000E-03 0.  1.
         11    1    3    3    0    0 -0.38982069007E+02  0.21415468505E+01 -0.17102567799E+03  0.17542511354E+03  0.51100000000E-03 0. -1.
<mgrwt>
<rscale>  0 0.92736413E+02</rscale>
<asrwt>0</asrwt>
<pdfrwt beam="2">  1        2 0.34621318E-01 0.92736413E+02</pdfrwt>
<pdfrwt beam="1">  1       -2 0.14698408E-02 0.92736413E+02</pdfrwt>
<totfact> 0.15427565E+05</totfact>
</mgrwt>
</event>
<event>
 5    1  0.2799021E+000  0.9207184E+02  0.7818608E-02  0.1297911E+00
          2   -1    0    0  501    0  0.00000000000E+00  0.00000000000E+00  0.37645643277E+03  0.37645643278E+03  0.26000000000E-02 0. -1.
         -2   -1    0    0    0  501 -0.00000000000E+00 -0.00000000000E+00 -0.56296177316E+01  0.56296183320E+01  0.26000000000E-02 0.  1.
         23    2    1    2    0    0  0.00000000000E+00  0.00000000000E+00  0.37082681504E+03  0.38208605112E+03  0.92071839897E+02 0.  0.
        -11    1    3    3    0    0 -0.26167086891E+02  0.37846604155E+02  0.17922461480E+03  0.18503660295E+03  0.51100000000E-03 0. -1.
         11    1    3    3    0    0  0.26167086891E+02 -0.37846604155E+02  0.19160220025E+03  0.19704944817E+03  0.51100000000E-03 0.  1.
<mgrwt>
<rscale>  0 0.92071840E+02</rscale>
<asrwt>0</asrwt>
<pdfrwt beam="1">  1        2 0.57916385E-01 0.92071840E+02</pdfrwt>
<pdfrwt beam="2">  1       -2 0.86609492E-03 0.92071840E+02</pdfrwt>
<totfact> 0.19029818E+05</totfact>
</mgrwt>
</event>
<event>
 5    1  0.2799021E+000  0.8981742E+02  0.7818608E-02  0.1303294E+00
         -2   -1    0    0    0  501 -0.00000000000E+00  0.00000000000E+00  0.25129415514E+03  0.25129415516E+03  0.26000000000E-02 0.  1.
          2   -1    0    0  501    0  0.00000000000E+00 -0.00000000000E+00 -0.80256226249E+01  0.80256230460E+01  0.26000000000E-02 0. -1.
         23    2    1    2    0    0  0.00000000000E+00  0.00000000000E+00  0.24326853252E+03  0.25931977820E+03  0.89817417317E+02 0.  0.
        -11    1    3    3    0    0 -0.35349772108E+02  0.14498853111E+02  0.18977245486E+03  0.19358049425E+03  0.51100000000E-03 0.  1.
         11    1    3    3    0    0  0.35349772108E+02 -0.14498853111E+02  0.53496077655E+02  0.65739283951E+02  0.51100000000E-03 0. -1.
<mgrwt>
<rscale>  0 0.89817417E+02</rscale>
<asrwt>0</asrwt>
<pdfrwt beam="2">  1        2 0.12347111E-02 0.89817417E+02</pdfrwt>
<pdfrwt beam="1">  1       -2 0.38660644E-01 0.89817417E+02</pdfrwt>
<totfact> 0.58232799E+04</totfact>
</mgrwt>
</event>
<event>
 5    1  0.2799021E+000  0.9267084E+02  0.7818608E-02  0.1296510E+00
          2   -1    0    0  501    0  0.00000000000E+00  0.00000000000E+00  0.32986665731E+02  0.32986665834E+02  0.26000000000E-02 0. -1.
         -2   -1    0    0    0  501 -0.00000000000E+00 -0.00000000000E+00 -0.65086032247E+02  0.65086032299E+02  0.26000000000E-02 0.  1.
         23    2    1    2    0    0  0.00000000000E+00  0.00000000000E+00 -0.32099366516E+02  0.98072698133E+02  0.92670841090E+02 0.  0.
        -11    1    3    3    0    0  0.26917086962E+02  0.48451574152E+01  0.23533308003E+02  0.36080766438E+02  0.51100000000E-03 0. -1.
         11    1    3    3    0    0 -0.26917086962E+02 -0.48451574152E+01 -0.55632674518E+02  0.61991931695E+02  0.51100000000E-03 0.  1.
<mgrwt>
<rscale>  0 0.92670841E+02</rscale>
<asrwt>0</asrwt>
<pdfrwt beam="1">  1        2 0.50748717E-02 0.92670841E+02</pdfrwt>
<pdfrwt beam="2">  1       -2 0.10013236E-01 0.92670841E+02</pdfrwt>
<totfact> 0.86469411E+04</totfact>
</mgrwt>
</event>
<event>
 5    1  0.2799021E+000  0.8538451E+02  0.7818608E-02  0.1314430E+00
         -2   -1    0    0    0  501 -0.00000000000E+00  0.00000000000E+00  0.23922687660E+02  0.23922687801E+02  0.26000000000E-02 0.  1.
          2   -1    0    0  501    0  0.00000000000E+00 -0.00000000000E+00 -0.76188290501E+02  0.76188290545E+02  0.26000000000E-02 0. -1.
         23    2    1    2    0    0  0.00000000000E+00  0.00000000000E+00 -0.52265602841E+02  0.10011097835E+03  0.85384511154E+02 0.  0.
        -11    1    3    3    0    0  0.26542278985E+02 -0.98800418149E+01  0.11322522560E+02  0.30500939614E+02  0.51100000000E-03 0.  1.
         11    1    3    3    0    0 -0.26542278985E+02  0.98800418149E+01 -0.63588125401E+02  0.69610038732E+02  0.51100000000E-03 0. -1.
<mgrwt>
<rscale>  0 0.85384511E+02</rscale>
<asrwt>0</asrwt>
<pdfrwt beam="2">  1        2 0.11721275E-01 0.85384511E+02</pdfrwt>
<pdfrwt beam="1">  1       -2 0.36804135E-02 0.85384511E+02</pdfrwt>
<totfact> 0.13584760E+05</totfact>
</mgrwt>
</event>
<event>
 5    1  0.2799021E+000  0.9153731E+02  0.7818608E-02  0.1299171E+00
          2   -1    0    0  501    0  0.00000000000E+00  0.00000000000E+00  0.21295149006E+03  0.21295149008E+03  0.26000000000E-02 0. -1.
         -2   -1    0    0    0  501 -0.00000000000E+00 -0.00000000000E+00 -0.98368399258E+01  0.98368402694E+01  0.26000000000E-02 0.  1.
         23    2    1    2    0    0  0.00000000000E+00  0.00000000000E+00  0.20311465013E+03  0.22278833035E+03  0.91537309546E+02 0.  0.
        -11    1    3    3    0    0 -0.18093182530E+02  0.31709844942E+02  0.34377159462E+02  0.50146451652E+02  0.51100000000E-03 0.  1.
         11    1    3    3    0    0  0.18093182530E+02 -0.31709844942E+02  0.16873749067E+03  0.17264187869E+03  0.51100000000E-03 0. -1.
<mgrwt>
<rscale>  0 0.91537310E+02</rscale>
<asrwt>0</asrwt>
<pdfrwt beam="1">  1        2 0.32761764E-01 0.91537310E+02</pdfrwt>
<pdfrwt beam="2">  1       -2 0.15133602E-02 0.91537310E+02</pdfrwt>
<totfact> 0.15657430E+05</totfact>
</mgrwt>
</event>
<event>
 5    1  0.2799021E+000  0.9491866E+02  0.7818608E-02  0.1291359E+00
          2   -1    0    0  501    0  0.00000000000E+00  0.00000000000E+00  0.73982858539E+02  0.73982858585E+02  0.26000000000E-02 0. -1.
         -2   -1    0    0    0  501 -0.00000000000E+00 -0.00000000000E+00 -0.30444730616E+02  0.30444730727E+02  0.26000000000E-02 0.  1.
         23    2    1    2    0    0  0.00000000000E+00  0.00000000000E+00  0.43538127923E+02  0.10442758931E+03  0.94918664268E+02 0.  0.
        -11    1    3    3    0    0 -0.25981296018E+02 -0.39638455794E+02  0.24498149700E+02  0.53351609718E+02  0.51100000000E-03 0.  1.
         11    1    3    3    0    0  0.25981296018E+02  0.39638455794E+02  0.19039978223E+02  0.51075979594E+02  0.51100000000E-03 0. -1.
<mgrwt>
<rscale>  0 0.94918664E+02</rscale>
<asrwt>0</asrwt>
<pdfrwt beam="1">  1        2 0.11381978E-01 0.94918664E+02</pdfrwt>
<pdfrwt beam="2">  1       -2 0.46838047E-02 0.94918664E+02</pdfrwt>
<totfact> 0.10036785E+05</totfact>
</mgrwt>
</event>
<event>
 5    1  0.2799021E+000  0.9255641E+02  0.7818608E-02  0.1296776E+00
         -2   -1    0    0    0  501 -0.00000000000E+00  0.00000000000E+00  0.47749007991E+02  0.47749008062E+02  0.26000000000E-02 0.  1.
          2   -1    0    0  501    0  0.00000000000E+00 -0.00000000000E+00 -0.44852706188E+02  0.44852706263E+02  0.26000000000E-02 0. -1.
         23    2    1    2    0    0  0.00000000000E+00  0.00000000000E+00  0.28963018038E+01  0.92601714325E+02  0.92556409458E+02 0.  0.
        -11    1    3    3    0    0 -0.84118767564E+01  0.45475720796E+02  0.31434950852E+01  0.46353882406E+02  0.51100000000E-03 0.  1.
         11    1    3    3    0    0  0.84118767564E+01 -0.45475720796E+02 -0.24719328140E+00  0.46247831920E+02  0.51100000000E-03 0. -1.
<mgrwt>
<rscale>  0 0.92556409E+02</rscale>
<asrwt>0</asrwt>
<pdfrwt beam="2">  1        2 0.69004163E-02 0.92556409E+02</pdfrwt>
<pdfrwt beam="1">  1       -2 0.73460013E-02 0.92556409E+02</pdfrwt>
<totfact> 0.94099677E+04</totfact>
</mgrwt>
</event>
<event>
 5    1  0.2799021E+000  0.9087420E+02  0.7818608E-02  0.1300748E+00
         -2   -1    0    0    0  501 -0.00000000000E+00  0.00000000000E+00  0.82488020565E+01  0.82488024663E+01  0.26000000000E-02 0.  1.
          2   -1    0    0  501    0  0.00000000000E+00 -0.00000000000E+00 -0.25028242165E+03  0.25028242167E+03  0.26000000000E-02 0. -1.
         23    2    1    2    0    0  0.00000000000E+00  0.00000000000E+00 -0.24203361960E+03  0.25853122413E+03  0.90874203362E+02 0.  0.
        -11    1    3    3    0    0 -0.38695832747E+02  0.14744335814E+02 -0.17422297849E+03  0.17907654549E+03  0.51100000000E-03 0. -1.
         11    1    3    3    0    0  0.38695832747E+02 -0.14744335814E+02 -0.67810641106E+02  0.79454678641E+02  0.51100000000E-03 0.  1.
<mgrwt>
<rscale>  0 0.90874203E+02</rscale>
<asrwt>0</asrwt>
<pdfrwt beam="2">  1        2 0.38504982E-01 0.90874203E+02</pdfrwt>
<pdfrwt beam="1">  1       -2 0.12690467E-02 0.90874203E+02</pdfrwt>
<totfact> 0.16943209E+05</totfact>
</mgrwt>
</event>
<event>
 5    1  0.2799021E+000  0.9143022E+02  0.7818608E-02  0.1299425E+00
         -2   -1    0    0    0  501 -0.00000000000E+00  0.00000000000E+00  0.50939067554E+02  0.50939067620E+02  0.26000000000E-02 0.  1.
          2   -1    0    0  501    0  0.00000000000E+00 -0.00000000000E+00 -0.41026882183E+02  0.41026882265E+02  0.26000000000E-02 0. -1.
         23    2    1    2    0    0  0.00000000000E+00  0.00000000000E+00  0.99121853707E+01  0.91965949885E+02  0.91430216665E+02 0.  0.
        -11    1    3    3    0    0 -0.25898009044E+02  0.16490638045E+02  0.39025239377E+02  0.49654982874E+02  0.51100000000E-03 0.  1.
         11    1    3    3    0    0  0.25898009044E+02 -0.16490638045E+02 -0.29113054006E+02  0.42310967011E+02  0.51100000000E-03 0. -1.
<mgrwt>
<rscale>  0 0.91430217E+02</rscale>
<asrwt>0</asrwt>
<pdfrwt beam="2">  1        2 0.63118280E-02 0.91430217E+02</pdfrwt>
<pdfrwt beam="1">  1       -2 0.78367797E-02 0.91430217E+02</pdfrwt>
<totfact> 0.95247973E+04</totfact>
</mgrwt>
</event>
<event>
 5    1  0.2799021E+000  0.7425125E+02  0.7818608E-02  0.1346205E+00
          2   -1    0    0  501    0  0.00000000000E+00  0.00000000000E+00  0.11968572621E+02  0.11968572904E+02  0.26000000000E-02 0.  1.
         -2   -1    0    0    0  501 -0.00000000000E+00 -0.00000000000E+00 -0.11516095022E+03  0.11516095025E+03  0.26000000000E-02 0. -1.
         23    2    1    2    0    0  0.00000000000E+00  0.00000000000E+00 -0.10319237760E+03  0.12712952315E+03  0.74251254956E+02 0.  0.
        -11    1    3    3    0    0 -0.31463953371E+02  0.15238892979E+02 -0.72988376072E+02  0.80929026083E+02  0.51100000000E-03 0.  1.
         11    1    3    3    0    0  0.31463953371E+02 -0.15238892979E+02 -0.30204001525E+02  0.46200497068E+02  0.51100000000E-03 0. -1.
<mgrwt>
<rscale>  0 0.74251255E+02</rscale>
<asrwt>0</asrwt>
<pdfrwt beam="1">  1        2 0.18413190E-02 0.74251255E+02</pdfrwt>
<pdfrwt beam="2">  1       -2 0.17717069E-01 0.74251255E+02</pdfrwt>
<totfact> 0.12776803E+05</totfact>
</mgrwt>
</event>
<event>
 5    1  0.2799021E+000  0.7997104E+02  0.7818608E-02  0.1329134E+00
          2   -1    0    0  501    0  0.00000000000E+00  0.00000000000E+00  0.39517398894E+03  0.39517398895E+03  0.26000000000E-02 0. -1.
         -2   -1    0    0    0  501 -0.00000000000E+00 -0.00000000000E+00 -0.40459181065E+01  0.40459189419E+01  0.26000000000E-02 0.  1.
         23    2    1    2    0    0  0.00000000000E+00  0.00000000000E+00  0.39112807084E+03  0.39921990789E+03  0.79971038897E+02 0.  0.
        -11    1    3    3    0    0  0.38431487984E+02  0.10141903835E+02  0.17380171506E+03  0.17828873672E+03  0.51100000000E-03 0.  1.
         11    1    3    3    0    0 -0.38431487984E+02 -0.10141903835E+02  0.21732635577E+03  0.22093117117E+03  0.51100000000E-03 0. -1.
<mgrwt>
<rscale>  0 0.79971039E+02</rscale>
<asrwt>0</asrwt>
<pdfrwt beam="1">  1        2 0.60795979E-01 0.79971039E+02</pdfrwt>
<pdfrwt beam="2">  1       -2 0.62244920E-03 0.79971039E+02</pdfrwt>
<totfact> 0.28084191E+05</totfact>
</mgrwt>
</event>
<event>
 5    1  0.2799021E+000  0.9190329E+02  0.7818608E-02  0.1298307E+00
          2   -1    0    0  501    0  0.00000000000E+00  0.00000000000E+00  0.17012359984E+03  0.17012359986E+03  0.26000000000E-02 0. -1.
         -2   -1    0    0    0  501 -0.00000000000E+00 -0.00000000000E+00 -0.12411879062E+02  0.12411879335E+02  0.26000000000E-02 0.  1.
         23    2    1    2    0    0  0.00000000000E+00  0.00000000000E+00  0.15771172078E+03  0.18253547920E+03  0.91903287722E+02 0.  0.
        -11    1    3    3    0    0  0.31515127787E+02  0.24478656406E+02  0.33601455082E+02  0.52167668942E+02  0.51100000000E-03 0.  1.
         11    1    3    3    0    0 -0.31515127787E+02 -0.24478656406E+02  0.12411026570E+03  0.13036781025E+03  0.51100000000E-03 0. -1.
<mgrwt>
<rscale>  0 0.91903288E+02</rscale>
<asrwt>0</asrwt>
<pdfrwt beam="1">  1        2 0.26172860E-01 0.91903288E+02</pdfrwt>
<pdfrwt beam="2">  1       -2 0.19095200E-02 0.91903288E+02</pdfrwt>
<totfact> 0.14291174E+05</totfact>
</mgrwt>
</event>
<event>
 5    1  0.2799021E+000  0.7987942E+02  0.7818608E-02  0.1329394E+00
         -2   -1    0    0    0  501 -0.00000000000E+00  0.00000000000E+00  0.13120231156E+02  0.13120231414E+02  0.26000000000E-02 0. -1.
          2   -1    0    0  501    0  0.00000000000E+00 -0.00000000000E+00 -0.12158172556E+03  0.12158172559E+03  0.26000000000E-02 0.  1.
         23    2    1    2    0    0  0.00000000000E+00  0.00000000000E+00 -0.10846149440E+03  0.13470195700E+03  0.79879418198E+02 0.  0.
        -11    1    3    3    0    0 -0.22838542360E+01  0.27103996658E+02 -0.10354901666E+03  0.10706185818E+03  0.51100000000E-03 0.  1.
         11    1    3    3    0    0  0.22838542360E+01 -0.27103996658E+02 -0.49124777412E+01  0.27640098821E+02  0.51100000000E-03 0. -1.
<mgrwt>
<rscale>  0 0.79879418E+02</rscale>
<asrwt>0</asrwt>
<pdfrwt beam="2">  1        2 0.18704880E-01 0.79879418E+02</pdfrwt>
<pdfrwt beam="1">  1       -2 0.20184972E-02 0.79879418E+02</pdfrwt>
<totfact> 0.18656445E+05</totfact>
</mgrwt>
</event>
<event>
 5    1  0.2799021E+000  0.8478698E+02  0.7818608E-02  0.1315991E+00
          2   -1    0    0  501    0  0.00000000000E+00  0.00000000000E+00  0.15137582363E+03  0.15137582365E+03  0.26000000000E-02 0. -1.
         -2   -1    0    0    0  501 -0.00000000000E+00 -0.00000000000E+00 -0.11872490096E+02  0.11872490381E+02  0.26000000000E-02 0.  1.
         23    2    1    2    0    0  0.00000000000E+00  0.00000000000E+00  0.13950333353E+03  0.16324831403E+03  0.84786979941E+02 0.  0.
        -11    1    3    3    0    0  0.12695077250E+02 -0.23344692806E+02  0.61533660271E+01  0.27276429061E+02  0.51100000000E-03 0.  1.
         11    1    3    3    0    0 -0.12695077250E+02  0.23344692806E+02  0.13334996750E+03  0.13597188497E+03  0.51100000000E-03 0. -1.
<mgrwt>
<rscale>  0 0.84786980E+02</rscale>
<asrwt>0</asrwt>
<pdfrwt beam="1">  1        2 0.23288590E-01 0.84786980E+02</pdfrwt>
<pdfrwt beam="2">  1       -2 0.18265368E-02 0.84786980E+02</pdfrwt>
<totfact> 0.17062827E+05</totfact>
</mgrwt>
</event>
<event>
 5    1  0.2799021E+000  0.9186371E+02  0.7818608E-02  0.1298400E+00
          2   -1    0    0  501    0  0.00000000000E+00  0.00000000000E+00  0.16091778516E+03  0.16091778518E+03  0.26000000000E-02 0. -1.
         -2   -1    0    0    0  501 -0.00000000000E+00 -0.00000000000E+00 -0.13110640301E+02  0.13110640559E+02  0.26000000000E-02 0.  1.
         23    2    1    2    0    0  0.00000000000E+00  0.00000000000E+00  0.14780714485E+03  0.17402842574E+03  0.91863708254E+02 0.  0.
        -11    1    3    3    0    0  0.14798494864E+01  0.36605397139E+02  0.21417881227E+02  0.42436666820E+02  0.51100000000E-03 0.  1.
         11    1    3    3    0    0 -0.14798494864E+01 -0.36605397139E+02  0.12638926363E+03  0.13159175892E+03  0.51100000000E-03 0. -1.
<mgrwt>
<rscale>  0 0.91863708E+02</rscale>
<asrwt>0</asrwt>
<pdfrwt beam="1">  1        2 0.24756581E-01 0.91863708E+02</pdfrwt>
<pdfrwt beam="2">  1       -2 0.20170217E-02 0.91863708E+02</pdfrwt>
<totfact> 0.14033354E+05</totfact>
</mgrwt>
</event>
<event>
 5    1  0.2799021E+000  0.9136302E+02  0.7818608E-02  0.1299584E+00
          2   -1    0    0  501    0  0.00000000000E+00  0.00000000000E+00  0.53147971736E+02  0.53147971800E+02  0.26000000000E-02 0. -1.
         -2   -1    0    0    0  501 -0.00000000000E+00 -0.00000000000E+00 -0.39263967964E+02  0.39263968050E+02  0.26000000000E-02 0.  1.
         23    2    1    2    0    0  0.00000000000E+00  0.00000000000E+00  0.13884003772E+02  0.92411939850E+02  0.91363018044E+02 0.  0.
        -11    1    3    3    0    0  0.15054067152E+02 -0.42991922051E+02  0.34571654229E+01  0.45682406815E+02  0.51100000000E-03 0. -1.
         11    1    3    3    0    0 -0.15054067152E+02  0.42991922051E+02  0.10426838349E+02  0.46729533035E+02  0.51100000000E-03 0.  1.
<mgrwt>
<rscale>  0 0.91363018E+02</rscale>
<asrwt>0</asrwt>
<pdfrwt beam="1">  1        2 0.81766110E-02 0.91363018E+02</pdfrwt>
<pdfrwt beam="2">  1       -2 0.60406105E-02 0.91363018E+02</pdfrwt>
<totfact> 0.10211466E+05</totfact>
</mgrwt>
</event>
<event>
 5    1  0.2799021E+000  0.9200035E+02  0.7818608E-02  0.1298079E+00
         -2   -1    0    0    0  501 -0.00000000000E+00  0.00000000000E+00  0.16891270816E+03  0.16891270818E+03  0.26000000000E-02 0.  1.
          2   -1    0    0  501    0  0.00000000000E+00 -0.00000000000E+00 -0.12527274798E+02  0.12527275068E+02  0.26000000000E-02 0. -1.
         23    2    1    2    0    0  0.00000000000E+00  0.00000000000E+00  0.15638543336E+03  0.18143998325E+03  0.92000346486E+02 0.  0.
        -11    1    3    3    0    0  0.19510377749E+02  0.32139335691E+02  0.25923827955E+02  0.45668770453E+02  0.51100000000E-03 0. -1.
         11    1    3    3    0    0 -0.19510377749E+02 -0.32139335691E+02  0.13046160541E+03  0.13577121280E+03  0.51100000000E-03 0.  1.
<mgrwt>
<rscale>  0 0.92000346E+02</rscale>
<asrwt>0</asrwt>
<pdfrwt beam="2">  1        2 0.19272731E-02 0.92000346E+02</pdfrwt>
<pdfrwt beam="1">  1       -2 0.25986570E-01 0.92000346E+02</pdfrwt>
<totfact> 0.65290252E+04</totfact>
</mgrwt>
</event>
<event>
 5    1  0.2799021E+000  0.9268421E+02  0.7818608E-02  0.1296479E+00
         -2   -1    0    0    0  501 -0.00000000000E+00  0.00000000000E+00  0.11253052695E+03  0.11253052698E+03  0.26000000000E-02 0.  1.
          2   -1    0    0  501    0  0.00000000000E+00 -0.00000000000E+00 -0.19084516420E+02  0.19084516597E+02  0.26000000000E-02 0. -1.
         23    2    1    2    0    0  0.00000000000E+00  0.00000000000E+00  0.93446010532E+02  0.13161504358E+03  0.92684210154E+02 0.  0.
        -11    1    3    3    0    0 -0.40320746375E+02 -0.19397612466E+02  0.63855551548E+02  0.77971542381E+02  0.51100000000E-03 0.  1.
         11    1    3    3    0    0  0.40320746375E+02  0.19397612466E+02  0.29590458985E+02  0.53643501198E+02  0.51100000000E-03 0. -1.
<mgrwt>
<rscale>  0 0.92684210E+02</rscale>
<asrwt>0</asrwt>
<pdfrwt beam="2">  1        2 0.29360795E-02 0.92684210E+02</pdfrwt>
<pdfrwt beam="1">  1       -2 0.17312389E-01 0.92684210E+02</pdfrwt>
<totfact> 0.73879089E+04</totfact>
</mgrwt>
</event>
<event>
 5    1  0.2799021E+000  0.9169655E+02  0.7818608E-02  0.1298794E+00
          2   -1    0    0  501    0  0.00000000000E+00  0.00000000000E+00  0.50406036377E+01  0.50406043083E+01  0.26000000000E-02 0. -1.
         -2   -1    0    0    0  501 -0.00000000000E+00 -0.00000000000E+00 -0.41702631534E+03  0.41702631534E+03  0.26000000000E-02 0.  1.
         23    2    1    2    0    0  0.00000000000E+00  0.00000000000E+00 -0.41198571170E+03  0.42206691965E+03  0.91696554032E+02 0.  0.
        -11    1    3    3    0    0 -0.10015579425E+02 -0.44669165262E+02 -0.19433174423E+03  0.19965087771E+03  0.51100000000E-03 0.  1.
         11    1    3    3    0    0  0.10015579425E+02  0.44669165262E+02 -0.21765396747E+03  0.22241604194E+03  0.51100000000E-03 0. -1.
<mgrwt>
<rscale>  0 0.91696554E+02</rscale>
<asrwt>0</asrwt>
<pdfrwt beam="1">  1        2 0.77547786E-03 0.91696554E+02</pdfrwt>
<pdfrwt beam="2">  1       -2 0.64157868E-01 0.91696554E+02</pdfrwt>
<totfact> 0.40883908E+04</totfact>
</mgrwt>
</event>
<event>
 5    1  0.2799021E+000  0.9371040E+02  0.7818608E-02  0.1294107E+00
          2   -1    0    0  501    0  0.00000000000E+00  0.00000000000E+00  0.11024706228E+03  0.11024706231E+03  0.26000000000E-02 0. -1.
         -2   -1    0    0    0  501 -0.00000000000E+00 -0.00000000000E+00 -0.19913543707E+02  0.19913543877E+02  0.26000000000E-02 0.  1.
         23    2    1    2    0    0  0.00000000000E+00  0.00000000000E+00  0.90333518571E+02  0.13016060619E+03  0.93710398704E+02 0.  0.
        -11    1    3    3    0    0  0.44683915145E+01 -0.34062162441E+02  0.91095818364E+00  0.34366077431E+02  0.51100000000E-03 0.  1.
         11    1    3    3    0    0 -0.44683915145E+01  0.34062162441E+02  0.89422560387E+02  0.95794528755E+02  0.51100000000E-03 0. -1.
<mgrwt>
<rscale>  0 0.93710399E+02</rscale>
<asrwt>0</asrwt>
<pdfrwt beam="1">  1        2 0.16961087E-01 0.93710399E+02</pdfrwt>
<pdfrwt beam="2">  1       -2 0.30636221E-02 0.93710399E+02</pdfrwt>
<totfact> 0.11724654E+05</totfact>
</mgrwt>
</event>
<event>
 5    1  0.2799021E+000  0.9183811E+02  0.7818608E-02  0.1298461E+00
          2   -1    0    0  501    0  0.00000000000E+00  0.00000000000E+00  0.10008613171E+03  0.10008613174E+03  0.26000000000E-02 0. -1.
         -2   -1    0    0    0  501 -0.00000000000E+00 -0.00000000000E+00 -0.21067448867E+02  0.21067449028E+02  0.26000000000E-02 0.  1.
         23    2    1    2    0    0  0.00000000000E+00  0.00000000000E+00  0.79018682842E+02  0.12115358077E+03  0.91838106990E+02 0.  0.
        -11    1    3    3    0    0 -0.35519788932E+02  0.29025194000E+02  0.42289768191E+02  0.62390237910E+02  0.51100000000E-03 0.  1.
         11    1    3    3    0    0  0.35519788932E+02 -0.29025194000E+02  0.36728914651E+02  0.58763342861E+02  0.51100000000E-03 0. -1.
<mgrwt>
<rscale>  0 0.91838107E+02</rscale>
<asrwt>0</asrwt>
<pdfrwt beam="1">  1        2 0.15397867E-01 0.91838107E+02</pdfrwt>
<pdfrwt beam="2">  1       -2 0.32411460E-02 0.91838107E+02</pdfrwt>
<totfact> 0.12028788E+05</totfact>
</mgrwt>
</event>
<event>
 5    1  0.2799021E+000  0.9038426E+02  0.7818608E-02  0.1301924E+00
          2   -1    0    0  501    0  0.00000000000E+00  0.00000000000E+00  0.14999027840E+03  0.14999027842E+03  0.26000000000E-02 0.  1.
         -2   -1    0    0    0  501 -0.00000000000E+00 -0.00000000000E+00 -0.13616405064E+02  0.13616405312E+02  0.26000000000E-02 0. -1.
         23    2    1    2    0    0  0.00000000000E+00  0.00000000000E+00  0.13637387333E+03  0.16360668373E+03  0.90384255453E+02 0.  0.
        -11    1    3    3    0    0  0.31134042395E+02  0.32432786639E+02  0.76504482321E+02  0.88736407751E+02  0.51100000000E-03 0. -1.
         11    1    3    3    0    0 -0.31134042395E+02 -0.32432786639E+02  0.59869391010E+02  0.74870275979E+02  0.51100000000E-03 0.  1.
<mgrwt>
<rscale>  0 0.90384255E+02</rscale>
<asrwt>0</asrwt>
<pdfrwt beam="1">  1        2 0.23075426E-01 0.90384255E+02</pdfrwt>
<pdfrwt beam="2">  1       -2 0.20948317E-02 0.90384255E+02</pdfrwt>
<totfact> 0.14315536E+05</totfact>
</mgrwt>
</event>
<event>
 5    1  0.2799021E+000  0.8167143E+02  0.7818608E-02  0.1324374E+00
         -2   -1    0    0    0  501 -0.00000000000E+00  0.00000000000E+00  0.64444265688E+01  0.64444270933E+01  0.26000000000E-02 0.  1.
          2   -1    0    0  501    0  0.00000000000E+00 -0.00000000000E+00 -0.25875935892E+03  0.25875935894E+03  0.26000000000E-02 0. -1.
         23    2    1    2    0    0  0.00000000000E+00  0.00000000000E+00 -0.25231493236E+03  0.26520378603E+03  0.81671433411E+02 0.  0.
        -11    1    3    3    0    0  0.52344533230E+01 -0.33392955199E+02 -0.51749947646E+02  0.61810565764E+02  0.51100000000E-03 0.  1.
         11    1    3    3    0    0 -0.52344533230E+01  0.33392955199E+02 -0.20056498471E+03  0.20339322027E+03  0.51100000000E-03 0. -1.
<mgrwt>
<rscale>  0 0.81671433E+02</rscale>
<asrwt>0</asrwt>
<pdfrwt beam="2">  1        2 0.39809124E-01 0.81671433E+02</pdfrwt>
<pdfrwt beam="1">  1       -2 0.99145048E-03 0.81671433E+02</pdfrwt>
<totfact> 0.22782631E+05</totfact>
</mgrwt>
</event>
<event>
 5    1  0.2799021E+000  0.9064390E+02  0.7818608E-02  0.1301300E+00
         -2   -1    0    0    0  501 -0.00000000000E+00  0.00000000000E+00  0.72877307484E+01  0.72877312122E+01  0.26000000000E-02 0.  1.
          2   -1    0    0  501    0  0.00000000000E+00 -0.00000000000E+00 -0.28185441831E+03  0.28185441832E+03  0.26000000000E-02 0. -1.
         23    2    1    2    0    0  0.00000000000E+00  0.00000000000E+00 -0.27456668756E+03  0.28914214953E+03  0.90643900615E+02 0.  0.
        -11    1    3    3    0    0 -0.42336329099E+02  0.10073098887E+02 -0.96903195979E+02  0.10622646315E+03  0.51100000000E-03 0. -1.
         11    1    3    3    0    0  0.42336329099E+02 -0.10073098887E+02 -0.17766349158E+03  0.18291568638E+03  0.51100000000E-03 0.  1.
<mgrwt>
<rscale>  0 0.90643901E+02</rscale>
<asrwt>0</asrwt>
<pdfrwt beam="2">  1        2 0.43362210E-01 0.90643901E+02</pdfrwt>
<pdfrwt beam="1">  1       -2 0.11211896E-02 0.90643901E+02</pdfrwt>
<totfact> 0.17829762E+05</totfact>
</mgrwt>
</event>
<event>
 5    1  0.2799021E+000  0.8291594E+02  0.7818608E-02  0.1320974E+00
         -2   -1    0    0    0  501 -0.00000000000E+00  0.00000000000E+00  0.32388312430E+02  0.32388312534E+02  0.26000000000E-02 0. -1.
          2   -1    0    0  501    0  0.00000000000E+00 -0.00000000000E+00 -0.53067386860E+02  0.53067386923E+02  0.26000000000E-02 0.  1.
         23    2    1    2    0    0  0.00000000000E+00  0.00000000000E+00 -0.20679074430E+02  0.85455699458E+02  0.82915936047E+02 0.  0.
        -11    1    3    3    0    0  0.14276336835E+02  0.23274075085E+02 -0.42492349737E+02  0.50508377037E+02  0.51100000000E-03 0.  1.
         11    1    3    3    0    0 -0.14276336835E+02 -0.23274075085E+02  0.21813275308E+02  0.34947322421E+02  0.51100000000E-03 0. -1.
<mgrwt>
<rscale>  0 0.82915936E+02</rscale>
<asrwt>0</asrwt>
<pdfrwt beam="2">  1        2 0.81642133E-02 0.82915936E+02</pdfrwt>
<pdfrwt beam="1">  1       -2 0.49828173E-02 0.82915936E+02</pdfrwt>
<totfact> 0.13412384E+05</totfact>
</mgrwt>
</event>
<event>
 5    1  0.2799021E+000  0.9187883E+02  0.7818608E-02  0.1298365E+00
          2   -1    0    0  501    0  0.00000000000E+00  0.00000000000E+00  0.16176388815E+03  0.16176388817E+03  0.26000000000E-02 0. -1.
         -2   -1    0    0    0  501 -0.00000000000E+00 -0.00000000000E+00 -0.13046359575E+02  0.13046359834E+02  0.26000000000E-02 0.  1.
         23    2    1    2    0    0  0.00000000000E+00  0.00000000000E+00  0.14871752857E+03  0.17481024800E+03  0.91878830542E+02 0.  0.
        -11    1    3    3    0    0 -0.11516427740E+02  0.29312565723E+02  0.10725524585E+02  0.33269978885E+02  0.51100000000E-03 0.  1.
         11    1    3    3    0    0  0.11516427740E+02 -0.29312565723E+02  0.13799200398E+03  0.14154026912E+03  0.51100000000E-03 0. -1.
<mgrwt>
<rscale>  0 0.91878831E+02</rscale>
<asrwt>0</asrwt>
<pdfrwt beam="1">  1        2 0.24886752E-01 0.91878831E+02</pdfrwt>
<pdfrwt beam="2">  1       -2 0.20071323E-02 0.91878831E+02</pdfrwt>
<totfact> 0.14052597E+05</totfact>
</mgrwt>
</event>
<event>
 5    1  0.2799021E+000  0.9283657E+02  0.7818608E-02  0.1296124E+00
          2   -1    0    0  501    0  0.00000000000E+00  0.00000000000E+00  0.13322787071E+02  0.13322787325E+02  0.26000000000E-02 0. -1.
         -2   -1    0    0    0  501 -0.00000000000E+00 -0.00000000000E+00 -0.16172721777E+03  0.16172721779E+03  0.26000000000E-02 0.  1.
         23    2    1    2    0    0  0.00000000000E+00  0.00000000000E+00 -0.14840443070E+03  0.17505000511E+03  0.92836572750E+02 0.  0.
        -11    1    3    3    0    0 -0.37247657675E+02 -0.30414212677E+01 -0.12611604799E+03  0.13153667096E+03  0.51100000000E-03 0.  1.
         11    1    3    3    0    0  0.37247657675E+02  0.30414212677E+01 -0.22288382710E+02  0.43513334160E+02  0.51100000000E-03 0. -1.
<mgrwt>
<rscale>  0 0.92836573E+02</rscale>
<asrwt>0</asrwt>
<pdfrwt beam="1">  1        2 0.20496597E-02 0.92836573E+02</pdfrwt>
<pdfrwt beam="2">  1       -2 0.24881109E-01 0.92836573E+02</pdfrwt>
<totfact> 0.64885027E+04</totfact>
</mgrwt>
</event>
<event>
 5    1  0.2799021E+000  0.8933692E+02  0.7818608E-02  0.1304465E+00
         -2   -1    0    0    0  501 -0.00000000000E+00  0.00000000000E+00  0.12821557645E+03  0.12821557647E+03  0.26000000000E-02 0.  1.
          2   -1    0    0  501    0  0.00000000000E+00 -0.00000000000E+00 -0.15561849458E+02  0.15561849675E+02  0.26000000000E-02 0. -1.
         23    2    1    2    0    0  0.00000000000E+00  0.00000000000E+00  0.11265372699E+03  0.14377742615E+03  0.89336924423E+02 0.  0.
        -11    1    3    3    0    0 -0.80504182833E+01 -0.33831820447E+02  0.11210392695E+02  0.36538667380E+02  0.51100000000E-03 0. -1.
         11    1    3    3    0    0  0.80504182833E+01  0.33831820447E+02  0.10144333429E+03  0.10723875877E+03  0.51100000000E-03 0.  1.
<mgrwt>
<rscale>  0 0.89336924E+02</rscale>
<asrwt>0</asrwt>
<pdfrwt beam="2">  1        2 0.23941307E-02 0.89336924E+02</pdfrwt>
<pdfrwt beam="1">  1       -2 0.19725473E-01 0.89336924E+02</pdfrwt>
<totfact> 0.77670992E+04</totfact>
</mgrwt>
</event>
<event>
 5    1  0.2799021E+000  0.9190546E+02  0.7818608E-02  0.1298302E+00
         -2   -1    0    0    0  501 -0.00000000000E+00  0.00000000000E+00  0.19103322433E+02  0.19103322610E+02  0.26000000000E-02 0.  1.
          2   -1    0    0  501    0  0.00000000000E+00 -0.00000000000E+00 -0.11053853655E+03  0.11053853658E+03  0.26000000000E-02 0. -1.
         23    2    1    2    0    0  0.00000000000E+00  0.00000000000E+00 -0.91435214112E+02  0.12964185919E+03  0.91905458345E+02 0.  0.
        -11    1    3    3    0    0 -0.28294419161E+02 -0.36170596949E+02 -0.43371138675E+02  0.63165986968E+02  0.51100000000E-03 0. -1.
         11    1    3    3    0    0  0.28294419161E+02  0.36170596949E+02 -0.48064075437E+02  0.66475872219E+02  0.51100000000E-03 0.  1.
<mgrwt>
<rscale>  0 0.91905458E+02</rscale>
<asrwt>0</asrwt>
<pdfrwt beam="2">  1        2 0.17005928E-01 0.91905458E+02</pdfrwt>
<pdfrwt beam="1">  1       -2 0.29389728E-02 0.91905458E+02</pdfrwt>
<totfact> 0.12379528E+05</totfact>
</mgrwt>
</event>
<event>
 5    1  0.2799021E+000  0.1125899E+03  0.7818608E-02  0.1255848E+00
          2   -1    0    0  501    0  0.00000000000E+00  0.00000000000E+00  0.22121735770E+03  0.22121735772E+03  0.26000000000E-02 0. -1.
         -2   -1    0    0    0  501 -0.00000000000E+00 -0.00000000000E+00 -0.14325831665E+02  0.14325831901E+02  0.26000000000E-02 0.  1.
         23    2    1    2    0    0  0.00000000000E+00  0.00000000000E+00  0.20689152604E+03  0.23554318962E+03  0.11258992242E+03 0.  0.
        -11    1    3    3    0    0 -0.30295917909E+02 -0.19289770763E+02  0.12756520878E+02  0.38113865236E+02  0.51100000000E-03 0.  1.
         11    1    3    3    0    0  0.30295917909E+02  0.19289770763E+02  0.19413500516E+03  0.19742932438E+03  0.51100000000E-03 0. -1.
<mgrwt>
<rscale>  0 0.11258992E+03</rscale>
<asrwt>0</asrwt>
<pdfrwt beam="1">  1        2 0.34033438E-01 0.11258992E+03</pdfrwt>
<pdfrwt beam="2">  1       -2 0.22039742E-02 0.11258992E+03</pdfrwt>
<totfact> 0.90384657E+04</totfact>
</mgrwt>
</event>
<event>
 5    1  0.2799021E+000  0.9291636E+02  0.7818608E-02  0.1295939E+00
         -2   -1    0    0    0  501 -0.00000000000E+00  0.00000000000E+00  0.12810883823E+02  0.12810884087E+02  0.26000000000E-02 0.  1.
          2   -1    0    0  501    0  0.00000000000E+00 -0.00000000000E+00 -0.16847881517E+03  0.16847881519E+03  0.26000000000E-02 0. -1.
         23    2    1    2    0    0  0.00000000000E+00  0.00000000000E+00 -0.15566793135E+03  0.18128969928E+03  0.92916361391E+02 0.  0.
        -11    1    3    3    0    0  0.70094355119E+01  0.29813835578E+02 -0.96745422084E+01  0.32118433108E+02  0.51100000000E-03 0.  1.
         11    1    3    3    0    0 -0.70094355119E+01 -0.29813835578E+02 -0.14599338914E+03  0.14917126617E+03  0.51100000000E-03 0. -1.
<mgrwt>
<rscale>  0 0.92916361E+02</rscale>
<asrwt>0</asrwt>
<pdfrwt beam="2">  1        2 0.25919816E-01 0.92916361E+02</pdfrwt>
<pdfrwt beam="1">  1       -2 0.19709053E-02 0.92916361E+02</pdfrwt>
<totfact> 0.13825556E+05</totfact>
</mgrwt>
</event>
<event>
 5    1  0.2799021E+000  0.8341327E+02  0.7818608E-02  0.1319635E+00
         -2   -1    0    0    0  501 -0.00000000000E+00  0.00000000000E+00  0.93397454745E+01  0.93397458364E+01  0.26000000000E-02 0.  1.
          2   -1    0    0  501    0  0.00000000000E+00 -0.00000000000E+00 -0.18624099872E+03  0.18624099874E+03  0.26000000000E-02 0. -1.
         23    2    1    2    0    0  0.00000000000E+00  0.00000000000E+00 -0.17690125325E+03  0.19558074458E+03  0.83413273816E+02 0.  0.
        -11    1    3    3    0    0  0.28580073198E+02 -0.27440287103E+01 -0.17521663286E+02  0.33635679897E+02  0.51100000000E-03 0.  1.
         11    1    3    3    0    0 -0.28580073198E+02  0.27440287103E+01 -0.15937958996E+03  0.16194506468E+03  0.51100000000E-03 0. -1.
<mgrwt>
<rscale>  0 0.83413274E+02</rscale>
<asrwt>0</asrwt>
<pdfrwt beam="2">  1        2 0.28652459E-01 0.83413274E+02</pdfrwt>
<pdfrwt beam="1">  1       -2 0.14368841E-02 0.83413274E+02</pdfrwt>
<totfact> 0.19139635E+05</totfact>
</mgrwt>
</event>
<event>
 5    1  0.2799021E+000  0.9171782E+02  0.7818608E-02  0.1298744E+00
         -2   -1    0    0    0  501 -0.00000000000E+00  0.00000000000E+00  0.84039835531E+02  0.84039835571E+02  0.26000000000E-02 0.  1.
          2   -1    0    0  501    0  0.00000000000E+00 -0.00000000000E+00 -0.25024317532E+02  0.25024317668E+02  0.26000000000E-02 0. -1.
         23    2    1    2    0    0  0.00000000000E+00  0.00000000000E+00  0.59015517998E+02  0.10906415324E+03  0.91717818100E+02 0.  0.
        -11    1    3    3    0    0  0.23445615176E+02  0.10688241295E+02 -0.15602407751E+02  0.30122591205E+02  0.51100000000E-03 0. -1.
         11    1    3    3    0    0 -0.23445615176E+02 -0.10688241295E+02  0.74617925749E+02  0.78941562034E+02  0.51100000000E-03 0.  1.
<mgrwt>
<rscale>  0 0.91717818E+02</rscale>
<asrwt>0</asrwt>
<pdfrwt beam="2">  1        2 0.38498950E-02 0.91717818E+02</pdfrwt>
<pdfrwt beam="1">  1       -2 0.12929206E-01 0.91717818E+02</pdfrwt>
<totfact> 0.82705108E+04</totfact>
</mgrwt>
</event>
<event>
 5    1  0.2799021E+000  0.9059638E+02  0.7818608E-02  0.1301414E+00
          2   -1    0    0  501    0  0.00000000000E+00  0.00000000000E+00  0.11146300769E+03  0.11146300772E+03  0.26000000000E-02 0. -1.
         -2   -1    0    0    0  501 -0.00000000000E+00 -0.00000000000E+00 -0.18409032686E+02  0.18409032869E+02  0.26000000000E-02 0.  1.
         23    2    1    2    0    0  0.00000000000E+00  0.00000000000E+00  0.93053975005E+02  0.12987204059E+03  0.90596383277E+02 0.  0.
        -11    1    3    3    0    0  0.32992133782E+02  0.23187592431E+02  0.76106966184E+02  0.86130224871E+02  0.51100000000E-03 0. -1.
         11    1    3    3    0    0 -0.32992133782E+02 -0.23187592431E+02  0.16947008821E+02  0.43741815720E+02  0.51100000000E-03 0.  1.
<mgrwt>
<rscale>  0 0.90596383E+02</rscale>
<asrwt>0</asrwt>
<pdfrwt beam="1">  1        2 0.17148155E-01 0.90596383E+02</pdfrwt>
<pdfrwt beam="2">  1       -2 0.28321589E-02 0.90596383E+02</pdfrwt>
<totfact> 0.12910020E+05</totfact>
</mgrwt>
</event>
<event>
 5    1  0.2799021E+000  0.9257415E+02  0.7818608E-02  0.1296735E+00
          2   -1    0    0  501    0  0.00000000000E+00  0.00000000000E+00  0.19302949962E+03  0.19302949964E+03  0.26000000000E-02 0. -1.
         -2   -1    0    0    0  501 -0.00000000000E+00 -0.00000000000E+00 -0.11099305077E+02  0.11099305382E+02  0.26000000000E-02 0.  1.
         23    2    1    2    0    0  0.00000000000E+00  0.00000000000E+00  0.18193019454E+03  0.20412880502E+03  0.92574150561E+02 0.  0.
        -11    1    3    3    0    0  0.39269753785E+02 -0.40520702974E+01  0.37679934845E+02  0.54573897847E+02  0.51100000000E-03 0.  1.
         11    1    3    3    0    0 -0.39269753785E+02  0.40520702974E+01  0.14425025970E+03  0.14955490717E+03  0.51100000000E-03 0. -1.
<mgrwt>
<rscale>  0 0.92574151E+02</rscale>
<asrwt>0</asrwt>
<pdfrwt beam="1">  1        2 0.29696845E-01 0.92574151E+02</pdfrwt>
<pdfrwt beam="2">  1       -2 0.17075855E-02 0.92574151E+02</pdfrwt>
<totfact> 0.14657089E+05</totfact>
</mgrwt>
</event>
<event>
 5    1  0.2799021E+000  0.9309746E+02  0.7818608E-02  0.1295519E+00
         -2   -1    0    0    0  501 -0.00000000000E+00  0.00000000000E+00  0.45359163949E+02  0.45359164023E+02  0.26000000000E-02 0.  1.
          2   -1    0    0  501    0  0.00000000000E+00 -0.00000000000E+00 -0.47769489211E+02  0.47769489282E+02  0.26000000000E-02 0. -1.
         23    2    1    2    0    0  0.00000000000E+00  0.00000000000E+00 -0.24103252621E+01  0.93128653305E+02  0.93097456455E+02 0.  0.
        -11    1    3    3    0    0  0.26886844477E+01 -0.22660427893E+02  0.39380098899E+02  0.45513912224E+02  0.51100000000E-03 0.  1.
         11    1    3    3    0    0 -0.26886844477E+01  0.22660427893E+02 -0.41790424161E+02  0.47614741081E+02  0.51100000000E-03 0. -1.
<mgrwt>
<rscale>  0 0.93097456E+02</rscale>
<asrwt>0</asrwt>
<pdfrwt beam="2">  1        2 0.73491522E-02 0.93097456E+02</pdfrwt>
<pdfrwt beam="1">  1       -2 0.69783329E-02 0.93097456E+02</pdfrwt>
<totfact> 0.94081450E+04</totfact>
</mgrwt>
</event>
<event>
 5    1  0.2799021E+000  0.9154497E+02  0.7818608E-02  0.1299153E+00
          2   -1    0    0  501    0  0.00000000000E+00  0.00000000000E+00  0.79111650282E+02  0.79111650325E+02  0.26000000000E-02 0. -1.
         -2   -1    0    0    0  501 -0.00000000000E+00 -0.00000000000E+00 -0.26483084578E+02  0.26483084705E+02  0.26000000000E-02 0.  1.
         23    2    1    2    0    0  0.00000000000E+00  0.00000000000E+00  0.52628565705E+02  0.10559473503E+03  0.91544973308E+02 0.  0.
        -11    1    3    3    0    0 -0.27464906666E+02  0.11758176224E+02 -0.13685568896E+02  0.32861384672E+02  0.51100000000E-03 0.  1.
         11    1    3    3    0    0  0.27464906666E+02 -0.11758176224E+02  0.66314134601E+02  0.72733350358E+02  0.51100000000E-03 0. -1.
<mgrwt>
<rscale>  0 0.91544973E+02</rscale>
<asrwt>0</asrwt>
<pdfrwt beam="1">  1        2 0.12171023E-01 0.91544973E+02</pdfrwt>
<pdfrwt beam="2">  1       -2 0.40743207E-02 0.91544973E+02</pdfrwt>
<totfact> 0.11321268E+05</totfact>
</mgrwt>
</event>
<event>
 5    1  0.2799021E+000  0.9074374E+02  0.7818608E-02  0.1301061E+00
          2   -1    0    0  501    0  0.00000000000E+00  0.00000000000E+00  0.10677876656E+03  0.10677876659E+03  0.26000000000E-02 0. -1.
         -2   -1    0    0    0  501 -0.00000000000E+00 -0.00000000000E+00 -0.19279174688E+02  0.19279174863E+02  0.26000000000E-02 0.  1.
         23    2    1    2    0    0  0.00000000000E+00  0.00000000000E+00  0.87499591871E+02  0.12605794145E+03  0.90743738220E+02 0.  0.
        -11    1    3    3    0    0 -0.13836261740E+02 -0.20539824809E+02  0.96561421515E+02  0.99686682498E+02  0.51100000000E-03 0. -1.
         11    1    3    3    0    0  0.13836261740E+02  0.20539824809E+02 -0.90618296446E+01  0.26371258956E+02  0.51100000000E-03 0.  1.
<mgrwt>
<rscale>  0 0.90743738E+02</rscale>
<asrwt>0</asrwt>
<pdfrwt beam="1">  1        2 0.16427502E-01 0.90743738E+02</pdfrwt>
<pdfrwt beam="2">  1       -2 0.29660270E-02 0.90743738E+02</pdfrwt>
<totfact> 0.12682034E+05</totfact>
</mgrwt>
</event>
<event>
 5    1  0.2799021E+000  0.9471010E+02  0.7818608E-02  0.1291830E+00
          2   -1    0    0  501    0  0.00000000000E+00  0.00000000000E+00  0.38478552944E+03  0.38478552945E+03  0.26000000000E-02 0. -1.
         -2   -1    0    0    0  501 -0.00000000000E+00 -0.00000000000E+00 -0.58279233076E+01  0.58279238876E+01  0.26000000000E-02 0.  1.
         23    2    1    2    0    0  0.00000000000E+00  0.00000000000E+00  0.37895760614E+03  0.39061345334E+03  0.94710098099E+02 0.  0.
        -11    1    3    3    0    0  0.94932952535E+01 -0.42965662971E+02  0.26166356841E+03  0.26533750938E+03  0.51100000000E-03 0.  1.
         11    1    3    3    0    0 -0.94932952535E+01  0.42965662971E+02  0.11729403772E+03  0.12527594396E+03  0.51100000000E-03 0. -1.
<mgrwt>
<rscale>  0 0.94710098E+02</rscale>
<asrwt>0</asrwt>
<pdfrwt beam="1">  1        2 0.59197780E-01 0.94710098E+02</pdfrwt>
<pdfrwt beam="2">  1       -2 0.89660354E-03 0.94710098E+02</pdfrwt>
<totfact> 0.17790538E+05</totfact>
</mgrwt>
</event>
<event>
 5    1  0.2799021E+000  0.9307646E+02  0.7818608E-02  0.1295568E+00
         -2   -1    0    0    0  501 -0.00000000000E+00  0.00000000000E+00  0.16954609824E+02  0.16954610023E+02  0.26000000000E-02 0.  1.
          2   -1    0    0  501    0  0.00000000000E+00 -0.00000000000E+00 -0.12774146284E+03  0.12774146287E+03  0.26000000000E-02 0. -1.
         23    2    1    2    0    0  0.00000000000E+00  0.00000000000E+00 -0.11078685302E+03  0.14469607289E+03  0.93076456252E+02 0.  0.
        -11    1    3    3    0    0  0.37278495822E+02 -0.27066799064E+02 -0.65647714957E+02  0.80199253997E+02  0.51100000000E-03 0. -1.
         11    1    3    3    0    0 -0.37278495822E+02  0.27066799064E+02 -0.45139138060E+02  0.64496818894E+02  0.51100000000E-03 0.  1.
<mgrwt>
<rscale>  0 0.93076456E+02</rscale>
<asrwt>0</asrwt>
<pdfrwt beam="2">  1        2 0.19652532E-01 0.93076456E+02</pdfrwt>
<pdfrwt beam="1">  1       -2 0.26084016E-02 0.93076456E+02</pdfrwt>
<totfact> 0.12525338E+05</totfact>
</mgrwt>
</event>
<event>
 5    1  0.2799021E+000  0.9068301E+02  0.7818608E-02  0.1301206E+00
          2   -1    0    0  501    0  0.00000000000E+00  0.00000000000E+00  0.71473895415E+02  0.71473895463E+02  0.26000000000E-02 0. -1.
         -2   -1    0    0    0  501 -0.00000000000E+00 -0.00000000000E+00 -0.28763677580E+02  0.28763677698E+02  0.26000000000E-02 0.  1.
         23    2    1    2    0    0  0.00000000000E+00  0.00000000000E+00  0.42710217835E+02  0.10023757316E+03  0.90683010347E+02 0.  0.
        -11    1    3    3    0    0 -0.19105076271E+02  0.32438834650E+02 -0.65773342870E+01  0.38217054562E+02  0.51100000000E-03 0.  1.
         11    1    3    3    0    0  0.19105076271E+02 -0.32438834650E+02  0.49287552122E+02  0.62020518599E+02  0.51100000000E-03 0. -1.
<mgrwt>
<rscale>  0 0.90683010E+02</rscale>
<asrwt>0</asrwt>
<pdfrwt beam="1">  1        2 0.10995984E-01 0.90683010E+02</pdfrwt>
<pdfrwt beam="2">  1       -2 0.44251812E-02 0.90683010E+02</pdfrwt>
<totfact> 0.11296159E+05</totfact>
</mgrwt>
</event>
<event>
 5    1  0.2799021E+000  0.9169852E+02  0.7818608E-02  0.1298790E+00
         -2   -1    0    0    0  501 -0.00000000000E+00  0.00000000000E+00  0.94584100677E+02  0.94584100712E+02  0.26000000000E-02 0. -1.
          2   -1    0    0  501    0  0.00000000000E+00 -0.00000000000E+00 -0.22225244697E+02  0.22225244849E+02  0.26000000000E-02 0.  1.
         23    2    1    2    0    0  0.00000000000E+00  0.00000000000E+00  0.72358855979E+02  0.11680934556E+03  0.91698523281E+02 0.  0.
        -11    1    3    3    0    0  0.35537802194E+02  0.17246458471E+02  0.65293142369E+01  0.40037578089E+02  0.51100000000E-03 0.  1.
         11    1    3    3    0    0 -0.35537802194E+02 -0.17246458471E+02  0.65829541742E+02  0.76771767472E+02  0.51100000000E-03 0. -1.
<mgrwt>
<rscale>  0 0.91698523E+02</rscale>
<asrwt>0</asrwt>
<pdfrwt beam="2">  1        2 0.34192684E-02 0.91698523E+02</pdfrwt>
<pdfrwt beam="1">  1       -2 0.14551400E-01 0.91698523E+02</pdfrwt>
<totfact> 0.79987495E+04</totfact>
</mgrwt>
</event>
<event>
 5    1  0.2799021E+000  0.9295350E+02  0.7818608E-02  0.1295853E+00
         -2   -1    0    0    0  501 -0.00000000000E+00  0.00000000000E+00  0.38401101968E+02  0.38401102056E+02  0.26000000000E-02 0.  1.
          2   -1    0    0  501    0  0.00000000000E+00 -0.00000000000E+00 -0.56250685655E+02  0.56250685716E+02  0.26000000000E-02 0. -1.
         23    2    1    2    0    0  0.00000000000E+00  0.00000000000E+00 -0.17849583688E+02  0.94651787771E+02  0.92953500690E+02 0.  0.
        -11    1    3    3    0    0  0.42476525764E+02 -0.14224617548E+02  0.36908059654E+01  0.44946824518E+02  0.51100000000E-03 0. -1.
         11    1    3    3    0    0 -0.42476525764E+02  0.14224617548E+02 -0.21540389653E+02  0.49704963253E+02  0.51100000000E-03 0.  1.
<mgrwt>
<rscale>  0 0.92953501E+02</rscale>
<asrwt>0</asrwt>
<pdfrwt beam="2">  1        2 0.86539517E-02 0.92953501E+02</pdfrwt>
<pdfrwt beam="1">  1       -2 0.59078618E-02 0.92953501E+02</pdfrwt>
<totfact> 0.98701160E+04</totfact>
</mgrwt>
</event>
<event>
 5    1  0.2799021E+000  0.9155483E+02  0.7818608E-02  0.1299130E+00
         -2   -1    0    0    0  501 -0.00000000000E+00  0.00000000000E+00  0.32142133838E+03  0.32142133839E+03  0.26000000000E-02 0. -1.
          2   -1    0    0  501    0  0.00000000000E+00 -0.00000000000E+00 -0.65197030242E+01  0.65197035427E+01  0.26000000000E-02 0.  1.
         23    2    1    2    0    0  0.00000000000E+00  0.00000000000E+00  0.31490163535E+03  0.32794104193E+03  0.91554830754E+02 0.  0.
        -11    1    3    3    0    0 -0.39897019177E+02 -0.29055529406E+01  0.23717201769E+03  0.24052189163E+03  0.51100000000E-03 0. -1.
         11    1    3    3    0    0  0.39897019177E+02  0.29055529406E+01  0.77729617658E+02  0.87419150297E+02  0.51100000000E-03 0.  1.
<mgrwt>
<rscale>  0 0.91554831E+02</rscale>
<asrwt>0</asrwt>
<pdfrwt beam="2">  1        2 0.10030313E-02 0.91554831E+02</pdfrwt>
<pdfrwt beam="1">  1       -2 0.49449436E-01 0.91554831E+02</pdfrwt>
<totfact> 0.48497260E+04</totfact>
</mgrwt>
</event>
<event>
 5    1  0.2799021E+000  0.8973246E+02  0.7818608E-02  0.1303501E+00
          2   -1    0    0  501    0  0.00000000000E+00  0.00000000000E+00  0.79120736900E+01  0.79120741172E+01  0.26000000000E-02 0. -1.
         -2   -1    0    0    0  501 -0.00000000000E+00 -0.00000000000E+00 -0.25441856400E+03  0.25441856401E+03  0.26000000000E-02 0.  1.
         23    2    1    2    0    0  0.00000000000E+00  0.00000000000E+00 -0.24650649031E+03  0.26233063813E+03  0.89732457545E+02 0.  0.
        -11    1    3    3    0    0  0.18795190510E+02  0.33497662487E+02 -0.19103917333E+03  0.19486230607E+03  0.51100000000E-03 0.  1.
         11    1    3    3    0    0 -0.18795190510E+02 -0.33497662487E+02 -0.55467316980E+02  0.67468332065E+02  0.51100000000E-03 0. -1.
<mgrwt>
<rscale>  0 0.89732458E+02</rscale>
<asrwt>0</asrwt>
<pdfrwt beam="1">  1        2 0.12172423E-02 0.89732458E+02</pdfrwt>
<pdfrwt beam="2">  1       -2 0.39141311E-01 0.89732458E+02</pdfrwt>
<totfact> 0.58013336E+04</totfact>
</mgrwt>
</event>
<event>
 5    1  0.2799021E+000  0.9541683E+02  0.7818608E-02  0.1290240E+00
          2   -1    0    0  501    0  0.00000000000E+00  0.00000000000E+00  0.57273325556E+02  0.57273325615E+02  0.26000000000E-02 0. -1.
         -2   -1    0    0    0  501 -0.00000000000E+00 -0.00000000000E+00 -0.39740890292E+02  0.39740890377E+02  0.26000000000E-02 0.  1.
         23    2    1    2    0    0  0.00000000000E+00  0.00000000000E+00  0.17532435264E+02  0.97014215992E+02  0.95416831944E+02 0.  0.
        -11    1    3    3    0    0 -0.22333457572E+02  0.56201081069E+01  0.51247554783E+02  0.56184346697E+02  0.51100000000E-03 0. -1.
         11    1    3    3    0    0  0.22333457572E+02 -0.56201081069E+01 -0.33715119518E+02  0.40829869295E+02  0.51100000000E-03 0.  1.
<mgrwt>
<rscale>  0 0.95416832E+02</rscale>
<asrwt>0</asrwt>
<pdfrwt beam="1">  1        2 0.88112809E-02 0.95416832E+02</pdfrwt>
<pdfrwt beam="2">  1       -2 0.61139831E-02 0.95416832E+02</pdfrwt>
<totfact> 0.92062110E+04</totfact>
</mgrwt>
</event>
<event>
 5    1  0.2799021E+000  0.9346608E+02  0.7818608E-02  0.1294669E+00
         -2   -1    0    0    0  501 -0.00000000000E+00  0.00000000000E+00  0.34365189597E+03  0.34365189598E+03  0.26000000000E-02 0.  1.
          2   -1    0    0  501    0  0.00000000000E+00 -0.00000000000E+00 -0.63552011853E+01  0.63552017171E+01  0.26000000000E-02 0. -1.
         23    2    1    2    0    0  0.00000000000E+00  0.00000000000E+00  0.33729669479E+03  0.35000709770E+03  0.93466080080E+02 0.  0.
        -11    1    3    3    0    0  0.40912796034E+02  0.18957706020E+02  0.21462276521E+03  0.21930841945E+03  0.51100000000E-03 0.  1.
         11    1    3    3    0    0 -0.40912796034E+02 -0.18957706020E+02  0.12267392958E+03  0.13069867825E+03  0.51100000000E-03 0. -1.
<mgrwt>
<rscale>  0 0.93466080E+02</rscale>
<asrwt>0</asrwt>
<pdfrwt beam="2">  1        2 0.97772324E-03 0.93466080E+02</pdfrwt>
<pdfrwt beam="1">  1       -2 0.52869526E-01 0.93466080E+02</pdfrwt>
<totfact> 0.44163761E+04</totfact>
</mgrwt>
</event>
<event>
 5    1  0.2799021E+000  0.9494781E+02  0.7818608E-02  0.1291294E+00
          2   -1    0    0  501    0  0.00000000000E+00  0.00000000000E+00  0.51378367093E+02  0.51378367159E+02  0.26000000000E-02 0. -1.
         -2   -1    0    0    0  501 -0.00000000000E+00 -0.00000000000E+00 -0.43866155615E+02  0.43866155692E+02  0.26000000000E-02 0.  1.
         23    2    1    2    0    0  0.00000000000E+00  0.00000000000E+00  0.75122114781E+01  0.95244522851E+02  0.94947805724E+02 0.  0.
        -11    1    3    3    0    0 -0.27920827899E+02 -0.26018135339E+02 -0.24567844835E+02  0.45388269378E+02  0.51100000000E-03 0.  1.
         11    1    3    3    0    0  0.27920827899E+02  0.26018135339E+02  0.32080056313E+02  0.49856253473E+02  0.51100000000E-03 0. -1.
<mgrwt>
<rscale>  0 0.94947806E+02</rscale>
<asrwt>0</asrwt>
<pdfrwt beam="1">  1        2 0.79043642E-02 0.94947806E+02</pdfrwt>
<pdfrwt beam="2">  1       -2 0.67486393E-02 0.94947806E+02</pdfrwt>
<totfact> 0.90654357E+04</totfact>
</mgrwt>
</event>
<event>
 5    1  0.2799021E+000  0.8235167E+02  0.7818608E-02  0.1322507E+00
          2   -1    0    0  501    0  0.00000000000E+00  0.00000000000E+00  0.19827578925E+02  0.19827579096E+02  0.26000000000E-02 0. -1.
         -2   -1    0    0    0  501 -0.00000000000E+00 -0.00000000000E+00 -0.85509657463E+02  0.85509657502E+02  0.26000000000E-02 0.  1.
         23    2    1    2    0    0  0.00000000000E+00  0.00000000000E+00 -0.65682078538E+02  0.10533723660E+03  0.82351672558E+02 0.  0.
        -11    1    3    3    0    0 -0.22281088287E+02 -0.33117966451E+02 -0.19909771708E+02  0.44605443690E+02  0.51100000000E-03 0. -1.
         11    1    3    3    0    0  0.22281088287E+02  0.33117966451E+02 -0.45772306830E+02  0.60731792908E+02  0.51100000000E-03 0.  1.
<mgrwt>
<rscale>  0 0.82351673E+02</rscale>
<asrwt>0</asrwt>
<pdfrwt beam="1">  1        2 0.30503968E-02 0.82351673E+02</pdfrwt>
<pdfrwt beam="2">  1       -2 0.13155332E-01 0.82351673E+02</pdfrwt>
<totfact> 0.10737411E+05</totfact>
</mgrwt>
</event>
<event>
 5    1  0.2799021E+000  0.9111262E+02  0.7818608E-02  0.1300179E+00
          2   -1    0    0  501    0  0.00000000000E+00  0.00000000000E+00  0.13871464334E+03  0.13871464337E+03  0.26000000000E-02 0. -1.
         -2   -1    0    0    0  501 -0.00000000000E+00 -0.00000000000E+00 -0.14961488703E+02  0.14961488929E+02  0.26000000000E-02 0.  1.
         23    2    1    2    0    0  0.00000000000E+00  0.00000000000E+00  0.12375315464E+03  0.15367613229E+03  0.91112624558E+02 0.  0.
        -11    1    3    3    0    0  0.28643993911E+02 -0.32319485695E+02  0.37414171317E+02  0.57138846316E+02  0.51100000000E-03 0. -1.
         11    1    3    3    0    0 -0.28643993911E+02  0.32319485695E+02  0.86338983322E+02  0.96537285978E+02  0.51100000000E-03 0.  1.
<mgrwt>
<rscale>  0 0.91112625E+02</rscale>
<asrwt>0</asrwt>
<pdfrwt beam="1">  1        2 0.21340714E-01 0.91112625E+02</pdfrwt>
<pdfrwt beam="2">  1       -2 0.23017676E-02 0.91112625E+02</pdfrwt>
<totfact> 0.13643468E+05</totfact>
</mgrwt>
</event>
<event>
 5    1  0.2799021E+000  0.9063291E+02  0.7818608E-02  0.1301326E+00
          2   -1    0    0  501    0  0.00000000000E+00  0.00000000000E+00  0.16090346184E+02  0.16090346394E+02  0.26000000000E-02 0.  1.
         -2   -1    0    0    0  501 -0.00000000000E+00 -0.00000000000E+00 -0.12762814566E+03  0.12762814569E+03  0.26000000000E-02 0. -1.
         23    2    1    2    0    0  0.00000000000E+00  0.00000000000E+00 -0.11153779947E+03  0.14371849208E+03  0.90632909331E+02 0.  0.
        -11    1    3    3    0    0 -0.33591509291E+02 -0.23562387380E+02 -0.25266725215E+02  0.48186958805E+02  0.51100000000E-03 0.  1.
         11    1    3    3    0    0  0.33591509291E+02  0.23562387380E+02 -0.86271074260E+02  0.95531533274E+02  0.51100000000E-03 0. -1.
<mgrwt>
<rscale>  0 0.90632909E+02</rscale>
<asrwt>0</asrwt>
<pdfrwt beam="1">  1        2 0.24754380E-02 0.90632909E+02</pdfrwt>
<pdfrwt beam="2">  1       -2 0.19635099E-01 0.90632909E+02</pdfrwt>
<totfact> 0.75023865E+04</totfact>
</mgrwt>
</event>
<event>
 5    1  0.2799021E+000  0.9114026E+02  0.7818608E-02  0.1300114E+00
          2   -1    0    0  501    0  0.00000000000E+00  0.00000000000E+00  0.98404007763E+02  0.98404007797E+02  0.26000000000E-02 0. -1.
         -2   -1    0    0    0  501 -0.00000000000E+00 -0.00000000000E+00 -0.21103172450E+02  0.21103172610E+02  0.26000000000E-02 0.  1.
         23    2    1    2    0    0  0.00000000000E+00  0.00000000000E+00  0.77300835313E+02  0.11950718041E+03  0.91140260198E+02 0.  0.
        -11    1    3    3    0    0  0.80569084746E+01  0.17253821151E+02  0.92937033963E+02  0.94867804868E+02  0.51100000000E-03 0. -1.
         11    1    3    3    0    0 -0.80569084746E+01 -0.17253821151E+02 -0.15636198650E+02  0.24639375539E+02  0.51100000000E-03 0.  1.
<mgrwt>
<rscale>  0 0.91140260E+02</rscale>
<asrwt>0</asrwt>
<pdfrwt beam="1">  1        2 0.15139078E-01 0.91140260E+02</pdfrwt>
<pdfrwt beam="2">  1       -2 0.32466420E-02 0.91140260E+02</pdfrwt>
<totfact> 0.12221314E+05</totfact>
</mgrwt>
</event>
<event>
 5    1  0.2799021E+000  0.9488135E+02  0.7818608E-02  0.1291444E+00
          2   -1    0    0  501    0  0.00000000000E+00  0.00000000000E+00  0.75325275145E+01  0.75325279632E+01  0.26000000000E-02 0. -1.
         -2   -1    0    0    0  501 -0.00000000000E+00 -0.00000000000E+00 -0.29878651196E+03  0.29878651197E+03  0.26000000000E-02 0.  1.
         23    2    1    2    0    0  0.00000000000E+00  0.00000000000E+00 -0.29125398444E+03  0.30631903993E+03  0.94881351018E+02 0.  0.
        -11    1    3    3    0    0 -0.44493619808E+01  0.45570372743E+02 -0.18571198392E+03  0.19127309446E+03  0.51100000000E-03 0.  1.
         11    1    3    3    0    0  0.44493619808E+01 -0.45570372743E+02 -0.10554200052E+03  0.11504594547E+03  0.51100000000E-03 0. -1.
<mgrwt>
<rscale>  0 0.94881351E+02</rscale>
<asrwt>0</asrwt>
<pdfrwt beam="1">  1        2 0.11588507E-02 0.94881351E+02</pdfrwt>
<pdfrwt beam="2">  1       -2 0.45967146E-01 0.94881351E+02</pdfrwt>
<totfact> 0.46127816E+04</totfact>
</mgrwt>
</event>
<event>
 5    1  0.2799021E+000  0.9047210E+02  0.7818608E-02  0.1301712E+00
          2   -1    0    0  501    0  0.00000000000E+00  0.00000000000E+00  0.32855523817E+02  0.32855523919E+02  0.26000000000E-02 0. -1.
         -2   -1    0    0    0  501 -0.00000000000E+00 -0.00000000000E+00 -0.62281775115E+02  0.62281775169E+02  0.26000000000E-02 0.  1.
         23    2    1    2    0    0  0.00000000000E+00  0.00000000000E+00 -0.29426251298E+02  0.95137299088E+02  0.90472102951E+02 0.  0.
        -11    1    3    3    0    0  0.98543590159E+01 -0.85694943160E+01 -0.60256402316E+02  0.61655321301E+02  0.51100000000E-03 0.  1.
         11    1    3    3    0    0 -0.98543590159E+01  0.85694943160E+01  0.30830151018E+02  0.33481977787E+02  0.51100000000E-03 0. -1.
<mgrwt>
<rscale>  0 0.90472103E+02</rscale>
<asrwt>0</asrwt>
<pdfrwt beam="1">  1        2 0.50546960E-02 0.90472103E+02</pdfrwt>
<pdfrwt beam="2">  1       -2 0.95818115E-02 0.90472103E+02</pdfrwt>
<totfact> 0.92713864E+04</totfact>
</mgrwt>
</event>
<event>
 5    1  0.2799021E+000  0.8805777E+02  0.7818608E-02  0.1307624E+00
         -2   -1    0    0    0  501 -0.00000000000E+00  0.00000000000E+00  0.76951447764E+02  0.76951447808E+02  0.26000000000E-02 0.  1.
          2   -1    0    0  501    0  0.00000000000E+00 -0.00000000000E+00 -0.25191765425E+02  0.25191765559E+02  0.26000000000E-02 0. -1.
         23    2    1    2    0    0  0.00000000000E+00  0.00000000000E+00  0.51759682339E+02  0.10214321337E+03  0.88057772633E+02 0.  0.
        -11    1    3    3    0    0  0.31158531710E+02 -0.31104054723E+02  0.25327780346E+02  0.50791857379E+02  0.51100000000E-03 0.  1.
         11    1    3    3    0    0 -0.31158531710E+02  0.31104054723E+02  0.26431901993E+02  0.51351355988E+02  0.51100000000E-03 0. -1.
<mgrwt>
<rscale>  0 0.88057773E+02</rscale>
<asrwt>0</asrwt>
<pdfrwt beam="2">  1        2 0.38756563E-02 0.88057773E+02</pdfrwt>
<pdfrwt beam="1">  1       -2 0.11838684E-01 0.88057773E+02</pdfrwt>
<totfact> 0.93648096E+04</totfact>
</mgrwt>
</event>
<event>
 5    1  0.2799021E+000  0.9225731E+02  0.7818608E-02  0.1297476E+00
          2   -1    0    0  501    0  0.00000000000E+00  0.00000000000E+00  0.18626364963E+03  0.18626364965E+03  0.26000000000E-02 0. -1.
         -2   -1    0    0    0  501 -0.00000000000E+00 -0.00000000000E+00 -0.11423875500E+02  0.11423875796E+02  0.26000000000E-02 0.  1.
         23    2    1    2    0    0  0.00000000000E+00  0.00000000000E+00  0.17483977413E+03  0.19768752544E+03  0.92257309185E+02 0.  0.
        -11    1    3    3    0    0  0.17228334547E+02  0.35442182575E+02  0.13879709095E+03  0.14428304222E+03  0.51100000000E-03 0. -1.
         11    1    3    3    0    0 -0.17228334547E+02 -0.35442182575E+02  0.36042683182E+02  0.53404483222E+02  0.51100000000E-03 0.  1.
<mgrwt>
<rscale>  0 0.92257309E+02</rscale>
<asrwt>0</asrwt>
<pdfrwt beam="1">  1        2 0.28655949E-01 0.92257309E+02</pdfrwt>
<pdfrwt beam="2">  1       -2 0.17575192E-02 0.92257309E+02</pdfrwt>
<totfact> 0.14605006E+05</totfact>
</mgrwt>
</event>
<event>
 5    1  0.2799021E+000  0.9068867E+02  0.7818608E-02  0.1301193E+00
          2   -1    0    0  501    0  0.00000000000E+00  0.00000000000E+00  0.24962059274E+03  0.24962059275E+03  0.26000000000E-02 0. -1.
         -2   -1    0    0    0  501 -0.00000000000E+00 -0.00000000000E+00 -0.82369345785E+01  0.82369349888E+01  0.26000000000E-02 0.  1.
         23    2    1    2    0    0  0.00000000000E+00  0.00000000000E+00  0.24138365816E+03  0.25785752774E+03  0.90688666249E+02 0.  0.
        -11    1    3    3    0    0 -0.40543885084E+02  0.20305154422E+02  0.12083771284E+03  0.12906532748E+03  0.51100000000E-03 0. -1.
         11    1    3    3    0    0  0.40543885084E+02 -0.20305154422E+02  0.12054594532E+03  0.12879220026E+03  0.51100000000E-03 0.  1.
<mgrwt>
<rscale>  0 0.90688666E+02</rscale>
<asrwt>0</asrwt>
<pdfrwt beam="1">  1        2 0.38403173E-01 0.90688666E+02</pdfrwt>
<pdfrwt beam="2">  1       -2 0.12672206E-02 0.90688666E+02</pdfrwt>
<totfact> 0.17019412E+05</totfact>
</mgrwt>
</event>
<event>
 5    1  0.2799021E+000  0.8730335E+02  0.7818608E-02  0.1309517E+00
         -2   -1    0    0    0  501 -0.00000000000E+00  0.00000000000E+00  0.48275530518E+01  0.48275537519E+01  0.26000000000E-02 0.  1.
          2   -1    0    0  501    0  0.00000000000E+00 -0.00000000000E+00 -0.39470687781E+03  0.39470687782E+03  0.26000000000E-02 0. -1.
         23    2    1    2    0    0  0.00000000000E+00  0.00000000000E+00 -0.38987932476E+03  0.39953443157E+03  0.87303345505E+02 0.  0.
        -11    1    3    3    0    0 -0.41948011289E+02 -0.97367565370E+01 -0.16224856230E+03  0.16786612538E+03  0.51100000000E-03 0.  1.
         11    1    3    3    0    0  0.41948011289E+02  0.97367565370E+01 -0.22763076245E+03  0.23166830619E+03  0.51100000000E-03 0. -1.
<mgrwt>
<rscale>  0 0.87303346E+02</rscale>
<asrwt>0</asrwt>
<pdfrwt beam="2">  1        2 0.60724110E-01 0.87303346E+02</pdfrwt>
<pdfrwt beam="1">  1       -2 0.74270083E-03 0.87303346E+02</pdfrwt>
<totfact> 0.22287890E+05</totfact>
</mgrwt>
</event>
<event>
 5    1  0.2799021E+000  0.9046051E+02  0.7818608E-02  0.1301740E+00
         -2   -1    0    0    0  501 -0.00000000000E+00  0.00000000000E+00  0.12559753406E+02  0.12559753675E+02  0.26000000000E-02 0.  1.
          2   -1    0    0  501    0  0.00000000000E+00 -0.00000000000E+00 -0.16288343387E+03  0.16288343389E+03  0.26000000000E-02 0. -1.
         23    2    1    2    0    0  0.00000000000E+00  0.00000000000E+00 -0.15032368046E+03  0.17544318756E+03  0.90460506050E+02 0.  0.
        -11    1    3    3    0    0 -0.10144699852E+02 -0.41344488337E+02 -0.45526119963E+02  0.62329040183E+02  0.51100000000E-03 0.  1.
         11    1    3    3    0    0  0.10144699852E+02  0.41344488337E+02 -0.10479756050E+03  0.11311414738E+03  0.51100000000E-03 0. -1.
<mgrwt>
<rscale>  0 0.90460506E+02</rscale>
<asrwt>0</asrwt>
<pdfrwt beam="2">  1        2 0.25058988E-01 0.90460506E+02</pdfrwt>
<pdfrwt beam="1">  1       -2 0.19322699E-02 0.90460506E+02</pdfrwt>
<totfact> 0.14692277E+05</totfact>
</mgrwt>
</event>
<event>
 5    1  0.2799021E+000  0.9103351E+02  0.7818608E-02  0.1300368E+00
         -2   -1    0    0    0  501 -0.00000000000E+00  0.00000000000E+00  0.24115399493E+03  0.24115399495E+03  0.26000000000E-02 0.  1.
          2   -1    0    0  501    0  0.00000000000E+00 -0.00000000000E+00 -0.85910878469E+01  0.85910882403E+01  0.26000000000E-02 0. -1.
         23    2    1    2    0    0  0.00000000000E+00  0.00000000000E+00  0.23256290709E+03  0.24974508319E+03  0.91033514839E+02 0.  0.
        -11    1    3    3    0    0  0.38112103590E+02 -0.24325534009E+02  0.10189180810E+03  0.11147288730E+03  0.51100000000E-03 0.  1.
         11    1    3    3    0    0 -0.38112103590E+02  0.24325534009E+02  0.13067109898E+03  0.13827219589E+03  0.51100000000E-03 0. -1.
<mgrwt>
<rscale>  0 0.91033515E+02</rscale>
<asrwt>0</asrwt>
<pdfrwt beam="2">  1        2 0.13217057E-02 0.91033515E+02</pdfrwt>
<pdfrwt beam="1">  1       -2 0.37100618E-01 0.91033515E+02</pdfrwt>
<totfact> 0.57415633E+04</totfact>
</mgrwt>
</event>
<event>
 5    1  0.2799021E+000  0.8995262E+02  0.7818608E-02  0.1302966E+00
          2   -1    0    0  501    0  0.00000000000E+00  0.00000000000E+00  0.34249916271E+03  0.34249916272E+03  0.26000000000E-02 0. -1.
         -2   -1    0    0    0  501 -0.00000000000E+00 -0.00000000000E+00 -0.59061996791E+01  0.59062002514E+01  0.26000000000E-02 0.  1.
         23    2    1    2    0    0  0.00000000000E+00  0.00000000000E+00  0.33659296303E+03  0.34840536297E+03  0.89952621892E+02 0.  0.
        -11    1    3    3    0    0  0.34809745194E+02 -0.23559500232E+02  0.23027995475E+03  0.23408465557E+03  0.51100000000E-03 0. -1.
         11    1    3    3    0    0 -0.34809745194E+02  0.23559500232E+02  0.10631300828E+03  0.11432070740E+03  0.51100000000E-03 0.  1.
<mgrwt>
<rscale>  0 0.89952622E+02</rscale>
<asrwt>0</asrwt>
<pdfrwt beam="1">  1        2 0.52692180E-01 0.89952622E+02</pdfrwt>
<pdfrwt beam="2">  1       -2 0.90864613E-03 0.89952622E+02</pdfrwt>
<totfact> 0.19559610E+05</totfact>
</mgrwt>
</event>
<event>
 5    1  0.2799021E+000  0.9034753E+02  0.7818608E-02  0.1302012E+00
         -2   -1    0    0    0  501 -0.00000000000E+00  0.00000000000E+00  0.36473099691E+02  0.36473099784E+02  0.26000000000E-02 0.  1.
          2   -1    0    0  501    0  0.00000000000E+00 -0.00000000000E+00 -0.55949978085E+02  0.55949978146E+02  0.26000000000E-02 0. -1.
         23    2    1    2    0    0  0.00000000000E+00  0.00000000000E+00 -0.19476878394E+02  0.92423077930E+02  0.90347532019E+02 0.  0.
        -11    1    3    3    0    0 -0.71161832948E+00  0.31867373425E+02  0.23006814192E+02  0.39310932184E+02  0.51100000000E-03 0.  1.
         11    1    3    3    0    0  0.71161832948E+00 -0.31867373425E+02 -0.42483692586E+02  0.53112145745E+02  0.51100000000E-03 0. -1.
<mgrwt>
<rscale>  0 0.90347532E+02</rscale>
<asrwt>0</asrwt>
<pdfrwt beam="2">  1        2 0.86076889E-02 0.90347532E+02</pdfrwt>
<pdfrwt beam="1">  1       -2 0.56112461E-02 0.90347532E+02</pdfrwt>
<totfact> 0.10683642E+05</totfact>
</mgrwt>
</event>
<event>
 5    1  0.2799021E+000  0.8516623E+02  0.7818608E-02  0.1314998E+00
         -2   -1    0    0    0  501 -0.00000000000E+00  0.00000000000E+00  0.88863872271E+01  0.88863876074E+01  0.26000000000E-02 0.  1.
          2   -1    0    0  501    0  0.00000000000E+00 -0.00000000000E+00 -0.20405613189E+03  0.20405613190E+03  0.26000000000E-02 0. -1.
         23    2    1    2    0    0  0.00000000000E+00  0.00000000000E+00 -0.19516974466E+03  0.21294251951E+03  0.85166233832E+02 0.  0.
        -11    1    3    3    0    0 -0.13553996692E+02 -0.39428938182E+02 -0.11923389408E+03  0.12631339395E+03  0.51100000000E-03 0.  1.
         11    1    3    3    0    0  0.13553996692E+02  0.39428938182E+02 -0.75935850579E+02  0.86629125564E+02  0.51100000000E-03 0. -1.
<mgrwt>
<rscale>  0 0.85166234E+02</rscale>
<asrwt>0</asrwt>
<pdfrwt beam="2">  1        2 0.31393248E-01 0.85166234E+02</pdfrwt>
<pdfrwt beam="1">  1       -2 0.13671367E-02 0.85166234E+02</pdfrwt>
<totfact> 0.18703403E+05</totfact>
</mgrwt>
</event>
<event>
 5    1  0.2799021E+000  0.9043695E+02  0.7818608E-02  0.1301797E+00
          2   -1    0    0  501    0  0.00000000000E+00  0.00000000000E+00  0.21517382862E+02  0.21517383020E+02  0.26000000000E-02 0. -1.
         -2   -1    0    0    0  501 -0.00000000000E+00 -0.00000000000E+00 -0.95025991574E+02  0.95025991609E+02  0.26000000000E-02 0.  1.
         23    2    1    2    0    0  0.00000000000E+00  0.00000000000E+00 -0.73508608711E+02  0.11654337463E+03  0.90436953814E+02 0.  0.
        -11    1    3    3    0    0 -0.28384637925E+02 -0.34085823537E+02 -0.48075517682E+02  0.65412433351E+02  0.51100000000E-03 0.  1.
         11    1    3    3    0    0  0.28384637925E+02  0.34085823537E+02 -0.25433091030E+02  0.51130941277E+02  0.51100000000E-03 0. -1.
<mgrwt>
<rscale>  0 0.90436954E+02</rscale>
<asrwt>0</asrwt>
<pdfrwt beam="1">  1        2 0.33103666E-02 0.90436954E+02</pdfrwt>
<pdfrwt beam="2">  1       -2 0.14619383E-01 0.90436954E+02</pdfrwt>
<totfact> 0.82672364E+04</totfact>
</mgrwt>
</event>
<event>
 5    1  0.2799021E+000  0.9327110E+02  0.7818608E-02  0.1295118E+00
         -2   -1    0    0    0  501 -0.00000000000E+00  0.00000000000E+00  0.10666797552E+02  0.10666797869E+02  0.26000000000E-02 0.  1.
          2   -1    0    0  501    0  0.00000000000E+00 -0.00000000000E+00 -0.20389200260E+03  0.20389200262E+03  0.26000000000E-02 0. -1.
         23    2    1    2    0    0  0.00000000000E+00  0.00000000000E+00 -0.19322520505E+03  0.21455880049E+03  0.93271104851E+02 0.  0.
        -11    1    3    3    0    0  0.29071765883E+02  0.27151695755E+02 -0.15260649707E+03  0.15770581822E+03  0.51100000000E-03 0. -1.
         11    1    3    3    0    0 -0.29071765883E+02 -0.27151695755E+02 -0.40618707982E+02  0.56852982264E+02  0.51100000000E-03 0.  1.
<mgrwt>
<rscale>  0 0.93271105E+02</rscale>
<asrwt>0</asrwt>
<pdfrwt beam="2">  1        2 0.31367998E-01 0.93271105E+02</pdfrwt>
<pdfrwt beam="1">  1       -2 0.16410460E-02 0.93271105E+02</pdfrwt>
<totfact> 0.14651015E+05</totfact>
</mgrwt>
</event>
<event>
 5    1  0.2799021E+000  0.8876952E+02  0.7818608E-02  0.1305859E+00
          2   -1    0    0  501    0  0.00000000000E+00  0.00000000000E+00  0.11197511371E+03  0.11197511374E+03  0.26000000000E-02 0. -1.
         -2   -1    0    0    0  501 -0.00000000000E+00 -0.00000000000E+00 -0.17593255485E+02  0.17593255677E+02  0.26000000000E-02 0.  1.
         23    2    1    2    0    0  0.00000000000E+00  0.00000000000E+00  0.94381858226E+02  0.12956836942E+03  0.88769517243E+02 0.  0.
        -11    1    3    3    0    0 -0.35694653687E+02  0.57025470774E+01  0.95971363433E+01  0.37399630630E+02  0.51100000000E-03 0.  1.
         11    1    3    3    0    0  0.35694653687E+02 -0.57025470774E+01  0.84784721883E+02  0.92168738789E+02  0.51100000000E-03 0. -1.
<mgrwt>
<rscale>  0 0.88769517E+02</rscale>
<asrwt>0</asrwt>
<pdfrwt beam="1">  1        2 0.17226941E-01 0.88769517E+02</pdfrwt>
<pdfrwt beam="2">  1       -2 0.27066547E-02 0.88769517E+02</pdfrwt>
<totfact> 0.13668481E+05</totfact>
</mgrwt>
</event>
<event>
 5    1  0.2799021E+000  0.9135557E+02  0.7818608E-02  0.1299602E+00
         -2   -1    0    0    0  501 -0.00000000000E+00  0.00000000000E+00  0.56135235307E+01  0.56135241329E+01  0.26000000000E-02 0.  1.
          2   -1    0    0  501    0  0.00000000000E+00 -0.00000000000E+00 -0.37168457155E+03  0.37168457155E+03  0.26000000000E-02 0. -1.
         23    2    1    2    0    0  0.00000000000E+00  0.00000000000E+00 -0.36607104801E+03  0.37729809569E+03  0.91355573529E+02 0.  0.
        -11    1    3    3    0    0 -0.39177729353E+02  0.20987320607E+02 -0.22656694864E+03  0.23088513231E+03  0.51100000000E-03 0. -1.
         11    1    3    3    0    0  0.39177729353E+02 -0.20987320607E+02 -0.13950409937E+03  0.14641296338E+03  0.51100000000E-03 0.  1.
<mgrwt>
<rscale>  0 0.91355574E+02</rscale>
<asrwt>0</asrwt>
<pdfrwt beam="2">  1        2 0.57182222E-01 0.91355574E+02</pdfrwt>
<pdfrwt beam="1">  1       -2 0.86361934E-03 0.91355574E+02</pdfrwt>
<totfact> 0.19339457E+05</totfact>
</mgrwt>
</event>
<event>
 5    1  0.2799021E+000  0.9183495E+02  0.7818608E-02  0.1298468E+00
         -2   -1    0    0    0  501 -0.00000000000E+00  0.00000000000E+00  0.85370642579E+02  0.85370642619E+02  0.26000000000E-02 0.  1.
          2   -1    0    0  501    0  0.00000000000E+00 -0.00000000000E+00 -0.24697186156E+02  0.24697186293E+02  0.26000000000E-02 0. -1.
         23    2    1    2    0    0  0.00000000000E+00  0.00000000000E+00  0.60673456423E+02  0.11006782891E+03  0.91834953297E+02 0.  0.
        -11    1    3    3    0    0 -0.26668326630E+02 -0.89283399157E+01  0.73840575270E+02  0.79014843260E+02  0.51100000000E-03 0.  1.
         11    1    3    3    0    0  0.26668326630E+02  0.89283399157E+01 -0.13167118847E+02  0.31052985652E+02  0.51100000000E-03 0. -1.
<mgrwt>
<rscale>  0 0.91834953E+02</rscale>
<asrwt>0</asrwt>
<pdfrwt beam="2">  1        2 0.37995671E-02 0.91834953E+02</pdfrwt>
<pdfrwt beam="1">  1       -2 0.13133945E-01 0.91834953E+02</pdfrwt>
<totfact> 0.82080040E+04</totfact>
</mgrwt>
</event>
<event>
 5    1  0.2799021E+000  0.9141789E+02  0.7818608E-02  0.1299454E+00
         -2   -1    0    0    0  501 -0.00000000000E+00  0.00000000000E+00  0.15443121767E+02  0.15443121986E+02  0.26000000000E-02 0.  1.
          2   -1    0    0  501    0  0.00000000000E+00 -0.00000000000E+00 -0.13529048861E+03  0.13529048864E+03  0.26000000000E-02 0. -1.
         23    2    1    2    0    0  0.00000000000E+00  0.00000000000E+00 -0.11984736684E+03  0.15073361062E+03  0.91417886826E+02 0.  0.
        -11    1    3    3    0    0 -0.38132220552E+02 -0.26352423307E+01 -0.10125329604E+03  0.10822772614E+03  0.51100000000E-03 0. -1.
         11    1    3    3    0    0  0.38132220552E+02  0.26352423307E+01 -0.18594070808E+02  0.42505884485E+02  0.51100000000E-03 0.  1.
<mgrwt>
<rscale>  0 0.91417887E+02</rscale>
<asrwt>0</asrwt>
<pdfrwt beam="2">  1        2 0.20813921E-01 0.91417887E+02</pdfrwt>
<pdfrwt beam="1">  1       -2 0.23758650E-02 0.91417887E+02</pdfrwt>
<totfact> 0.13407734E+05</totfact>
</mgrwt>
</event>
<event>
 5    1  0.2799021E+000  0.8930341E+02  0.7818608E-02  0.1304547E+00
          2   -1    0    0  501    0  0.00000000000E+00  0.00000000000E+00  0.33923707313E+03  0.33923707314E+03  0.26000000000E-02 0. -1.
         -2   -1    0    0    0  501 -0.00000000000E+00 -0.00000000000E+00 -0.58772306370E+01  0.58772312121E+01  0.26000000000E-02 0.  1.
         23    2    1    2    0    0  0.00000000000E+00  0.00000000000E+00  0.33335984249E+03  0.34511430435E+03  0.89303406885E+02 0.  0.
        -11    1    3    3    0    0  0.33910667361E+02 -0.28303000899E+02  0.19195674067E+03  0.19697305275E+03  0.51100000000E-03 0.  1.
         11    1    3    3    0    0 -0.33910667361E+02  0.28303000899E+02  0.14140310182E+03  0.14814125160E+03  0.51100000000E-03 0. -1.
<mgrwt>
<rscale>  0 0.89303407E+02</rscale>
<asrwt>0</asrwt>
<pdfrwt beam="1">  1        2 0.52190317E-01 0.89303407E+02</pdfrwt>
<pdfrwt beam="2">  1       -2 0.90418942E-03 0.89303407E+02</pdfrwt>
<totfact> 0.19869593E+05</totfact>
</mgrwt>
</event>
<event>
 5    1  0.2799021E+000  0.9332340E+02  0.7818608E-02  0.1294997E+00
          2   -1    0    0  501    0  0.00000000000E+00  0.00000000000E+00  0.20391965980E+03  0.20391965981E+03  0.26000000000E-02 0.  1.
         -2   -1    0    0    0  501 -0.00000000000E+00 -0.00000000000E+00 -0.10677313807E+02  0.10677314124E+02  0.26000000000E-02 0. -1.
         23    2    1    2    0    0  0.00000000000E+00  0.00000000000E+00  0.19324234599E+03  0.21459697394E+03  0.93323399742E+02 0.  0.
        -11    1    3    3    0    0 -0.62850852183E+01 -0.34529728934E+02  0.25913580602E+02  0.43627034466E+02  0.51100000000E-03 0. -1.
         11    1    3    3    0    0  0.62850852183E+01  0.34529728934E+02  0.16732876539E+03  0.17096993947E+03  0.51100000000E-03 0.  1.
<mgrwt>
<rscale>  0 0.93323400E+02</rscale>
<asrwt>0</asrwt>
<pdfrwt beam="1">  1        2 0.31372252E-01 0.93323400E+02</pdfrwt>
<pdfrwt beam="2">  1       -2 0.16426639E-02 0.93323400E+02</pdfrwt>
<totfact> 0.14629580E+05</totfact>
</mgrwt>
</event>
<event>
 5    1  0.2799021E+000  0.9278264E+02  0.7818608E-02  0.1296250E+00
         -2   -1    0    0    0  501 -0.00000000000E+00  0.00000000000E+00  0.26391342966E+02  0.26391343094E+02  0.26000000000E-02 0.  1.
          2   -1    0    0  501    0  0.00000000000E+00 -0.00000000000E+00 -0.81547741134E+02  0.81547741175E+02  0.26000000000E-02 0. -1.
         23    2    1    2    0    0  0.00000000000E+00  0.00000000000E+00 -0.55156398167E+02  0.10793908427E+03  0.92782636598E+02 0.  0.
        -11    1    3    3    0    0 -0.28045191215E+01  0.34420597062E+02 -0.63614244921E+02  0.72383803345E+02  0.51100000000E-03 0. -1.
         11    1    3    3    0    0  0.28045191215E+01 -0.34420597062E+02  0.84578467535E+01  0.35555280924E+02  0.51100000000E-03 0.  1.
<mgrwt>
<rscale>  0 0.92782637E+02</rscale>
<asrwt>0</asrwt>
<pdfrwt beam="2">  1        2 0.12545806E-01 0.92782637E+02</pdfrwt>
<pdfrwt beam="1">  1       -2 0.40602067E-02 0.92782637E+02</pdfrwt>
<totfact> 0.11001099E+05</totfact>
</mgrwt>
</event>
<event>
 5    1  0.2799021E+000  0.9078841E+02  0.7818608E-02  0.1300954E+00
         -2   -1    0    0    0  501 -0.00000000000E+00  0.00000000000E+00  0.62980177434E+01  0.62980182801E+01  0.26000000000E-02 0.  1.
          2   -1    0    0  501    0  0.00000000000E+00 -0.00000000000E+00 -0.32718769550E+03  0.32718769551E+03  0.26000000000E-02 0. -1.
         23    2    1    2    0    0  0.00000000000E+00  0.00000000000E+00 -0.32088967776E+03  0.33348571379E+03  0.90788413421E+02 0.  0.
        -11    1    3    3    0    0 -0.80185613512E+01  0.40690379020E+02 -0.22823834317E+03  0.23197574349E+03  0.51100000000E-03 0.  1.
         11    1    3    3    0    0  0.80185613512E+01 -0.40690379020E+02 -0.92651334582E+02  0.10150997030E+03  0.51100000000E-03 0. -1.
<mgrwt>
<rscale>  0 0.90788413E+02</rscale>
<asrwt>0</asrwt>
<pdfrwt beam="2">  1        2 0.50336555E-01 0.90788413E+02</pdfrwt>
<pdfrwt beam="1">  1       -2 0.96892610E-03 0.90788413E+02</pdfrwt>
<totfact> 0.18766025E+05</totfact>
</mgrwt>
</event>
<event>
 5    1  0.2799021E+000  0.9243848E+02  0.7818608E-02  0.1297052E+00
          2   -1    0    0  501    0  0.00000000000E+00  0.00000000000E+00  0.52187542889E+02  0.52187542954E+02  0.26000000000E-02 0.  1.
         -2   -1    0    0    0  501 -0.00000000000E+00 -0.00000000000E+00 -0.40933489045E+02  0.40933489128E+02  0.26000000000E-02 0. -1.
         23    2    1    2    0    0  0.00000000000E+00  0.00000000000E+00  0.11254053844E+02  0.93121032082E+02  0.92438481641E+02 0.  0.
        -11    1    3    3    0    0 -0.93518423134E+01 -0.22985301736E+02 -0.33653672913E+02  0.41813284389E+02  0.51100000000E-03 0. -1.
         11    1    3    3    0    0  0.93518423134E+01  0.22985301736E+02  0.44907726757E+02  0.51307747693E+02  0.51100000000E-03 0.  1.
<mgrwt>
<rscale>  0 0.92438482E+02</rscale>
<asrwt>0</asrwt>
<pdfrwt beam="1">  1        2 0.80288527E-02 0.92438482E+02</pdfrwt>
<pdfrwt beam="2">  1       -2 0.62974599E-02 0.92438482E+02</pdfrwt>
<totfact> 0.98290429E+04</totfact>
</mgrwt>
</event>
<event>
 5    1  0.2799021E+000  0.9033467E+02  0.7818608E-02  0.1302043E+00
          2   -1    0    0  501    0  0.00000000000E+00  0.00000000000E+00  0.42995823472E+02  0.42995823550E+02  0.26000000000E-02 0. -1.
         -2   -1    0    0    0  501 -0.00000000000E+00 -0.00000000000E+00 -0.47448523005E+02  0.47448523076E+02  0.26000000000E-02 0.  1.
         23    2    1    2    0    0  0.00000000000E+00  0.00000000000E+00 -0.44526995328E+01  0.90444346626E+02  0.90334673872E+02 0.  0.
        -11    1    3    3    0    0  0.29329125815E+01  0.25444188573E+02 -0.39474737660E+02  0.47055962660E+02  0.51100000000E-03 0.  1.
         11    1    3    3    0    0 -0.29329125815E+01 -0.25444188573E+02  0.35022038127E+02  0.43388383966E+02  0.51100000000E-03 0. -1.
<mgrwt>
<rscale>  0 0.90334674E+02</rscale>
<asrwt>0</asrwt>
<pdfrwt beam="1">  1        2 0.66147421E-02 0.90334674E+02</pdfrwt>
<pdfrwt beam="2">  1       -2 0.72997728E-02 0.90334674E+02</pdfrwt>
<totfact> 0.99817737E+04</totfact>
</mgrwt>
</event>
<event>
 5    1  0.2799021E+000  0.7874322E+02  0.7818608E-02  0.1332656E+00
          2   -1    0    0  501    0  0.00000000000E+00  0.00000000000E+00  0.24310779213E+02  0.24310779352E+02  0.26000000000E-02 0. -1.
         -2   -1    0    0    0  501 -0.00000000000E+00 -0.00000000000E+00 -0.63762809605E+02  0.63762809658E+02  0.26000000000E-02 0.  1.
         23    2    1    2    0    0  0.00000000000E+00  0.00000000000E+00 -0.39452030392E+02  0.88073589011E+02  0.78743217989E+02 0.  0.
        -11    1    3    3    0    0 -0.20034041912E+02 -0.28796654076E+02 -0.39718976401E+02  0.52992520302E+02  0.51100000000E-03 0.  1.
         11    1    3    3    0    0  0.20034041912E+02  0.28796654076E+02  0.26694600901E+00  0.35081068709E+02  0.51100000000E-03 0. -1.
<mgrwt>
<rscale>  0 0.78743218E+02</rscale>
<asrwt>0</asrwt>
<pdfrwt beam="1">  1        2 0.37401199E-02 0.78743218E+02</pdfrwt>
<pdfrwt beam="2">  1       -2 0.98096630E-02 0.78743218E+02</pdfrwt>
<totfact> 0.12908976E+05</totfact>
</mgrwt>
</event>
<event>
 5    1  0.2799021E+000  0.9002186E+02  0.7818608E-02  0.1302799E+00
         -2   -1    0    0    0  501 -0.00000000000E+00  0.00000000000E+00  0.63640090987E+02  0.63640091040E+02  0.26000000000E-02 0.  1.
          2   -1    0    0  501    0  0.00000000000E+00 -0.00000000000E+00 -0.31835020679E+02  0.31835020785E+02  0.26000000000E-02 0. -1.
         23    2    1    2    0    0  0.00000000000E+00  0.00000000000E+00  0.31805070307E+02  0.95475111825E+02  0.90021855573E+02 0.  0.
        -11    1    3    3    0    0 -0.14669107327E+02 -0.28730840278E+02 -0.17389106529E+02  0.36647304389E+02  0.51100000000E-03 0. -1.
         11    1    3    3    0    0  0.14669107327E+02  0.28730840278E+02  0.49194176837E+02  0.58827807436E+02  0.51100000000E-03 0.  1.
<mgrwt>
<rscale>  0 0.90021856E+02</rscale>
<asrwt>0</asrwt>
<pdfrwt beam="2">  1        2 0.48976955E-02 0.90021856E+02</pdfrwt>
<pdfrwt beam="1">  1       -2 0.97907833E-02 0.90021856E+02</pdfrwt>
<totfact> 0.93310860E+04</totfact>
</mgrwt>
</event>
<event>
 5    1  0.2799021E+000  0.8951171E+02  0.7818608E-02  0.1304038E+00
          2   -1    0    0  501    0  0.00000000000E+00  0.00000000000E+00  0.12560532402E+03  0.12560532405E+03  0.26000000000E-02 0. -1.
         -2   -1    0    0    0  501 -0.00000000000E+00 -0.00000000000E+00 -0.15947466653E+02  0.15947466865E+02  0.26000000000E-02 0.  1.
         23    2    1    2    0    0  0.00000000000E+00  0.00000000000E+00  0.10965785737E+03  0.14155279092E+03  0.89511713942E+02 0.  0.
        -11    1    3    3    0    0  0.77878377736E+01 -0.24662088194E+02 -0.29343606237E+01  0.26028436061E+02  0.51100000000E-03 0.  1.
         11    1    3    3    0    0 -0.77878377736E+01  0.24662088194E+02  0.11259221799E+03  0.11552435485E+03  0.51100000000E-03 0. -1.
<mgrwt>
<rscale>  0 0.89511714E+02</rscale>
<asrwt>0</asrwt>
<pdfrwt beam="1">  1        2 0.19323896E-01 0.89511714E+02</pdfrwt>
<pdfrwt beam="2">  1       -2 0.24534564E-02 0.89511714E+02</pdfrwt>
<totfact> 0.13857853E+05</totfact>
</mgrwt>
</event>
<event>
 5    1  0.2799021E+000  0.9778029E+02  0.7818608E-02  0.1285034E+00
         -2   -1    0    0    0  501 -0.00000000000E+00  0.00000000000E+00  0.58729236951E+01  0.58729242706E+01  0.26000000000E-02 0.  1.
          2   -1    0    0  501    0  0.00000000000E+00 -0.00000000000E+00 -0.40699424883E+03  0.40699424884E+03  0.26000000000E-02 0. -1.
         23    2    1    2    0    0  0.00000000000E+00  0.00000000000E+00 -0.40112132514E+03  0.41286717311E+03  0.97780290207E+02 0.  0.
        -11    1    3    3    0    0 -0.32647282380E+02  0.31822577749E+02 -0.12601116859E+03  0.13400498539E+03  0.51100000000E-03 0.  1.
         11    1    3    3    0    0  0.32647282380E+02 -0.31822577749E+02 -0.27511015655E+03  0.27886218772E+03  0.51100000000E-03 0. -1.
<mgrwt>
<rscale>  0 0.97780290E+02</rscale>
<asrwt>0</asrwt>
<pdfrwt beam="2">  1        2 0.62614478E-01 0.97780290E+02</pdfrwt>
<pdfrwt beam="1">  1       -2 0.90352709E-03 0.97780290E+02</pdfrwt>
<totfact> 0.16671299E+05</totfact>
</mgrwt>
</event>
<event>
 5    1  0.2799021E+000  0.9029850E+02  0.7818608E-02  0.1302130E+00
          2   -1    0    0  501    0  0.00000000000E+00  0.00000000000E+00  0.10290261552E+03  0.10290261556E+03  0.26000000000E-02 0. -1.
         -2   -1    0    0    0  501 -0.00000000000E+00 -0.00000000000E+00 -0.19809551751E+02  0.19809551921E+02  0.26000000000E-02 0.  1.
         23    2    1    2    0    0  0.00000000000E+00  0.00000000000E+00  0.83093063773E+02  0.12271216748E+03  0.90298498326E+02 0.  0.
        -11    1    3    3    0    0  0.11533387049E+02  0.28048136005E+02  0.87000441657E+02  0.92134650371E+02  0.51100000000E-03 0. -1.
         11    1    3    3    0    0 -0.11533387049E+02 -0.28048136005E+02 -0.39073778848E+01  0.30577517106E+02  0.51100000000E-03 0.  1.
<mgrwt>
<rscale>  0 0.90298498E+02</rscale>
<asrwt>0</asrwt>
<pdfrwt beam="1">  1        2 0.15831172E-01 0.90298498E+02</pdfrwt>
<pdfrwt beam="2">  1       -2 0.30476234E-02 0.90298498E+02</pdfrwt>
<totfact> 0.12708800E+05</totfact>
</mgrwt>
</event>
<event>
 5    1  0.2799021E+000  0.6200384E+02  0.7818608E-02  0.1389610E+00
         -2   -1    0    0    0  501 -0.00000000000E+00  0.00000000000E+00  0.56363293399E+01  0.56363299395E+01  0.26000000000E-02 0. -1.
          2   -1    0    0  501    0  0.00000000000E+00 -0.00000000000E+00 -0.17052216789E+03  0.17052216791E+03  0.26000000000E-02 0.  1.
         23    2    1    2    0    0  0.00000000000E+00  0.00000000000E+00 -0.16488583855E+03  0.17615849785E+03  0.62003843511E+02 0.  0.
        -11    1    3    3    0    0 -0.15092000950E+02  0.24147652754E+02 -0.11726702558E+03  0.12067490590E+03  0.51100000000E-03 0.  1.
         11    1    3    3    0    0  0.15092000950E+02 -0.24147652754E+02 -0.47618812970E+02  0.55483591945E+02  0.51100000000E-03 0. -1.
<mgrwt>
<rscale>  0 0.62003844E+02</rscale>
<asrwt>0</asrwt>
<pdfrwt beam="2">  1        2 0.26234176E-01 0.62003844E+02</pdfrwt>
<pdfrwt beam="1">  1       -2 0.86712777E-03 0.62003844E+02</pdfrwt>
<totfact> 0.40436953E+05</totfact>
</mgrwt>
</event>
<event>
 5    1  0.2799021E+000  0.9006204E+02  0.7818608E-02  0.1302702E+00
         -2   -1    0    0    0  501 -0.00000000000E+00  0.00000000000E+00  0.72165801339E+01  0.72165806022E+01  0.26000000000E-02 0.  1.
          2   -1    0    0  501    0  0.00000000000E+00 -0.00000000000E+00 -0.28099083728E+03  0.28099083729E+03  0.26000000000E-02 0. -1.
         23    2    1    2    0    0  0.00000000000E+00  0.00000000000E+00 -0.27377425714E+03  0.28820741789E+03  0.90062044465E+02 0.  0.
        -11    1    3    3    0    0 -0.40635741012E+02  0.19027817554E+02 -0.12471342430E+03  0.13253965252E+03  0.51100000000E-03 0.  1.
         11    1    3    3    0    0  0.40635741012E+02 -0.19027817554E+02 -0.14906083284E+03  0.15566776538E+03  0.51100000000E-03 0. -1.
<mgrwt>
<rscale>  0 0.90062044E+02</rscale>
<asrwt>0</asrwt>
<pdfrwt beam="2">  1        2 0.43229351E-01 0.90062044E+02</pdfrwt>
<pdfrwt beam="1">  1       -2 0.11102433E-02 0.90062044E+02</pdfrwt>
<totfact> 0.18117897E+05</totfact>
</mgrwt>
</event>
<event>
 5    1  0.2799021E+000  0.8536850E+02  0.7818608E-02  0.1314472E+00
          2   -1    0    0  501    0  0.00000000000E+00  0.00000000000E+00  0.19453438473E+03  0.19453438474E+03  0.26000000000E-02 0. -1.
         -2   -1    0    0    0  501 -0.00000000000E+00 -0.00000000000E+00 -0.93656708699E+01  0.93656712308E+01  0.26000000000E-02 0.  1.
         23    2    1    2    0    0  0.00000000000E+00  0.00000000000E+00  0.18516871386E+03  0.20390005597E+03  0.85368496737E+02 0.  0.
        -11    1    3    3    0    0  0.35756086748E+02 -0.95563585455E+01  0.41797870259E+02  0.55829057727E+02  0.51100000000E-03 0.  1.
         11    1    3    3    0    0 -0.35756086748E+02  0.95563585455E+01  0.14337084360E+03  0.14807099825E+03  0.51100000000E-03 0. -1.
<mgrwt>
<rscale>  0 0.85368497E+02</rscale>
<asrwt>0</asrwt>
<pdfrwt beam="1">  1        2 0.29928364E-01 0.85368497E+02</pdfrwt>
<pdfrwt beam="2">  1       -2 0.14408726E-02 0.85368497E+02</pdfrwt>
<totfact> 0.18270925E+05</totfact>
</mgrwt>
</event>
<event>
 5    1  0.2799021E+000  0.9056208E+02  0.7818608E-02  0.1301496E+00
          2   -1    0    0  501    0  0.00000000000E+00  0.00000000000E+00  0.11279510691E+03  0.11279510694E+03  0.26000000000E-02 0. -1.
         -2   -1    0    0    0  501 -0.00000000000E+00 -0.00000000000E+00 -0.18177852011E+02  0.18177852197E+02  0.26000000000E-02 0.  1.
         23    2    1    2    0    0  0.00000000000E+00  0.00000000000E+00  0.94617254903E+02  0.13097295914E+03  0.90562084234E+02 0.  0.
        -11    1    3    3    0    0  0.25223141727E+02 -0.27749649702E+02  0.84013150044E+02  0.92002496259E+02  0.51100000000E-03 0. -1.
         11    1    3    3    0    0 -0.25223141727E+02  0.27749649702E+02  0.10604104859E+02  0.38970462883E+02  0.51100000000E-03 0.  1.
<mgrwt>
<rscale>  0 0.90562084E+02</rscale>
<asrwt>0</asrwt>
<pdfrwt beam="1">  1        2 0.17353093E-01 0.90562084E+02</pdfrwt>
<pdfrwt beam="2">  1       -2 0.27965927E-02 0.90562084E+02</pdfrwt>
<totfact> 0.12971632E+05</totfact>
</mgrwt>
</event>
<event>
 5    1  0.2799021E+000  0.9048252E+02  0.7818608E-02  0.1301687E+00
         -2   -1    0    0    0  501 -0.00000000000E+00  0.00000000000E+00  0.85518558310E+02  0.85518558349E+02  0.26000000000E-02 0.  1.
          2   -1    0    0  501    0  0.00000000000E+00 -0.00000000000E+00 -0.23933651833E+02  0.23933651974E+02  0.26000000000E-02 0. -1.
         23    2    1    2    0    0  0.00000000000E+00  0.00000000000E+00  0.61584906477E+02  0.10945221032E+03  0.90482515654E+02 0.  0.
        -11    1    3    3    0    0  0.29708170127E+02 -0.12367201335E+02 -0.76745883175E+01  0.33082054762E+02  0.51100000000E-03 0. -1.
         11    1    3    3    0    0 -0.29708170127E+02  0.12367201335E+02  0.69259494794E+02  0.76370155562E+02  0.51100000000E-03 0.  1.
<mgrwt>
<rscale>  0 0.90482516E+02</rscale>
<asrwt>0</asrwt>
<pdfrwt beam="2">  1        2 0.36821003E-02 0.90482516E+02</pdfrwt>
<pdfrwt beam="1">  1       -2 0.13156701E-01 0.90482516E+02</pdfrwt>
<totfact> 0.85098621E+04</totfact>
</mgrwt>
</event>
<event>
 5    1  0.2799021E+000  0.9167204E+02  0.7818608E-02  0.1298852E+00
         -2   -1    0    0    0  501 -0.00000000000E+00  0.00000000000E+00  0.17823315565E+02  0.17823315754E+02  0.26000000000E-02 0.  1.
          2   -1    0    0  501    0  0.00000000000E+00 -0.00000000000E+00 -0.11787598619E+03  0.11787598621E+03  0.26000000000E-02 0. -1.
         23    2    1    2    0    0  0.00000000000E+00  0.00000000000E+00 -0.10005267062E+03  0.13569930197E+03  0.91672044028E+02 0.  0.
        -11    1    3    3    0    0  0.13766294037E+02 -0.43711540606E+02 -0.51292186346E+02  0.68782977648E+02  0.51100000000E-03 0.  1.
         11    1    3    3    0    0 -0.13766294037E+02  0.43711540606E+02 -0.48760484275E+02  0.66916324321E+02  0.51100000000E-03 0. -1.
<mgrwt>
<rscale>  0 0.91672044E+02</rscale>
<asrwt>0</asrwt>
<pdfrwt beam="2">  1        2 0.18134767E-01 0.91672044E+02</pdfrwt>
<pdfrwt beam="1">  1       -2 0.27420486E-02 0.91672044E+02</pdfrwt>
<totfact> 0.12722374E+05</totfact>
</mgrwt>
</event>
<event>
 5    1  0.2799021E+000  0.9271981E+02  0.7818608E-02  0.1296396E+00
         -2   -1    0    0    0  501 -0.00000000000E+00  0.00000000000E+00  0.19091080901E+03  0.19091080903E+03  0.26000000000E-02 0.  1.
          2   -1    0    0  501    0  0.00000000000E+00 -0.00000000000E+00 -0.11257827248E+02  0.11257827548E+02  0.26000000000E-02 0. -1.
         23    2    1    2    0    0  0.00000000000E+00  0.00000000000E+00  0.17965298176E+03  0.20216863658E+03  0.92719813195E+02 0.  0.
        -11    1    3    3    0    0 -0.65223570957E+01 -0.27518778636E+02  0.97298576104E+01  0.29908100058E+02  0.51100000000E-03 0. -1.
         11    1    3    3    0    0  0.65223570957E+01  0.27518778636E+02  0.16992312415E+03  0.17226053652E+03  0.51100000000E-03 0.  1.
<mgrwt>
<rscale>  0 0.92719813E+02</rscale>
<asrwt>0</asrwt>
<pdfrwt beam="2">  1        2 0.17319735E-02 0.92719813E+02</pdfrwt>
<pdfrwt beam="1">  1       -2 0.29370894E-01 0.92719813E+02</pdfrwt>
<totfact> 0.60902611E+04</totfact>
</mgrwt>
</event>
<event>
 5    1  0.2799021E+000  0.9262656E+02  0.7818608E-02  0.1296613E+00
          2   -1    0    0  501    0  0.00000000000E+00  0.00000000000E+00  0.22937681259E+03  0.22937681261E+03  0.26000000000E-02 0. -1.
         -2   -1    0    0    0  501 -0.00000000000E+00 -0.00000000000E+00 -0.93510761432E+01  0.93510765047E+01  0.26000000000E-02 0.  1.
         23    2    1    2    0    0  0.00000000000E+00  0.00000000000E+00  0.22002573645E+03  0.23872788911E+03  0.92626563900E+02 0.  0.
        -11    1    3    3    0    0 -0.31315603114E+02  0.34076172784E+02  0.11452687646E+03  0.12352432142E+03  0.51100000000E-03 0. -1.
         11    1    3    3    0    0  0.31315603114E+02 -0.34076172784E+02  0.10549885999E+03  0.11520356769E+03  0.51100000000E-03 0.  1.
<mgrwt>
<rscale>  0 0.92626564E+02</rscale>
<asrwt>0</asrwt>
<pdfrwt beam="1">  1        2 0.35288741E-01 0.92626564E+02</pdfrwt>
<pdfrwt beam="2">  1       -2 0.14386271E-02 0.92626564E+02</pdfrwt>
<totfact> 0.15586125E+05</totfact>
</mgrwt>
</event>
<event>
 5    1  0.2799021E+000  0.9045494E+02  0.7818608E-02  0.1301754E+00
         -2   -1    0    0    0  501 -0.00000000000E+00  0.00000000000E+00  0.16477989832E+02  0.16477990037E+02  0.26000000000E-02 0. -1.
          2   -1    0    0  501    0  0.00000000000E+00 -0.00000000000E+00 -0.12413674949E+03  0.12413674952E+03  0.26000000000E-02 0.  1.
         23    2    1    2    0    0  0.00000000000E+00  0.00000000000E+00 -0.10765875966E+03  0.14061473955E+03  0.90454941539E+02 0.  0.
        -11    1    3    3    0    0 -0.32499756729E+02 -0.19491021912E+02 -0.92204187098E+02  0.99688245252E+02  0.51100000000E-03 0.  1.
         11    1    3    3    0    0  0.32499756729E+02  0.19491021912E+02 -0.15454572559E+02  0.40926494302E+02  0.51100000000E-03 0. -1.
<mgrwt>
<rscale>  0 0.90454942E+02</rscale>
<asrwt>0</asrwt>
<pdfrwt beam="2">  1        2 0.19097961E-01 0.90454942E+02</pdfrwt>
<pdfrwt beam="1">  1       -2 0.25350755E-02 0.90454942E+02</pdfrwt>
<totfact> 0.13416782E+05</totfact>
</mgrwt>
</event>
<event>
 5    1  0.2799021E+000  0.9072652E+02  0.7818608E-02  0.1301102E+00
         -2   -1    0    0    0  501 -0.00000000000E+00  0.00000000000E+00  0.44912302568E+02  0.44912302643E+02  0.26000000000E-02 0.  1.
          2   -1    0    0  501    0  0.00000000000E+00 -0.00000000000E+00 -0.45818743671E+02  0.45818743744E+02  0.26000000000E-02 0. -1.
         23    2    1    2    0    0  0.00000000000E+00  0.00000000000E+00 -0.90644110296E+00  0.90731046387E+02  0.90726518412E+02 0.  0.
        -11    1    3    3    0    0 -0.42867461110E+02  0.10469286515E+02  0.10063962686E+02  0.45260452134E+02  0.51100000000E-03 0.  1.
         11    1    3    3    0    0  0.42867461110E+02 -0.10469286515E+02 -0.10970403789E+02  0.45470594253E+02  0.51100000000E-03 0. -1.
<mgrwt>
<rscale>  0 0.90726518E+02</rscale>
<asrwt>0</asrwt>
<pdfrwt beam="2">  1        2 0.70490375E-02 0.90726518E+02</pdfrwt>
<pdfrwt beam="1">  1       -2 0.69095850E-02 0.90726518E+02</pdfrwt>
<totfact> 0.10021598E+05</totfact>
</mgrwt>
</event>
<event>
 5    1  0.2799021E+000  0.8937757E+02  0.7818608E-02  0.1304366E+00
          2   -1    0    0  501    0  0.00000000000E+00  0.00000000000E+00  0.10325980193E+03  0.10325980196E+03  0.26000000000E-02 0. -1.
         -2   -1    0    0    0  501 -0.00000000000E+00 -0.00000000000E+00 -0.19340416563E+02  0.19340416738E+02  0.26000000000E-02 0.  1.
         23    2    1    2    0    0  0.00000000000E+00  0.00000000000E+00  0.83919385365E+02  0.12260021870E+03  0.89377572048E+02 0.  0.
        -11    1    3    3    0    0 -0.29173531824E+02  0.32045990386E+02  0.26993126517E+02  0.51055551494E+02  0.51100000000E-03 0.  1.
         11    1    3    3    0    0  0.29173531824E+02 -0.32045990386E+02  0.56926258848E+02  0.71544667206E+02  0.51100000000E-03 0. -1.
<mgrwt>
<rscale>  0 0.89377572E+02</rscale>
<asrwt>0</asrwt>
<pdfrwt beam="1">  1        2 0.15886123E-01 0.89377572E+02</pdfrwt>
<pdfrwt beam="2">  1       -2 0.29754487E-02 0.89377572E+02</pdfrwt>
<totfact> 0.13084853E+05</totfact>
</mgrwt>
</event>
<event>
 5    1  0.2799021E+000  0.8780162E+02  0.7818608E-02  0.1308264E+00
         -2   -1    0    0    0  501 -0.00000000000E+00  0.00000000000E+00  0.64861213883E+02  0.64861213935E+02  0.26000000000E-02 0. -1.
          2   -1    0    0  501    0  0.00000000000E+00 -0.00000000000E+00 -0.29713924077E+02  0.29713924191E+02  0.26000000000E-02 0.  1.
         23    2    1    2    0    0  0.00000000000E+00  0.00000000000E+00  0.35147289805E+02  0.94575138126E+02  0.87801621687E+02 0.  0.
        -11    1    3    3    0    0  0.85656286575E+01  0.42167537140E+02  0.81950511733E+01  0.43802169429E+02  0.51100000000E-03 0.  1.
         11    1    3    3    0    0 -0.85656286575E+01 -0.42167537140E+02  0.26952238632E+02  0.50772968697E+02  0.51100000000E-03 0. -1.
<mgrwt>
<rscale>  0 0.87801622E+02</rscale>
<asrwt>0</asrwt>
<pdfrwt beam="2">  1        2 0.45713730E-02 0.87801622E+02</pdfrwt>
<pdfrwt beam="1">  1       -2 0.99786483E-02 0.87801622E+02</pdfrwt>
<totfact> 0.98641282E+04</totfact>
</mgrwt>
</event>
<event>
 5    1  0.2799021E+000  0.9041181E+02  0.7818608E-02  0.1301858E+00
          2   -1    0    0  501    0  0.00000000000E+00  0.00000000000E+00  0.57407595029E+02  0.57407595088E+02  0.26000000000E-02 0. -1.
         -2   -1    0    0    0  501 -0.00000000000E+00 -0.00000000000E+00 -0.35597617620E+02  0.35597617715E+02  0.26000000000E-02 0.  1.
         23    2    1    2    0    0  0.00000000000E+00  0.00000000000E+00  0.21809977409E+02  0.93005212803E+02  0.90411805059E+02 0.  0.
        -11    1    3    3    0    0  0.31554194993E+02  0.26368112121E+02 -0.84120790669E+01  0.41972701045E+02  0.51100000000E-03 0.  1.
         11    1    3    3    0    0 -0.31554194993E+02 -0.26368112121E+02  0.30222056476E+02  0.51032511759E+02  0.51100000000E-03 0. -1.
<mgrwt>
<rscale>  0 0.90411805E+02</rscale>
<asrwt>0</asrwt>
<pdfrwt beam="1">  1        2 0.88319376E-02 0.90411805E+02</pdfrwt>
<pdfrwt beam="2">  1       -2 0.54765566E-02 0.90411805E+02</pdfrwt>
<totfact> 0.10734882E+05</totfact>
</mgrwt>
</event>
<event>
 5    1  0.2799021E+000  0.8922496E+02  0.7818608E-02  0.1304740E+00
          2   -1    0    0  501    0  0.00000000000E+00  0.00000000000E+00  0.13903960961E+03  0.13903960963E+03  0.26000000000E-02 0. -1.
         -2   -1    0    0    0  501 -0.00000000000E+00 -0.00000000000E+00 -0.14314432777E+02  0.14314433013E+02  0.26000000000E-02 0.  1.
         23    2    1    2    0    0  0.00000000000E+00  0.00000000000E+00  0.12472517683E+03  0.15335404265E+03  0.89224955366E+02 0.  0.
        -11    1    3    3    0    0 -0.34967346433E+02 -0.76443992456E+00  0.10996172373E+03  0.11539012250E+03  0.51100000000E-03 0. -1.
         11    1    3    3    0    0  0.34967346433E+02  0.76443992456E+00  0.14763453103E+02  0.37963920145E+02  0.51100000000E-03 0.  1.
<mgrwt>
<rscale>  0 0.89224955E+02</rscale>
<asrwt>0</asrwt>
<pdfrwt beam="1">  1        2 0.21390709E-01 0.89224955E+02</pdfrwt>
<pdfrwt beam="2">  1       -2 0.22022205E-02 0.89224955E+02</pdfrwt>
<totfact> 0.14452546E+05</totfact>
</mgrwt>
</event>
<event>
 5    1  0.2799021E+000  0.9674387E+02  0.7818608E-02  0.1287296E+00
          2   -1    0    0  501    0  0.00000000000E+00  0.00000000000E+00  0.48813567404E+02  0.48813567473E+02  0.26000000000E-02 0. -1.
         -2   -1    0    0    0  501 -0.00000000000E+00 -0.00000000000E+00 -0.47934301695E+02  0.47934301765E+02  0.26000000000E-02 0.  1.
         23    2    1    2    0    0  0.00000000000E+00  0.00000000000E+00  0.87926570911E+00  0.96747869239E+02  0.96743873677E+02 0.  0.
        -11    1    3    3    0    0 -0.16142598998E+02  0.14544579006E+02  0.43658497606E+02  0.48766717076E+02  0.51100000000E-03 0. -1.
         11    1    3    3    0    0  0.16142598998E+02 -0.14544579006E+02 -0.42779231897E+02  0.47981152163E+02  0.51100000000E-03 0.  1.
<mgrwt>
<rscale>  0 0.96743874E+02</rscale>
<asrwt>0</asrwt>
<pdfrwt beam="1">  1        2 0.75097796E-02 0.96743874E+02</pdfrwt>
<pdfrwt beam="2">  1       -2 0.73745080E-02 0.96743874E+02</pdfrwt>
<totfact> 0.84703670E+04</totfact>
</mgrwt>
</event>
<event>
 5    1  0.2799021E+000  0.9190270E+02  0.7818608E-02  0.1298308E+00
          2   -1    0    0  501    0  0.00000000000E+00  0.00000000000E+00  0.18544798744E+03  0.18544798746E+03  0.26000000000E-02 0.  1.
         -2   -1    0    0    0  501 -0.00000000000E+00 -0.00000000000E+00 -0.11386085478E+02  0.11386085774E+02  0.26000000000E-02 0. -1.
         23    2    1    2    0    0  0.00000000000E+00  0.00000000000E+00  0.17406190196E+03  0.19683407323E+03  0.91902702194E+02 0.  0.
        -11    1    3    3    0    0  0.21942046520E+02 -0.23496898765E+02  0.15735034777E+03  0.16060102615E+03  0.51100000000E-03 0.  1.
         11    1    3    3    0    0 -0.21942046520E+02  0.23496898765E+02  0.16711554192E+02  0.36233047082E+02  0.51100000000E-03 0. -1.
<mgrwt>
<rscale>  0 0.91902702E+02</rscale>
<asrwt>0</asrwt>
<pdfrwt beam="1">  1        2 0.28530459E-01 0.91902702E+02</pdfrwt>
<pdfrwt beam="2">  1       -2 0.17517055E-02 0.91902702E+02</pdfrwt>
<totfact> 0.14734651E+05</totfact>
</mgrwt>
</event>
<event>
 5    1  0.2799021E+000  0.8984829E+02  0.7818608E-02  0.1303220E+00
          2   -1    0    0  501    0  0.00000000000E+00  0.00000000000E+00  0.23085529979E+03  0.23085529981E+03  0.26000000000E-02 0.  1.
         -2   -1    0    0    0  501 -0.00000000000E+00 -0.00000000000E+00 -0.87421800846E+01  0.87421804712E+01  0.26000000000E-02 0. -1.
         23    2    1    2    0    0  0.00000000000E+00  0.00000000000E+00  0.22211311971E+03  0.23959748028E+03  0.89848286624E+02 0.  0.
        -11    1    3    3    0    0  0.23861861415E+02  0.35686086088E+02  0.14636311375E+03  0.15252883740E+03  0.51100000000E-03 0.  1.
         11    1    3    3    0    0 -0.23861861415E+02 -0.35686086088E+02  0.75750005957E+02  0.87068642882E+02  0.51100000000E-03 0. -1.
<mgrwt>
<rscale>  0 0.89848287E+02</rscale>
<asrwt>0</asrwt>
<pdfrwt beam="1">  1        2 0.35516202E-01 0.89848287E+02</pdfrwt>
<pdfrwt beam="2">  1       -2 0.13449507E-02 0.89848287E+02</pdfrwt>
<totfact> 0.16953415E+05</totfact>
</mgrwt>
</event>
<event>
 5    1  0.2799021E+000  0.9093191E+02  0.7818608E-02  0.1300611E+00
         -2   -1    0    0    0  501 -0.00000000000E+00  0.00000000000E+00  0.19436312610E+02  0.19436312784E+02  0.26000000000E-02 0.  1.
          2   -1    0    0  501    0  0.00000000000E+00 -0.00000000000E+00 -0.10635521203E+03  0.10635521207E+03  0.26000000000E-02 0. -1.
         23    2    1    2    0    0  0.00000000000E+00  0.00000000000E+00 -0.86918899424E+02  0.12579152485E+03  0.90931912148E+02 0.  0.
        -11    1    3    3    0    0 -0.18939237069E+02  0.36102569438E+02 -0.71301185874E+02  0.82133728322E+02  0.51100000000E-03 0.  1.
         11    1    3    3    0    0  0.18939237069E+02 -0.36102569438E+02 -0.15617713550E+02  0.43657796527E+02  0.51100000000E-03 0. -1.
<mgrwt>
<rscale>  0 0.90931912E+02</rscale>
<asrwt>0</asrwt>
<pdfrwt beam="2">  1        2 0.16362340E-01 0.90931912E+02</pdfrwt>
<pdfrwt beam="1">  1       -2 0.29902020E-02 0.90931912E+02</pdfrwt>
<totfact> 0.12594692E+05</totfact>
</mgrwt>
</event>
<event>
 5    1  0.2799021E+000  0.9774658E+02  0.7818608E-02  0.1285107E+00
          2   -1    0    0  501    0  0.00000000000E+00  0.00000000000E+00  0.75852244491E+02  0.75852244535E+02  0.26000000000E-02 0. -1.
         -2   -1    0    0    0  501 -0.00000000000E+00 -0.00000000000E+00 -0.31490146849E+02  0.31490146956E+02  0.26000000000E-02 0.  1.
         23    2    1    2    0    0  0.00000000000E+00  0.00000000000E+00  0.44362097642E+02  0.10734239149E+03  0.97746576942E+02 0.  0.
        -11    1    3    3    0    0 -0.12018216762E+02  0.43714965745E+02  0.42225667809E+02  0.61955167552E+02  0.51100000000E-03 0.  1.
         11    1    3    3    0    0  0.12018216762E+02 -0.43714965745E+02  0.21364298337E+01  0.45387223940E+02  0.51100000000E-03 0. -1.
<mgrwt>
<rscale>  0 0.97746577E+02</rscale>
<asrwt>0</asrwt>
<pdfrwt beam="1">  1        2 0.11669576E-01 0.97746577E+02</pdfrwt>
<pdfrwt beam="2">  1       -2 0.48446380E-02 0.97746577E+02</pdfrwt>
<totfact> 0.93073951E+04</totfact>
</mgrwt>
</event>
<event>
 5    1  0.2799021E+000  0.9075382E+02  0.7818608E-02  0.1301036E+00
          2   -1    0    0  501    0  0.00000000000E+00  0.00000000000E+00  0.20026846034E+02  0.20026846203E+02  0.26000000000E-02 0. -1.
         -2   -1    0    0    0  501 -0.00000000000E+00 -0.00000000000E+00 -0.10281518857E+03  0.10281518860E+03  0.26000000000E-02 0.  1.
         23    2    1    2    0    0  0.00000000000E+00  0.00000000000E+00 -0.82788342537E+02  0.12284203481E+03  0.90753820059E+02 0.  0.
        -11    1    3    3    0    0 -0.27572239468E+00  0.25460693119E+02 -0.92234194267E+02  0.95684217661E+02  0.51100000000E-03 0.  1.
         11    1    3    3    0    0  0.27572239468E+00 -0.25460693119E+02  0.94458517304E+01  0.27157817146E+02  0.51100000000E-03 0. -1.
<mgrwt>
<rscale>  0 0.90753820E+02</rscale>
<asrwt>0</asrwt>
<pdfrwt beam="1">  1        2 0.30810533E-02 0.90753820E+02</pdfrwt>
<pdfrwt beam="2">  1       -2 0.15817721E-01 0.90753820E+02</pdfrwt>
<totfact> 0.80066411E+04</totfact>
</mgrwt>
</event>
<event>
 5    1  0.2799021E+000  0.8946153E+02  0.7818608E-02  0.1304161E+00
          2   -1    0    0  501    0  0.00000000000E+00  0.00000000000E+00  0.10408069417E+03  0.10408069420E+03  0.26000000000E-02 0.  1.
         -2   -1    0    0    0  501 -0.00000000000E+00 -0.00000000000E+00 -0.19223944789E+02  0.19223944965E+02  0.26000000000E-02 0. -1.
         23    2    1    2    0    0  0.00000000000E+00  0.00000000000E+00  0.84856749380E+02  0.12330463917E+03  0.89461534330E+02 0.  0.
        -11    1    3    3    0    0  0.34113885671E+02  0.13226182189E+01  0.82264163176E+02  0.89066823553E+02  0.51100000000E-03 0.  1.
         11    1    3    3    0    0 -0.34113885671E+02 -0.13226182189E+01  0.25925862042E+01  0.34237815614E+02  0.51100000000E-03 0. -1.
<mgrwt>
<rscale>  0 0.89461534E+02</rscale>
<asrwt>0</asrwt>
<pdfrwt beam="1">  1        2 0.16012414E-01 0.89461534E+02</pdfrwt>
<pdfrwt beam="2">  1       -2 0.29575300E-02 0.89461534E+02</pdfrwt>
<totfact> 0.13082860E+05</totfact>
</mgrwt>
</event>
<event>
 5    1  0.2799021E+000  0.9247846E+02  0.7818608E-02  0.1296958E+00
         -2   -1    0    0    0  501 -0.00000000000E+00  0.00000000000E+00  0.48445886221E+02  0.48445886291E+02  0.26000000000E-02 0.  1.
          2   -1    0    0  501    0  0.00000000000E+00 -0.00000000000E+00 -0.44133083647E+02  0.44133083724E+02  0.26000000000E-02 0. -1.
         23    2    1    2    0    0  0.00000000000E+00  0.00000000000E+00  0.43128025735E+01  0.92578970015E+02  0.92478459238E+02 0.  0.
        -11    1    3    3    0    0  0.41743594901E+02 -0.14481220965E+02  0.15803270757E+02  0.46925226081E+02  0.51100000000E-03 0.  1.
         11    1    3    3    0    0 -0.41743594901E+02  0.14481220965E+02 -0.11490468183E+02  0.45653743934E+02  0.51100000000E-03 0. -1.
<mgrwt>
<rscale>  0 0.92478459E+02</rscale>
<asrwt>0</asrwt>
<pdfrwt beam="2">  1        2 0.67897052E-02 0.92478459E+02</pdfrwt>
<pdfrwt beam="1">  1       -2 0.74532133E-02 0.92478459E+02</pdfrwt>
<totfact> 0.93929576E+04</totfact>
</mgrwt>
</event>
<event>
 5    1  0.2799021E+000  0.9352155E+02  0.7818608E-02  0.1294541E+00
          2   -1    0    0  501    0  0.00000000000E+00  0.00000000000E+00  0.11585860752E+03  0.11585860755E+03  0.26000000000E-02 0. -1.
         -2   -1    0    0    0  501 -0.00000000000E+00 -0.00000000000E+00 -0.18872747688E+02  0.18872747867E+02  0.26000000000E-02 0.  1.
         23    2    1    2    0    0  0.00000000000E+00  0.00000000000E+00  0.96985859829E+02  0.13473135541E+03  0.93521554331E+02 0.  0.
        -11    1    3    3    0    0 -0.40632297557E-01  0.40658128817E+02  0.15217923581E+02  0.43412789455E+02  0.51100000000E-03 0.  1.
         11    1    3    3    0    0  0.40632297557E-01 -0.40658128817E+02  0.81767936248E+02  0.91318565957E+02  0.51100000000E-03 0. -1.
<mgrwt>
<rscale>  0 0.93521554E+02</rscale>
<asrwt>0</asrwt>
<pdfrwt beam="1">  1        2 0.17824401E-01 0.93521554E+02</pdfrwt>
<pdfrwt beam="2">  1       -2 0.29034996E-02 0.93521554E+02</pdfrwt>
<totfact> 0.11977437E+05</totfact>
</mgrwt>
</event>
<event>
 5    1  0.2799021E+000  0.8993092E+02  0.7818608E-02  0.1303019E+00
          2   -1    0    0  501    0  0.00000000000E+00  0.00000000000E+00  0.79898278028E+02  0.79898278070E+02  0.26000000000E-02 0. -1.
         -2   -1    0    0    0  501 -0.00000000000E+00 -0.00000000000E+00 -0.25305831486E+02  0.25305831620E+02  0.26000000000E-02 0.  1.
         23    2    1    2    0    0  0.00000000000E+00  0.00000000000E+00  0.54592446541E+02  0.10520410969E+03  0.89930915019E+02 0.  0.
        -11    1    3    3    0    0  0.28861369278E+02 -0.31388700274E+02  0.10601470046E+02  0.43938824619E+02  0.51100000000E-03 0.  1.
         11    1    3    3    0    0 -0.28861369278E+02  0.31388700274E+02  0.43990976496E+02  0.61265285071E+02  0.51100000000E-03 0. -1.
<mgrwt>
<rscale>  0 0.89930915E+02</rscale>
<asrwt>0</asrwt>
<pdfrwt beam="1">  1        2 0.12292043E-01 0.89930915E+02</pdfrwt>
<pdfrwt beam="2">  1       -2 0.38932048E-02 0.89930915E+02</pdfrwt>
<totfact> 0.11928132E+05</totfact>
</mgrwt>
</event>
<event>
 5    1  0.2799021E+000  0.9112418E+02  0.7818608E-02  0.1300152E+00
         -2   -1    0    0    0  501 -0.00000000000E+00  0.00000000000E+00  0.93382175516E+01  0.93382179135E+01  0.26000000000E-02 0.  1.
          2   -1    0    0  501    0  0.00000000000E+00 -0.00000000000E+00 -0.22230197031E+03  0.22230197032E+03  0.26000000000E-02 0. -1.
         23    2    1    2    0    0  0.00000000000E+00  0.00000000000E+00 -0.21296375275E+03  0.23164018823E+03  0.91124183498E+02 0.  0.
        -11    1    3    3    0    0  0.33325475670E+02  0.13844776680E+02 -0.17718676563E+03  0.18082426575E+03  0.51100000000E-03 0. -1.
         11    1    3    3    0    0 -0.33325475670E+02 -0.13844776680E+02 -0.35776987128E+02  0.50815922487E+02  0.51100000000E-03 0.  1.
<mgrwt>
<rscale>  0 0.91124183E+02</rscale>
<asrwt>0</asrwt>
<pdfrwt beam="2">  1        2 0.34200299E-01 0.91124183E+02</pdfrwt>
<pdfrwt beam="1">  1       -2 0.14366491E-02 0.91124183E+02</pdfrwt>
<totfact> 0.16100192E+05</totfact>
</mgrwt>
</event>
<event>
 5    1  0.2799021E+000  0.9104819E+02  0.7818608E-02  0.1300333E+00
         -2   -1    0    0    0  501 -0.00000000000E+00  0.00000000000E+00  0.95027305315E+02  0.95027305350E+02  0.26000000000E-02 0.  1.
          2   -1    0    0  501    0  0.00000000000E+00 -0.00000000000E+00 -0.21808923298E+02  0.21808923453E+02  0.26000000000E-02 0. -1.
         23    2    1    2    0    0  0.00000000000E+00  0.00000000000E+00  0.73218382017E+02  0.11683622880E+03  0.91048189965E+02 0.  0.
        -11    1    3    3    0    0 -0.25991505815E+02  0.36292419989E+02  0.25149887586E+02  0.51236851670E+02  0.51100000000E-03 0. -1.
         11    1    3    3    0    0  0.25991505815E+02 -0.36292419989E+02  0.48068494431E+02  0.65599377134E+02  0.51100000000E-03 0.  1.
<mgrwt>
<rscale>  0 0.91048190E+02</rscale>
<asrwt>0</asrwt>
<pdfrwt beam="2">  1        2 0.33552189E-02 0.91048190E+02</pdfrwt>
<pdfrwt beam="1">  1       -2 0.14619586E-01 0.91048190E+02</pdfrwt>
<totfact> 0.81302821E+04</totfact>
</mgrwt>
</event>
<event>
 5    1  0.2799021E+000  0.9014669E+02  0.7818608E-02  0.1302497E+00
          2   -1    0    0  501    0  0.00000000000E+00  0.00000000000E+00  0.32138608184E+02  0.32138608289E+02  0.26000000000E-02 0. -1.
         -2   -1    0    0    0  501 -0.00000000000E+00 -0.00000000000E+00 -0.63213892978E+02  0.63213893031E+02  0.26000000000E-02 0.  1.
         23    2    1    2    0    0  0.00000000000E+00  0.00000000000E+00 -0.31075284794E+02  0.95352501320E+02  0.90146692580E+02 0.  0.
        -11    1    3    3    0    0  0.53940724718E+01  0.10983875220E+02  0.30347969417E+02  0.32722175672E+02  0.51100000000E-03 0. -1.
         11    1    3    3    0    0 -0.53940724718E+01 -0.10983875220E+02 -0.61423254211E+02  0.62630325649E+02  0.51100000000E-03 0.  1.
<mgrwt>
<rscale>  0 0.90146693E+02</rscale>
<asrwt>0</asrwt>
<pdfrwt beam="1">  1        2 0.49444013E-02 0.90146693E+02</pdfrwt>
<pdfrwt beam="2">  1       -2 0.97252143E-02 0.90146693E+02</pdfrwt>
<totfact> 0.93162077E+04</totfact>
</mgrwt>
</event>
<event>
 5    1  0.2799021E+000  0.9102276E+02  0.7818608E-02  0.1300394E+00
          2   -1    0    0  501    0  0.00000000000E+00  0.00000000000E+00  0.40257025210E+02  0.40257025294E+02  0.26000000000E-02 0.  1.
         -2   -1    0    0    0  501 -0.00000000000E+00 -0.00000000000E+00 -0.51451532211E+02  0.51451532277E+02  0.26000000000E-02 0. -1.
         23    2    1    2    0    0  0.00000000000E+00  0.00000000000E+00 -0.11194507001E+02  0.91708557571E+02  0.91022758389E+02 0.  0.
        -11    1    3    3    0    0 -0.76474107907E+01 -0.40912030911E+02  0.12953653379E+02  0.43589841720E+02  0.51100000000E-03 0.  1.
         11    1    3    3    0    0  0.76474107907E+01  0.40912030911E+02 -0.24148160380E+02  0.48118715850E+02  0.51100000000E-03 0. -1.
<mgrwt>
<rscale>  0 0.91022758E+02</rscale>
<asrwt>0</asrwt>
<pdfrwt beam="1">  1        2 0.61933885E-02 0.91022758E+02</pdfrwt>
<pdfrwt beam="2">  1       -2 0.79156204E-02 0.91022758E+02</pdfrwt>
<totfact> 0.96016065E+04</totfact>
</mgrwt>
</event>
<event>
 5    1  0.2799021E+000  0.9305329E+02  0.7818608E-02  0.1295622E+00
         -2   -1    0    0    0  501 -0.00000000000E+00  0.00000000000E+00  0.20544708935E+02  0.20544709100E+02  0.26000000000E-02 0.  1.
          2   -1    0    0  501    0  0.00000000000E+00 -0.00000000000E+00 -0.10536671356E+03  0.10536671359E+03  0.26000000000E-02 0. -1.
         23    2    1    2    0    0  0.00000000000E+00  0.00000000000E+00 -0.84822004624E+02  0.12591142269E+03  0.93053285249E+02 0.  0.
        -11    1    3    3    0    0  0.26054995869E+02 -0.23330037726E+02 -0.89066425089E+00  0.34984950380E+02  0.51100000000E-03 0.  1.
         11    1    3    3    0    0 -0.26054995869E+02  0.23330037726E+02 -0.83931340373E+02  0.90926472312E+02  0.51100000000E-03 0. -1.
<mgrwt>
<rscale>  0 0.93053285E+02</rscale>
<asrwt>0</asrwt>
<pdfrwt beam="2">  1        2 0.16210263E-01 0.93053285E+02</pdfrwt>
<pdfrwt beam="1">  1       -2 0.31607245E-02 0.93053285E+02</pdfrwt>
<totfact> 0.11785836E+05</totfact>
</mgrwt>
</event>
<event>
 5    1  0.2799021E+000  0.9373300E+02  0.7818608E-02  0.1294055E+00
         -2   -1    0    0    0  501 -0.00000000000E+00  0.00000000000E+00  0.11265256480E+02  0.11265256780E+02  0.26000000000E-02 0.  1.
          2   -1    0    0  501    0  0.00000000000E+00 -0.00000000000E+00 -0.19497726570E+03  0.19497726572E+03  0.26000000000E-02 0. -1.
         23    2    1    2    0    0  0.00000000000E+00  0.00000000000E+00 -0.18371200922E+03  0.20624252249E+03  0.93733002481E+02 0.  0.
        -11    1    3    3    0    0  0.19705537592E+02  0.38033927815E+02 -0.50016308571E+02  0.65852251291E+02  0.51100000000E-03 0.  1.
         11    1    3    3    0    0 -0.19705537592E+02 -0.38033927815E+02 -0.13369570065E+03  0.14039027120E+03  0.51100000000E-03 0. -1.
<mgrwt>
<rscale>  0 0.93733002E+02</rscale>
<asrwt>0</asrwt>
<pdfrwt beam="2">  1        2 0.29996500E-01 0.93733002E+02</pdfrwt>
<pdfrwt beam="1">  1       -2 0.17331166E-02 0.93733002E+02</pdfrwt>
<totfact> 0.14223880E+05</totfact>
</mgrwt>
</event>
<event>
 5    1  0.2799021E+000  0.9145172E+02  0.7818608E-02  0.1299374E+00
          2   -1    0    0  501    0  0.00000000000E+00  0.00000000000E+00  0.20077403849E+02  0.20077404017E+02  0.26000000000E-02 0. -1.
         -2   -1    0    0    0  501 -0.00000000000E+00 -0.00000000000E+00 -0.10413968279E+03  0.10413968282E+03  0.26000000000E-02 0.  1.
         23    2    1    2    0    0  0.00000000000E+00  0.00000000000E+00 -0.84062278941E+02  0.12421708684E+03  0.91451724544E+02 0.  0.
        -11    1    3    3    0    0 -0.43803993976E+02 -0.95308530432E+01 -0.29789465673E+02  0.53824151766E+02  0.51100000000E-03 0. -1.
         11    1    3    3    0    0  0.43803993976E+02  0.95308530432E+01 -0.54272813268E+02  0.70392935074E+02  0.51100000000E-03 0.  1.
<mgrwt>
<rscale>  0 0.91451725E+02</rscale>
<asrwt>0</asrwt>
<pdfrwt beam="1">  1        2 0.30888314E-02 0.91451725E+02</pdfrwt>
<pdfrwt beam="2">  1       -2 0.16021489E-01 0.91451725E+02</pdfrwt>
<totfact> 0.78248218E+04</totfact>
</mgrwt>
</event>
<event>
 5    1  0.2799021E+000  0.8962160E+02  0.7818608E-02  0.1303771E+00
          2   -1    0    0  501    0  0.00000000000E+00  0.00000000000E+00  0.58626931278E+02  0.58626931335E+02  0.26000000000E-02 0. -1.
         -2   -1    0    0    0  501 -0.00000000000E+00 -0.00000000000E+00 -0.34250602094E+02  0.34250602193E+02  0.26000000000E-02 0.  1.
         23    2    1    2    0    0  0.00000000000E+00  0.00000000000E+00  0.24376329183E+02  0.92877533528E+02  0.89621597898E+02 0.  0.
        -11    1    3    3    0    0  0.51240782795E+01 -0.44266999652E+02  0.73070329467E+01  0.45157681153E+02  0.51100000000E-03 0. -1.
         11    1    3    3    0    0 -0.51240782795E+01  0.44266999652E+02  0.17069296237E+02  0.47719852375E+02  0.51100000000E-03 0.  1.
<mgrwt>
<rscale>  0 0.89621598E+02</rscale>
<asrwt>0</asrwt>
<pdfrwt beam="1">  1        2 0.90195278E-02 0.89621598E+02</pdfrwt>
<pdfrwt beam="2">  1       -2 0.52693235E-02 0.89621598E+02</pdfrwt>
<totfact> 0.11064999E+05</totfact>
</mgrwt>
</event>
<event>
 5    1  0.2799021E+000  0.8719456E+02  0.7818608E-02  0.1309791E+00
          2   -1    0    0  501    0  0.00000000000E+00  0.00000000000E+00  0.28940262314E+03  0.28940262315E+03  0.26000000000E-02 0. -1.
         -2   -1    0    0    0  501 -0.00000000000E+00 -0.00000000000E+00 -0.65677450946E+01  0.65677456092E+01  0.26000000000E-02 0.  1.
         23    2    1    2    0    0  0.00000000000E+00  0.00000000000E+00  0.28283487804E+03  0.29597036876E+03  0.87194558004E+02 0.  0.
        -11    1    3    3    0    0 -0.19893747680E+02  0.38791151327E+02  0.13986893007E+03  0.14650539996E+03  0.51100000000E-03 0. -1.
         11    1    3    3    0    0  0.19893747680E+02 -0.38791151327E+02  0.14296594797E+03  0.14946496880E+03  0.51100000000E-03 0.  1.
<mgrwt>
<rscale>  0 0.87194558E+02</rscale>
<asrwt>0</asrwt>
<pdfrwt beam="1">  1        2 0.44523476E-01 0.87194558E+02</pdfrwt>
<pdfrwt beam="2">  1       -2 0.10104225E-02 0.87194558E+02</pdfrwt>
<totfact> 0.19964565E+05</totfact>
</mgrwt>
</event>
<event>
 5    1  0.2799021E+000  0.9265169E+02  0.7818608E-02  0.1296554E+00
          2   -1    0    0  501    0  0.00000000000E+00  0.00000000000E+00  0.82472724774E+02  0.82472724815E+02  0.26000000000E-02 0. -1.
         -2   -1    0    0    0  501 -0.00000000000E+00 -0.00000000000E+00 -0.26021738504E+02  0.26021738634E+02  0.26000000000E-02 0.  1.
         23    2    1    2    0    0  0.00000000000E+00  0.00000000000E+00  0.56450986270E+02  0.10849446345E+03  0.92651685081E+02 0.  0.
        -11    1    3    3    0    0 -0.42231471523E+02 -0.10672369314E+02  0.46691833009E+02  0.63855492511E+02  0.51100000000E-03 0.  1.
         11    1    3    3    0    0  0.42231471523E+02  0.10672369314E+02  0.97591532606E+01  0.44638970938E+02  0.51100000000E-03 0. -1.
<mgrwt>
<rscale>  0 0.92651685E+02</rscale>
<asrwt>0</asrwt>
<pdfrwt beam="1">  1        2 0.12688111E-01 0.92651685E+02</pdfrwt>
<pdfrwt beam="2">  1       -2 0.40033445E-02 0.92651685E+02</pdfrwt>
<totfact> 0.11080661E+05</totfact>
</mgrwt>
</event>
<event>
 5    1  0.2799021E+000  0.9255154E+02  0.7818608E-02  0.1296788E+00
         -2   -1    0    0    0  501 -0.00000000000E+00  0.00000000000E+00  0.27501631178E+03  0.27501631179E+03  0.26000000000E-02 0.  1.
          2   -1    0    0  501    0  0.00000000000E+00 -0.00000000000E+00 -0.77866168191E+01  0.77866172531E+01  0.26000000000E-02 0. -1.
         23    2    1    2    0    0  0.00000000000E+00  0.00000000000E+00  0.26722969496E+03  0.28280292904E+03  0.92551535955E+02 0.  0.
        -11    1    3    3    0    0 -0.20636859048E+02  0.35636162677E+02  0.69110675565E+02  0.80449372396E+02  0.51100000000E-03 0. -1.
         11    1    3    3    0    0  0.20636859048E+02 -0.35636162677E+02  0.19811901939E+03  0.20235355665E+03  0.51100000000E-03 0.  1.
<mgrwt>
<rscale>  0 0.92551536E+02</rscale>
<asrwt>0</asrwt>
<pdfrwt beam="2">  1        2 0.11979412E-02 0.92551536E+02</pdfrwt>
<pdfrwt beam="1">  1       -2 0.42310199E-01 0.92551536E+02</pdfrwt>
<totfact> 0.51463092E+04</totfact>
</mgrwt>
</event>
<event>
 5    1  0.2799021E+000  0.9737787E+02  0.7818608E-02  0.1285909E+00
         -2   -1    0    0    0  501 -0.00000000000E+00  0.00000000000E+00  0.12382023715E+02  0.12382023988E+02  0.26000000000E-02 0. -1.
          2   -1    0    0  501    0  0.00000000000E+00 -0.00000000000E+00 -0.19145595512E+03  0.19145595514E+03  0.26000000000E-02 0.  1.
         23    2    1    2    0    0  0.00000000000E+00  0.00000000000E+00 -0.17907393141E+03  0.20383797913E+03  0.97377866198E+02 0.  0.
        -11    1    3    3    0    0 -0.48059173611E+02 -0.68363345988E+01 -0.81650991900E+02  0.94991073883E+02  0.51100000000E-03 0.  1.
         11    1    3    3    0    0  0.48059173611E+02  0.68363345988E+01 -0.97422939508E+02  0.10884690525E+03  0.51100000000E-03 0. -1.
<mgrwt>
<rscale>  0 0.97377866E+02</rscale>
<asrwt>0</asrwt>
<pdfrwt beam="2">  1        2 0.29454760E-01 0.97377866E+02</pdfrwt>
<pdfrwt beam="1">  1       -2 0.19049269E-02 0.97377866E+02</pdfrwt>
<totfact> 0.12741489E+05</totfact>
</mgrwt>
</event>
<event>
 5    1  0.2799021E+000  0.9106783E+02  0.7818608E-02  0.1300286E+00
         -2   -1    0    0    0  501 -0.00000000000E+00  0.00000000000E+00  0.93398151266E+01  0.93398154885E+01  0.26000000000E-02 0.  1.
          2   -1    0    0  501    0  0.00000000000E+00 -0.00000000000E+00 -0.22198910495E+03  0.22198910496E+03  0.26000000000E-02 0. -1.
         23    2    1    2    0    0  0.00000000000E+00  0.00000000000E+00 -0.21264928982E+03  0.23132892045E+03  0.91067826239E+02 0.  0.
        -11    1    3    3    0    0  0.36358501099E+02 -0.27263370744E+02 -0.11355647745E+03  0.12231232791E+03  0.51100000000E-03 0. -1.
         11    1    3    3    0    0 -0.36358501099E+02  0.27263370744E+02 -0.99092812372E+02  0.10901659255E+03  0.51100000000E-03 0.  1.
<mgrwt>
<rscale>  0 0.91067826E+02</rscale>
<asrwt>0</asrwt>
<pdfrwt beam="2">  1        2 0.34152166E-01 0.91067826E+02</pdfrwt>
<pdfrwt beam="1">  1       -2 0.14368948E-02 0.91067826E+02</pdfrwt>
<totfact> 0.16118658E+05</totfact>
</mgrwt>
</event>
<event>
 5    1  0.2799021E+000  0.9081876E+02  0.7818608E-02  0.1300881E+00
         -2   -1    0    0    0  501 -0.00000000000E+00  0.00000000000E+00  0.21182684072E+02  0.21182684231E+02  0.26000000000E-02 0.  1.
          2   -1    0    0  501    0  0.00000000000E+00 -0.00000000000E+00 -0.97344212937E+02  0.97344212972E+02  0.26000000000E-02 0. -1.
         23    2    1    2    0    0  0.00000000000E+00  0.00000000000E+00 -0.76161528866E+02  0.11852689720E+03  0.90818758423E+02 0.  0.
        -11    1    3    3    0    0  0.40588349615E+02  0.77440641592E+01 -0.62657675312E+02  0.75055772129E+02  0.51100000000E-03 0. -1.
         11    1    3    3    0    0 -0.40588349615E+02 -0.77440641592E+01 -0.13503853554E+02  0.43471125074E+02  0.51100000000E-03 0.  1.
<mgrwt>
<rscale>  0 0.90818758E+02</rscale>
<asrwt>0</asrwt>
<pdfrwt beam="2">  1        2 0.14976033E-01 0.90818758E+02</pdfrwt>
<pdfrwt beam="1">  1       -2 0.32588745E-02 0.90818758E+02</pdfrwt>
<totfact> 0.12300467E+05</totfact>
</mgrwt>
</event>
<event>
 5    1  0.2799021E+000  0.9200136E+02  0.7818608E-02  0.1298076E+00
          2   -1    0    0  501    0  0.00000000000E+00  0.00000000000E+00  0.42879581392E+02  0.42879581471E+02  0.26000000000E-02 0. -1.
         -2   -1    0    0    0  501 -0.00000000000E+00 -0.00000000000E+00 -0.49348958765E+02  0.49348958834E+02  0.26000000000E-02 0.  1.
         23    2    1    2    0    0  0.00000000000E+00  0.00000000000E+00 -0.64693773730E+01  0.92228540304E+02  0.92001363050E+02 0.  0.
        -11    1    3    3    0    0  0.21444691503E+02 -0.21362871532E+02 -0.37958575383E+02  0.48549979599E+02  0.51100000000E-03 0.  1.
         11    1    3    3    0    0 -0.21444691503E+02  0.21362871532E+02  0.31489198010E+02  0.43678560705E+02  0.51100000000E-03 0. -1.
<mgrwt>
<rscale>  0 0.92001363E+02</rscale>
<asrwt>0</asrwt>
<pdfrwt beam="1">  1        2 0.65968587E-02 0.92001363E+02</pdfrwt>
<pdfrwt beam="2">  1       -2 0.75921475E-02 0.92001363E+02</pdfrwt>
<totfact> 0.94628123E+04</totfact>
</mgrwt>
</event>
<event>
 5    1  0.2799021E+000  0.9060819E+02  0.7818608E-02  0.1301386E+00
          2   -1    0    0  501    0  0.00000000000E+00  0.00000000000E+00  0.32012418854E+03  0.32012418855E+03  0.26000000000E-02 0. -1.
         -2   -1    0    0    0  501 -0.00000000000E+00 -0.00000000000E+00 -0.64114526032E+01  0.64114531304E+01  0.26000000000E-02 0.  1.
         23    2    1    2    0    0  0.00000000000E+00  0.00000000000E+00  0.31371273593E+03  0.32653564168E+03  0.90608192780E+02 0.  0.
        -11    1    3    3    0    0 -0.37154734437E+02 -0.25570384516E+02  0.17220639785E+03  0.17801506205E+03  0.51100000000E-03 0.  1.
         11    1    3    3    0    0  0.37154734437E+02  0.25570384516E+02  0.14150633808E+03  0.14852057963E+03  0.51100000000E-03 0. -1.
<mgrwt>
<rscale>  0 0.90608193E+02</rscale>
<asrwt>0</asrwt>
<pdfrwt beam="1">  1        2 0.49249865E-01 0.90608193E+02</pdfrwt>
<pdfrwt beam="2">  1       -2 0.98637757E-03 0.90608193E+02</pdfrwt>
<totfact> 0.18713870E+05</totfact>
</mgrwt>
</event>
<event>
 5    1  0.2799021E+000  0.9039766E+02  0.7818608E-02  0.1301892E+00
         -2   -1    0    0    0  501 -0.00000000000E+00  0.00000000000E+00  0.59407584634E+02  0.59407584691E+02  0.26000000000E-02 0.  1.
          2   -1    0    0  501    0  0.00000000000E+00 -0.00000000000E+00 -0.34388438977E+02  0.34388439075E+02  0.26000000000E-02 0. -1.
         23    2    1    2    0    0  0.00000000000E+00  0.00000000000E+00  0.25019145658E+02  0.93796023766E+02  0.90397657187E+02 0.  0.
        -11    1    3    3    0    0  0.53901891237E+01 -0.18703007142E+02 -0.29817089741E+02  0.35607800491E+02  0.51100000000E-03 0. -1.
         11    1    3    3    0    0 -0.53901891237E+01  0.18703007142E+02  0.54836235399E+02  0.58188223275E+02  0.51100000000E-03 0.  1.
<mgrwt>
<rscale>  0 0.90397657E+02</rscale>
<asrwt>0</asrwt>
<pdfrwt beam="2">  1        2 0.52905292E-02 0.90397657E+02</pdfrwt>
<pdfrwt beam="1">  1       -2 0.91396283E-02 0.90397657E+02</pdfrwt>
<totfact> 0.94047741E+04</totfact>
</mgrwt>
</event>
<event>
 5    1  0.2799021E+000  0.9250137E+02  0.7818608E-02  0.1296905E+00
          2   -1    0    0  501    0  0.00000000000E+00  0.00000000000E+00  0.21489996924E+02  0.21489997081E+02  0.26000000000E-02 0. -1.
         -2   -1    0    0    0  501 -0.00000000000E+00 -0.00000000000E+00 -0.99540530079E+02  0.99540530113E+02  0.26000000000E-02 0.  1.
         23    2    1    2    0    0  0.00000000000E+00  0.00000000000E+00 -0.78050533155E+02  0.12103052719E+03  0.92501366406E+02 0.  0.
        -11    1    3    3    0    0 -0.35427065772E+02 -0.17558223287E+02 -0.76298261574E+01  0.40268876836E+02  0.51100000000E-03 0. -1.
         11    1    3    3    0    0  0.35427065772E+02  0.17558223287E+02 -0.70420706998E+02  0.80761650358E+02  0.51100000000E-03 0.  1.
<mgrwt>
<rscale>  0 0.92501366E+02</rscale>
<asrwt>0</asrwt>
<pdfrwt beam="1">  1        2 0.33061534E-02 0.92501366E+02</pdfrwt>
<pdfrwt beam="2">  1       -2 0.15313927E-01 0.92501366E+02</pdfrwt>
<totfact> 0.77096993E+04</totfact>
</mgrwt>
</event>
<event>
 5    1  0.2799021E+000  0.9124165E+02  0.7818608E-02  0.1299872E+00
         -2   -1    0    0    0  501 -0.00000000000E+00  0.00000000000E+00  0.95615157497E+02  0.95615157532E+02  0.26000000000E-02 0.  1.
          2   -1    0    0  501    0  0.00000000000E+00 -0.00000000000E+00 -0.21767049669E+02  0.21767049825E+02  0.26000000000E-02 0. -1.
         23    2    1    2    0    0  0.00000000000E+00  0.00000000000E+00  0.73848107827E+02  0.11738220736E+03  0.91241654820E+02 0.  0.
        -11    1    3    3    0    0  0.14298835911E+02 -0.15921810795E+02  0.88757298632E+02  0.91300705518E+02  0.51100000000E-03 0.  1.
         11    1    3    3    0    0 -0.14298835911E+02  0.15921810795E+02 -0.14909190805E+02  0.26081501838E+02  0.51100000000E-03 0. -1.
<mgrwt>
<rscale>  0 0.91241655E+02</rscale>
<asrwt>0</asrwt>
<pdfrwt beam="2">  1        2 0.33487769E-02 0.91241655E+02</pdfrwt>
<pdfrwt beam="1">  1       -2 0.14710024E-01 0.91241655E+02</pdfrwt>
<totfact> 0.80729163E+04</totfact>
</mgrwt>
</event>
<event>
 5    1  0.2799021E+000  0.8943482E+02  0.7818608E-02  0.1304226E+00
         -2   -1    0    0    0  501 -0.00000000000E+00  0.00000000000E+00  0.66030537017E+02  0.66030537068E+02  0.26000000000E-02 0. -1.
          2   -1    0    0  501    0  0.00000000000E+00 -0.00000000000E+00 -0.30283663964E+02  0.30283664075E+02  0.26000000000E-02 0.  1.
         23    2    1    2    0    0  0.00000000000E+00  0.00000000000E+00  0.35746873053E+02  0.96314201143E+02  0.89434816536E+02 0.  0.
        -11    1    3    3    0    0 -0.93271019347E+01  0.97201911312E+01 -0.28046460879E+02  0.31113998686E+02  0.51100000000E-03 0.  1.
         11    1    3    3    0    0  0.93271019347E+01 -0.97201911312E+01  0.63793333932E+02  0.65200202458E+02  0.51100000000E-03 0. -1.
<mgrwt>
<rscale>  0 0.89434817E+02</rscale>
<asrwt>0</asrwt>
<pdfrwt beam="2">  1        2 0.46590253E-02 0.89434817E+02</pdfrwt>
<pdfrwt beam="1">  1       -2 0.10158544E-01 0.89434817E+02</pdfrwt>
<totfact> 0.93892435E+04</totfact>
</mgrwt>
</event>
<event>
 5    1  0.2799021E+000  0.9529005E+02  0.7818608E-02  0.1290524E+00
          2   -1    0    0  501    0  0.00000000000E+00  0.00000000000E+00  0.70641118534E+02  0.70641118582E+02  0.26000000000E-02 0. -1.
         -2   -1    0    0    0  501 -0.00000000000E+00 -0.00000000000E+00 -0.32134943783E+02  0.32134943889E+02  0.26000000000E-02 0.  1.
         23    2    1    2    0    0  0.00000000000E+00  0.00000000000E+00  0.38506174750E+02  0.10277606247E+03  0.95290049444E+02 0.  0.
        -11    1    3    3    0    0 -0.85624674374E+01 -0.30460782831E+02 -0.19166574837E+02  0.36993685009E+02  0.51100000000E-03 0.  1.
         11    1    3    3    0    0  0.85624674374E+01  0.30460782831E+02  0.57672749587E+02  0.65782377462E+02  0.51100000000E-03 0. -1.
<mgrwt>
<rscale>  0 0.95290049E+02</rscale>
<asrwt>0</asrwt>
<pdfrwt beam="1">  1        2 0.10867864E-01 0.95290049E+02</pdfrwt>
<pdfrwt beam="2">  1       -2 0.49438376E-02 0.95290049E+02</pdfrwt>
<totfact> 0.97970722E+04</totfact>
</mgrwt>
</event>
<event>
 5    1  0.2799021E+000  0.9114320E+02  0.7818608E-02  0.1300107E+00
         -2   -1    0    0    0  501 -0.00000000000E+00  0.00000000000E+00  0.57841973963E+01  0.57841979806E+01  0.26000000000E-02 0. -1.
          2   -1    0    0  501    0  0.00000000000E+00 -0.00000000000E+00 -0.35904217546E+03  0.35904217547E+03  0.26000000000E-02 0.  1.
         23    2    1    2    0    0  0.00000000000E+00  0.00000000000E+00 -0.35325797807E+03  0.36482637345E+03  0.91143204349E+02 0.  0.
        -11    1    3    3    0    0  0.12651319769E+02  0.41254131817E+02 -0.23529557815E+03  0.23921949833E+03  0.51100000000E-03 0.  1.
         11    1    3    3    0    0 -0.12651319769E+02 -0.41254131817E+02 -0.11796239991E+03  0.12560687512E+03  0.51100000000E-03 0. -1.
<mgrwt>
<rscale>  0 0.91143204E+02</rscale>
<asrwt>0</asrwt>
<pdfrwt beam="2">  1        2 0.55237240E-01 0.91143204E+02</pdfrwt>
<pdfrwt beam="1">  1       -2 0.88987685E-03 0.91143204E+02</pdfrwt>
<totfact> 0.19216535E+05</totfact>
</mgrwt>
</event>
<event>
 5    1  0.2799021E+000  0.9149146E+02  0.7818608E-02  0.1299280E+00
         -2   -1    0    0    0  501 -0.00000000000E+00  0.00000000000E+00  0.18026947695E+03  0.18026947697E+03  0.26000000000E-02 0. -1.
          2   -1    0    0  501    0  0.00000000000E+00 -0.00000000000E+00 -0.11608574577E+02  0.11608574868E+02  0.26000000000E-02 0.  1.
         23    2    1    2    0    0  0.00000000000E+00  0.00000000000E+00  0.16866090237E+03  0.19187805183E+03  0.91491457455E+02 0.  0.
        -11    1    3    3    0    0  0.18449919305E+02  0.37122116307E+02  0.43760112642E+02  0.60277678292E+02  0.51100000000E-03 0.  1.
         11    1    3    3    0    0 -0.18449919305E+02 -0.37122116307E+02  0.12490078973E+03  0.13160037354E+03  0.51100000000E-03 0. -1.
<mgrwt>
<rscale>  0 0.91491457E+02</rscale>
<asrwt>0</asrwt>
<pdfrwt beam="2">  1        2 0.17859346E-02 0.91491457E+02</pdfrwt>
<pdfrwt beam="1">  1       -2 0.27733765E-01 0.91491457E+02</pdfrwt>
<totfact> 0.64525021E+04</totfact>
</mgrwt>
</event>
<event>
 5    1  0.2799021E+000  0.6081417E+02  0.7818608E-02  0.1394446E+00
          2   -1    0    0  501    0  0.00000000000E+00  0.00000000000E+00  0.18757910400E+03  0.18757910402E+03  0.26000000000E-02 0.  1.
         -2   -1    0    0    0  501 -0.00000000000E+00 -0.00000000000E+00 -0.49290713238E+01  0.49290720095E+01  0.26000000000E-02 0. -1.
         23    2    1    2    0    0  0.00000000000E+00  0.00000000000E+00  0.18265003267E+03  0.19250817603E+03  0.60814171052E+02 0.  0.
        -11    1    3    3    0    0  0.22800029010E+02 -0.12291954474E+02  0.14174098791E+03  0.14408831015E+03  0.51100000000E-03 0.  1.
         11    1    3    3    0    0 -0.22800029010E+02  0.12291954474E+02  0.40909044760E+02  0.48419865872E+02  0.51100000000E-03 0. -1.
<mgrwt>
<rscale>  0 0.60814171E+02</rscale>
<asrwt>0</asrwt>
<pdfrwt beam="1">  1        2 0.28858319E-01 0.60814171E+02</pdfrwt>
<pdfrwt beam="2">  1       -2 0.75831885E-03 0.60814171E+02</pdfrwt>
<totfact> 0.43864828E+05</totfact>
</mgrwt>
</event>
<event>
 5    1  0.2799021E+000  0.8894418E+02  0.7818608E-02  0.1305429E+00
         -2   -1    0    0    0  501 -0.00000000000E+00  0.00000000000E+00  0.18000345982E+02  0.18000346170E+02  0.26000000000E-02 0.  1.
          2   -1    0    0  501    0  0.00000000000E+00 -0.00000000000E+00 -0.10987381305E+03  0.10987381308E+03  0.26000000000E-02 0. -1.
         23    2    1    2    0    0  0.00000000000E+00  0.00000000000E+00 -0.91873467065E+02  0.12787415925E+03  0.88944177172E+02 0.  0.
        -11    1    3    3    0    0  0.32362661766E+01  0.41741482659E+02 -0.67499298443E+02  0.79429088399E+02  0.51100000000E-03 0. -1.
         11    1    3    3    0    0 -0.32362661766E+01 -0.41741482659E+02 -0.24374168622E+02  0.48445070849E+02  0.51100000000E-03 0.  1.
<mgrwt>
<rscale>  0 0.88944177E+02</rscale>
<asrwt>0</asrwt>
<pdfrwt beam="2">  1        2 0.16903663E-01 0.88944177E+02</pdfrwt>
<pdfrwt beam="1">  1       -2 0.27692841E-02 0.88944177E+02</pdfrwt>
<totfact> 0.13515551E+05</totfact>
</mgrwt>
</event>
<event>
 5    1  0.2799021E+000  0.9277296E+02  0.7818608E-02  0.1296272E+00
         -2   -1    0    0    0  501 -0.00000000000E+00  0.00000000000E+00  0.10135488113E+03  0.10135488117E+03  0.26000000000E-02 0.  1.
          2   -1    0    0  501    0  0.00000000000E+00 -0.00000000000E+00 -0.21229422210E+02  0.21229422369E+02  0.26000000000E-02 0. -1.
         23    2    1    2    0    0  0.00000000000E+00  0.00000000000E+00  0.80125458922E+02  0.12258430354E+03  0.92772961070E+02 0.  0.
        -11    1    3    3    0    0 -0.15164691532E+02 -0.43836167255E+02  0.39589721869E+02  0.60982977189E+02  0.51100000000E-03 0.  1.
         11    1    3    3    0    0  0.15164691532E+02  0.43836167255E+02  0.40535737053E+02  0.61601326346E+02  0.51100000000E-03 0. -1.
<mgrwt>
<rscale>  0 0.92772961E+02</rscale>
<asrwt>0</asrwt>
<pdfrwt beam="2">  1        2 0.32660649E-02 0.92772961E+02</pdfrwt>
<pdfrwt beam="1">  1       -2 0.15593059E-01 0.92772961E+02</pdfrwt>
<totfact> 0.76121191E+04</totfact>
</mgrwt>
</event>
<event>
 5    1  0.2799021E+000  0.1019524E+03  0.7818608E-02  0.1276243E+00
         -2   -1    0    0    0  501 -0.00000000000E+00  0.00000000000E+00  0.15108438148E+03  0.15108438150E+03  0.26000000000E-02 0. -1.
          2   -1    0    0  501    0  0.00000000000E+00 -0.00000000000E+00 -0.17199480371E+02  0.17199480567E+02  0.26000000000E-02 0.  1.
         23    2    1    2    0    0  0.00000000000E+00  0.00000000000E+00  0.13388490111E+03  0.16828386207E+03  0.10195239815E+03 0.  0.
        -11    1    3    3    0    0  0.23662068701E+02  0.36500888725E+02  0.11081162448E+03  0.11904379234E+03  0.51100000000E-03 0. -1.
         11    1    3    3    0    0 -0.23662068701E+02 -0.36500888725E+02  0.23073276628E+02  0.49240069735E+02  0.51100000000E-03 0.  1.
<mgrwt>
<rscale>  0 0.10195240E+03</rscale>
<asrwt>0</asrwt>
<pdfrwt beam="2">  1        2 0.26460738E-02 0.10195240E+03</pdfrwt>
<pdfrwt beam="1">  1       -2 0.23243752E-01 0.10195240E+03</pdfrwt>
<totfact> 0.52494693E+04</totfact>
</mgrwt>
</event>
<event>
 5    1  0.2799021E+000  0.8989718E+02  0.7818608E-02  0.1303101E+00
         -2   -1    0    0    0  501 -0.00000000000E+00  0.00000000000E+00  0.32730616462E+02  0.32730616565E+02  0.26000000000E-02 0.  1.
          2   -1    0    0  501    0  0.00000000000E+00 -0.00000000000E+00 -0.61727400647E+02  0.61727400702E+02  0.26000000000E-02 0. -1.
         23    2    1    2    0    0  0.00000000000E+00  0.00000000000E+00 -0.28996784185E+02  0.94458017267E+02  0.89897183120E+02 0.  0.
        -11    1    3    3    0    0  0.39951900463E+02 -0.15438652038E+02 -0.17331816438E+00  0.42831488029E+02  0.51100000000E-03 0.  1.
         11    1    3    3    0    0 -0.39951900463E+02  0.15438652038E+02 -0.28823466021E+02  0.51626529237E+02  0.51100000000E-03 0. -1.
<mgrwt>
<rscale>  0 0.89897183E+02</rscale>
<asrwt>0</asrwt>
<pdfrwt beam="2">  1        2 0.94965232E-02 0.89897183E+02</pdfrwt>
<pdfrwt beam="1">  1       -2 0.50354794E-02 0.89897183E+02</pdfrwt>
<totfact> 0.11121374E+05</totfact>
</mgrwt>
</event>
<event>
 5    1  0.2799021E+000  0.9113280E+02  0.7818608E-02  0.1300131E+00
          2   -1    0    0  501    0  0.00000000000E+00  0.00000000000E+00  0.34600256011E+02  0.34600256109E+02  0.26000000000E-02 0. -1.
         -2   -1    0    0    0  501 -0.00000000000E+00 -0.00000000000E+00 -0.60008139409E+02  0.60008139465E+02  0.26000000000E-02 0.  1.
         23    2    1    2    0    0  0.00000000000E+00  0.00000000000E+00 -0.25407883398E+02  0.94608395574E+02  0.91132804052E+02 0.  0.
        -11    1    3    3    0    0 -0.20768309928E+02 -0.39116856488E+02 -0.15786202421E+01  0.44316398780E+02  0.51100000000E-03 0. -1.
         11    1    3    3    0    0  0.20768309928E+02  0.39116856488E+02 -0.23829263155E+02  0.50291996794E+02  0.51100000000E-03 0.  1.
<mgrwt>
<rscale>  0 0.91132804E+02</rscale>
<asrwt>0</asrwt>
<pdfrwt beam="1">  1        2 0.53231163E-02 0.91132804E+02</pdfrwt>
<pdfrwt beam="2">  1       -2 0.92320214E-02 0.91132804E+02</pdfrwt>
<totfact> 0.91991742E+04</totfact>
</mgrwt>
</event>
<event>
 5    1  0.2799021E+000  0.9258361E+02  0.7818608E-02  0.1296713E+00
         -2   -1    0    0    0  501 -0.00000000000E+00  0.00000000000E+00  0.35663659092E+03  0.35663659093E+03  0.26000000000E-02 0.  1.
          2   -1    0    0  501    0  0.00000000000E+00 -0.00000000000E+00 -0.60087252340E+01  0.60087257965E+01  0.26000000000E-02 0. -1.
         23    2    1    2    0    0  0.00000000000E+00  0.00000000000E+00  0.35062786568E+03  0.36264531672E+03  0.92583613819E+02 0.  0.
        -11    1    3    3    0    0  0.33833065016E+02  0.28720226664E+02  0.12373443640E+03  0.13145241899E+03  0.51100000000E-03 0. -1.
         11    1    3    3    0    0 -0.33833065016E+02 -0.28720226664E+02  0.22689342928E+03  0.23119289773E+03  0.51100000000E-03 0.  1.
<mgrwt>
<rscale>  0 0.92583614E+02</rscale>
<asrwt>0</asrwt>
<pdfrwt beam="2">  1        2 0.92441913E-03 0.92583614E+02</pdfrwt>
<pdfrwt beam="1">  1       -2 0.54867178E-01 0.92583614E+02</pdfrwt>
<totfact> 0.44227061E+04</totfact>
</mgrwt>
</event>
<event>
 5    1  0.2799021E+000  0.9119515E+02  0.7818608E-02  0.1299983E+00
         -2   -1    0    0    0  501 -0.00000000000E+00  0.00000000000E+00  0.61471059139E+02  0.61471059194E+02  0.26000000000E-02 0.  1.
          2   -1    0    0  501    0  0.00000000000E+00 -0.00000000000E+00 -0.33823051260E+02  0.33823051360E+02  0.26000000000E-02 0. -1.
         23    2    1    2    0    0  0.00000000000E+00  0.00000000000E+00  0.27648007878E+02  0.95294110554E+02  0.91195148811E+02 0.  0.
        -11    1    3    3    0    0  0.43321805691E+02  0.10066514624E+02  0.33211036948E+01  0.44599812724E+02  0.51100000000E-03 0. -1.
         11    1    3    3    0    0 -0.43321805691E+02 -0.10066514624E+02  0.24326904184E+02  0.50694297830E+02  0.51100000000E-03 0.  1.
<mgrwt>
<rscale>  0 0.91195149E+02</rscale>
<asrwt>0</asrwt>
<pdfrwt beam="2">  1        2 0.52035464E-02 0.91195149E+02</pdfrwt>
<pdfrwt beam="1">  1       -2 0.94570859E-02 0.91195149E+02</pdfrwt>
<totfact> 0.91262731E+04</totfact>
</mgrwt>
</event>
<event>
 5    1  0.2799021E+000  0.9223201E+02  0.7818608E-02  0.1297535E+00
         -2   -1    0    0    0  501 -0.00000000000E+00  0.00000000000E+00  0.49089531961E+01  0.49089538846E+01  0.26000000000E-02 0.  1.
          2   -1    0    0  501    0  0.00000000000E+00 -0.00000000000E+00 -0.43322596558E+03  0.43322596559E+03  0.26000000000E-02 0. -1.
         23    2    1    2    0    0  0.00000000000E+00  0.00000000000E+00 -0.42831701239E+03  0.43813491947E+03  0.92232014852E+02 0.  0.
        -11    1    3    3    0    0  0.28521675354E+02 -0.35379583333E+02 -0.17690975864E+03  0.18265339741E+03  0.51100000000E-03 0. -1.
         11    1    3    3    0    0 -0.28521675354E+02  0.35379583333E+02 -0.25140725374E+03  0.25548152207E+03  0.51100000000E-03 0.  1.
<mgrwt>
<rscale>  0 0.92232015E+02</rscale>
<asrwt>0</asrwt>
<pdfrwt beam="2">  1        2 0.66650118E-01 0.92232015E+02</pdfrwt>
<pdfrwt beam="1">  1       -2 0.75522397E-03 0.92232015E+02</pdfrwt>
<totfact> 0.19915055E+05</totfact>
</mgrwt>
</event>
<event>
 5    1  0.2799021E+000  0.9049619E+02  0.7818608E-02  0.1301655E+00
          2   -1    0    0  501    0  0.00000000000E+00  0.00000000000E+00  0.79961538004E+02  0.79961538046E+02  0.26000000000E-02 0. -1.
         -2   -1    0    0    0  501 -0.00000000000E+00 -0.00000000000E+00 -0.25604684599E+02  0.25604684731E+02  0.26000000000E-02 0.  1.
         23    2    1    2    0    0  0.00000000000E+00  0.00000000000E+00  0.54356853405E+02  0.10556622278E+03  0.90496187098E+02 0.  0.
        -11    1    3    3    0    0 -0.33013244165E+02 -0.30858919097E+02  0.24507413760E+02  0.51407786449E+02  0.51100000000E-03 0.  1.
         11    1    3    3    0    0  0.33013244165E+02  0.30858919097E+02  0.29849439645E+02  0.54158436328E+02  0.51100000000E-03 0. -1.
<mgrwt>
<rscale>  0 0.90496187E+02</rscale>
<asrwt>0</asrwt>
<pdfrwt beam="1">  1        2 0.12301775E-01 0.90496187E+02</pdfrwt>
<pdfrwt beam="2">  1       -2 0.39391823E-02 0.90496187E+02</pdfrwt>
<totfact> 0.11725379E+05</totfact>
</mgrwt>
</event>
<event>
 5    1  0.2799021E+000  0.9460027E+02  0.7818608E-02  0.1292079E+00
          2   -1    0    0  501    0  0.00000000000E+00  0.00000000000E+00  0.13212748713E+03  0.13212748715E+03  0.26000000000E-02 0. -1.
         -2   -1    0    0    0  501 -0.00000000000E+00 -0.00000000000E+00 -0.16932908740E+02  0.16932908939E+02  0.26000000000E-02 0.  1.
         23    2    1    2    0    0  0.00000000000E+00  0.00000000000E+00  0.11519457839E+03  0.14906039609E+03  0.94600268463E+02 0.  0.
        -11    1    3    3    0    0 -0.21226842562E+02 -0.15600600883E+02 -0.43042469361E+01  0.26692398450E+02  0.51100000000E-03 0.  1.
         11    1    3    3    0    0  0.21226842562E+02  0.15600600883E+02  0.11949882533E+03  0.12236799764E+03  0.51100000000E-03 0. -1.
<mgrwt>
<rscale>  0 0.94600268E+02</rscale>
<asrwt>0</asrwt>
<pdfrwt beam="1">  1        2 0.20327305E-01 0.94600268E+02</pdfrwt>
<pdfrwt beam="2">  1       -2 0.26050630E-02 0.94600268E+02</pdfrwt>
<totfact> 0.12114895E+05</totfact>
</mgrwt>
</event>
<event>
 5    1  0.2799021E+000  0.9310560E+02  0.7818608E-02  0.1295501E+00
         -2   -1    0    0    0  501 -0.00000000000E+00  0.00000000000E+00  0.14011707331E+03  0.14011707333E+03  0.26000000000E-02 0.  1.
          2   -1    0    0  501    0  0.00000000000E+00 -0.00000000000E+00 -0.15466804407E+02  0.15466804626E+02  0.26000000000E-02 0. -1.
         23    2    1    2    0    0  0.00000000000E+00  0.00000000000E+00  0.12465026890E+03  0.15558387796E+03  0.93105604253E+02 0.  0.
        -11    1    3    3    0    0  0.13920759737E+02  0.31850968502E+02  0.10579521567E+02  0.36334529349E+02  0.51100000000E-03 0. -1.
         11    1    3    3    0    0 -0.13920759737E+02 -0.31850968502E+02  0.11407074733E+03  0.11924934861E+03  0.51100000000E-03 0.  1.
<mgrwt>
<rscale>  0 0.93105604E+02</rscale>
<asrwt>0</asrwt>
<pdfrwt beam="2">  1        2 0.23795085E-02 0.93105604E+02</pdfrwt>
<pdfrwt beam="1">  1       -2 0.21556472E-01 0.93105604E+02</pdfrwt>
<totfact> 0.67889533E+04</totfact>
</mgrwt>
</event>
<event>
 5    1  0.2799021E+000  0.9816449E+02  0.7818608E-02  0.1284204E+00
         -2   -1    0    0    0  501 -0.00000000000E+00  0.00000000000E+00  0.19472802468E+02  0.19472802642E+02  0.26000000000E-02 0.  1.
          2   -1    0    0  501    0  0.00000000000E+00 -0.00000000000E+00 -0.12371442506E+03  0.12371442509E+03  0.26000000000E-02 0. -1.
         23    2    1    2    0    0  0.00000000000E+00  0.00000000000E+00 -0.10424162259E+03  0.14318722773E+03  0.98164485963E+02 0.  0.
        -11    1    3    3    0    0 -0.25209970866E+02 -0.33457780637E+02 -0.14815364661E+02  0.44434904597E+02  0.51100000000E-03 0.  1.
         11    1    3    3    0    0  0.25209970866E+02  0.33457780637E+02 -0.89426257932E+02  0.98752323133E+02  0.51100000000E-03 0. -1.
<mgrwt>
<rscale>  0 0.98164486E+02</rscale>
<asrwt>0</asrwt>
<pdfrwt beam="2">  1        2 0.19032988E-01 0.98164486E+02</pdfrwt>
<pdfrwt beam="1">  1       -2 0.29958159E-02 0.98164486E+02</pdfrwt>
<totfact> 0.10706677E+05</totfact>
</mgrwt>
</event>
<event>
 5    1  0.2799021E+000  0.9200787E+02  0.7818608E-02  0.1298061E+00
          2   -1    0    0  501    0  0.00000000000E+00  0.00000000000E+00  0.93556444353E+02  0.93556444389E+02  0.26000000000E-02 0. -1.
         -2   -1    0    0    0  501 -0.00000000000E+00 -0.00000000000E+00 -0.22621234104E+02  0.22621234254E+02  0.26000000000E-02 0.  1.
         23    2    1    2    0    0  0.00000000000E+00  0.00000000000E+00  0.70935210249E+02  0.11617767864E+03  0.92007874456E+02 0.  0.
        -11    1    3    3    0    0  0.39116157344E+02  0.18520619251E+02  0.15773032547E+02  0.46063821583E+02  0.51100000000E-03 0. -1.
         11    1    3    3    0    0 -0.39116157344E+02 -0.18520619251E+02  0.55162177702E+02  0.70113857061E+02  0.51100000000E-03 0.  1.
<mgrwt>
<rscale>  0 0.92007874E+02</rscale>
<asrwt>0</asrwt>
<pdfrwt beam="1">  1        2 0.14393299E-01 0.92007874E+02</pdfrwt>
<pdfrwt beam="2">  1       -2 0.34801898E-02 0.92007874E+02</pdfrwt>
<totfact> 0.11725699E+05</totfact>
</mgrwt>
</event>
<event>
 5    1  0.2799021E+000  0.9262287E+02  0.7818608E-02  0.1296622E+00
          2   -1    0    0  501    0  0.00000000000E+00  0.00000000000E+00  0.13921618695E+02  0.13921618937E+02  0.26000000000E-02 0. -1.
         -2   -1    0    0    0  501 -0.00000000000E+00 -0.00000000000E+00 -0.15405887579E+03  0.15405887581E+03  0.26000000000E-02 0.  1.
         23    2    1    2    0    0  0.00000000000E+00  0.00000000000E+00 -0.14013725709E+03  0.16798049475E+03  0.92622868612E+02 0.  0.
        -11    1    3    3    0    0 -0.16407819935E+02  0.40204533954E+02 -0.99262901731E+02  0.10834548798E+03  0.51100000000E-03 0. -1.
         11    1    3    3    0    0  0.16407819935E+02 -0.40204533954E+02 -0.40874355363E+02  0.59635006767E+02  0.51100000000E-03 0.  1.
<mgrwt>
<rscale>  0 0.92622869E+02</rscale>
<asrwt>0</asrwt>
<pdfrwt beam="1">  1        2 0.21417876E-02 0.92622869E+02</pdfrwt>
<pdfrwt beam="2">  1       -2 0.23701364E-01 0.92622869E+02</pdfrwt>
<totfact> 0.66469143E+04</totfact>
</mgrwt>
</event>
<event>
 5    1  0.2799021E+000  0.9346894E+02  0.7818608E-02  0.1294662E+00
         -2   -1    0    0    0  501 -0.00000000000E+00  0.00000000000E+00  0.15714426025E+02  0.15714426240E+02  0.26000000000E-02 0.  1.
          2   -1    0    0  501    0  0.00000000000E+00 -0.00000000000E+00 -0.13898763317E+03  0.13898763319E+03  0.26000000000E-02 0. -1.
         23    2    1    2    0    0  0.00000000000E+00  0.00000000000E+00 -0.12327320714E+03  0.15470205943E+03  0.93468944539E+02 0.  0.
        -11    1    3    3    0    0 -0.31850548498E+02 -0.15368101803E+02 -0.11068102552E+02  0.37055888695E+02  0.51100000000E-03 0. -1.
         11    1    3    3    0    0  0.31850548498E+02  0.15368101803E+02 -0.11220510459E+03  0.11764617074E+03  0.51100000000E-03 0.  1.
<mgrwt>
<rscale>  0 0.93468945E+02</rscale>
<asrwt>0</asrwt>
<pdfrwt beam="2">  1        2 0.21382712E-01 0.93468945E+02</pdfrwt>
<pdfrwt beam="1">  1       -2 0.24176041E-02 0.93468945E+02</pdfrwt>
<totfact> 0.12734103E+05</totfact>
</mgrwt>
</event>
<event>
 5    1  0.2799021E+000  0.9244608E+02  0.7818608E-02  0.1297034E+00
          2   -1    0    0  501    0  0.00000000000E+00  0.00000000000E+00  0.14406338912E+02  0.14406339147E+02  0.26000000000E-02 0. -1.
         -2   -1    0    0    0  501 -0.00000000000E+00 -0.00000000000E+00 -0.14830758071E+03  0.14830758073E+03  0.26000000000E-02 0.  1.
         23    2    1    2    0    0  0.00000000000E+00  0.00000000000E+00 -0.13390124179E+03  0.16271391988E+03  0.92446077080E+02 0.  0.
        -11    1    3    3    0    0 -0.39647357660E+02  0.34711349642E+01 -0.25574990311E+02  0.47307947293E+02  0.51100000000E-03 0. -1.
         11    1    3    3    0    0  0.39647357660E+02 -0.34711349642E+01 -0.10832625148E+03  0.11540597258E+03  0.51100000000E-03 0.  1.
<mgrwt>
<rscale>  0 0.92446077E+02</rscale>
<asrwt>0</asrwt>
<pdfrwt beam="1">  1        2 0.22163600E-02 0.92446077E+02</pdfrwt>
<pdfrwt beam="2">  1       -2 0.22816550E-01 0.92446077E+02</pdfrwt>
<totfact> 0.67730838E+04</totfact>
</mgrwt>
</event>
<event>
 5    1  0.2799021E+000  0.8872317E+02  0.7818608E-02  0.1305973E+00
          2   -1    0    0  501    0  0.00000000000E+00  0.00000000000E+00  0.10331080437E+03  0.10331080440E+03  0.26000000000E-02 0. -1.
         -2   -1    0    0    0  501 -0.00000000000E+00 -0.00000000000E+00 -0.19048834099E+02  0.19048834276E+02  0.26000000000E-02 0.  1.
         23    2    1    2    0    0  0.00000000000E+00  0.00000000000E+00  0.84261970270E+02  0.12235963868E+03  0.88723173656E+02 0.  0.
        -11    1    3    3    0    0 -0.26252372338E+02 -0.15722472550E+01  0.91400244525E+02  0.95108694210E+02  0.51100000000E-03 0. -1.
         11    1    3    3    0    0  0.26252372338E+02  0.15722472550E+01 -0.71382742546E+01  0.27250944468E+02  0.51100000000E-03 0.  1.
<mgrwt>
<rscale>  0 0.88723174E+02</rscale>
<asrwt>0</asrwt>
<pdfrwt beam="1">  1        2 0.15893970E-01 0.88723174E+02</pdfrwt>
<pdfrwt beam="2">  1       -2 0.29305899E-02 0.88723174E+02</pdfrwt>
<totfact> 0.13352787E+05</totfact>
</mgrwt>
</event>
<event>
 5    1  0.2799021E+000  0.8828270E+02  0.7818608E-02  0.1307064E+00
          2   -1    0    0  501    0  0.00000000000E+00  0.00000000000E+00  0.24290442476E+03  0.24290442477E+03  0.26000000000E-02 0. -1.
         -2   -1    0    0    0  501 -0.00000000000E+00 -0.00000000000E+00 -0.80215035119E+01  0.80215039333E+01  0.26000000000E-02 0.  1.
         23    2    1    2    0    0  0.00000000000E+00  0.00000000000E+00  0.23488292125E+03  0.25092592871E+03  0.88282699345E+02 0.  0.
        -11    1    3    3    0    0  0.20680894617E+02 -0.26066855982E+02  0.35001116236E+02  0.48293462507E+02  0.51100000000E-03 0.  1.
         11    1    3    3    0    0 -0.20680894617E+02  0.26066855982E+02  0.19988180501E+03  0.20263246620E+03  0.51100000000E-03 0. -1.
<mgrwt>
<rscale>  0 0.88282699E+02</rscale>
<asrwt>0</asrwt>
<pdfrwt beam="1">  1        2 0.37369905E-01 0.88282699E+02</pdfrwt>
<pdfrwt beam="2">  1       -2 0.12340777E-02 0.88282699E+02</pdfrwt>
<totfact> 0.18103927E+05</totfact>
</mgrwt>
</event>
<event>
 5    1  0.2799021E+000  0.9400953E+02  0.7818608E-02  0.1293423E+00
          2   -1    0    0  501    0  0.00000000000E+00  0.00000000000E+00  0.11701200783E+03  0.11701200786E+03  0.26000000000E-02 0. -1.
         -2   -1    0    0    0  501 -0.00000000000E+00 -0.00000000000E+00 -0.18882233322E+02  0.18882233501E+02  0.26000000000E-02 0.  1.
         23    2    1    2    0    0  0.00000000000E+00  0.00000000000E+00  0.98129774512E+02  0.13589424136E+03  0.94009532442E+02 0.  0.
        -11    1    3    3    0    0  0.25292722435E+02  0.28964468372E+02  0.88142157113E+02  0.96164973338E+02  0.51100000000E-03 0. -1.
         11    1    3    3    0    0 -0.25292722435E+02 -0.28964468372E+02  0.99876173991E+01  0.39729268025E+02  0.51100000000E-03 0.  1.
<mgrwt>
<rscale>  0 0.94009532E+02</rscale>
<asrwt>0</asrwt>
<pdfrwt beam="1">  1        2 0.18001847E-01 0.94009532E+02</pdfrwt>
<pdfrwt beam="2">  1       -2 0.29049590E-02 0.94009532E+02</pdfrwt>
<totfact> 0.11844786E+05</totfact>
</mgrwt>
</event>
<event>
 5    1  0.2799021E+000  0.9006099E+02  0.7818608E-02  0.1302704E+00
         -2   -1    0    0    0  501 -0.00000000000E+00  0.00000000000E+00  0.46722093994E+02  0.46722094066E+02  0.26000000000E-02 0.  1.
          2   -1    0    0  501    0  0.00000000000E+00 -0.00000000000E+00 -0.43400143264E+02  0.43400143342E+02  0.26000000000E-02 0. -1.
         23    2    1    2    0    0  0.00000000000E+00  0.00000000000E+00  0.33219507298E+01  0.90122237408E+02  0.90060992215E+02 0.  0.
        -11    1    3    3    0    0  0.12858532713E+02 -0.13435867589E+02  0.42699609030E+02  0.46573823259E+02  0.51100000000E-03 0. -1.
         11    1    3    3    0    0 -0.12858532713E+02  0.13435867589E+02 -0.39377658300E+02  0.43548414149E+02  0.51100000000E-03 0.  1.
<mgrwt>
<rscale>  0 0.90060992E+02</rscale>
<asrwt>0</asrwt>
<pdfrwt beam="2">  1        2 0.66769451E-02 0.90060992E+02</pdfrwt>
<pdfrwt beam="1">  1       -2 0.71880145E-02 0.90060992E+02</pdfrwt>
<totfact> 0.10093346E+05</totfact>
</mgrwt>
</event>
<event>
 5    1  0.2799021E+000  0.8844948E+02  0.7818608E-02  0.1306651E+00
          2   -1    0    0  501    0  0.00000000000E+00  0.00000000000E+00  0.25326786530E+02  0.25326786663E+02  0.26000000000E-02 0. -1.
         -2   -1    0    0    0  501 -0.00000000000E+00 -0.00000000000E+00 -0.77223682568E+02  0.77223682612E+02  0.26000000000E-02 0.  1.
         23    2    1    2    0    0  0.00000000000E+00  0.00000000000E+00 -0.51896896039E+02  0.10255046928E+03  0.88449482362E+02 0.  0.
        -11    1    3    3    0    0  0.80911345693E+01 -0.39179814935E+02 -0.47803005796E+02  0.62334995952E+02  0.51100000000E-03 0.  1.
         11    1    3    3    0    0 -0.80911345693E+01  0.39179814935E+02 -0.40938902427E+01  0.40215473323E+02  0.51100000000E-03 0. -1.
<mgrwt>
<rscale>  0 0.88449482E+02</rscale>
<asrwt>0</asrwt>
<pdfrwt beam="1">  1        2 0.38964287E-02 0.88449482E+02</pdfrwt>
<pdfrwt beam="2">  1       -2 0.11880566E-01 0.88449482E+02</pdfrwt>
<totfact> 0.92546542E+04</totfact>
</mgrwt>
</event>
<event>
 5    1  0.2799021E+000  0.9085513E+02  0.7818608E-02  0.1300794E+00
          2   -1    0    0  501    0  0.00000000000E+00  0.00000000000E+00  0.88933093459E+02  0.88933093497E+02  0.26000000000E-02 0. -1.
         -2   -1    0    0    0  501 -0.00000000000E+00 -0.00000000000E+00 -0.23204674285E+02  0.23204674431E+02  0.26000000000E-02 0.  1.
         23    2    1    2    0    0  0.00000000000E+00  0.00000000000E+00  0.65728419174E+02  0.11213776793E+03  0.90855125936E+02 0.  0.
        -11    1    3    3    0    0  0.16582020175E+01  0.40929517564E+02  0.57103549055E+02  0.70276527780E+02  0.51100000000E-03 0. -1.
         11    1    3    3    0    0 -0.16582020175E+01 -0.40929517564E+02  0.86248701188E+01  0.41861240148E+02  0.51100000000E-03 0.  1.
<mgrwt>
<rscale>  0 0.90855126E+02</rscale>
<asrwt>0</asrwt>
<pdfrwt beam="1">  1        2 0.13682014E-01 0.90855126E+02</pdfrwt>
<pdfrwt beam="2">  1       -2 0.35699499E-02 0.90855126E+02</pdfrwt>
<totfact> 0.11960400E+05</totfact>
</mgrwt>
</event>
<event>
 5    1  0.2799021E+000  0.9180010E+02  0.7818608E-02  0.1298550E+00
          2   -1    0    0  501    0  0.00000000000E+00  0.00000000000E+00  0.11815138660E+03  0.11815138663E+03  0.26000000000E-02 0. -1.
         -2   -1    0    0    0  501 -0.00000000000E+00 -0.00000000000E+00 -0.17831485085E+02  0.17831485275E+02  0.26000000000E-02 0.  1.
         23    2    1    2    0    0  0.00000000000E+00  0.00000000000E+00  0.10031990151E+03  0.13598287190E+03  0.91800102456E+02 0.  0.
        -11    1    3    3    0    0 -0.22779598240E+02  0.11179715793E+02 -0.64967287671E+01  0.26193579865E+02  0.51100000000E-03 0.  1.
         11    1    3    3    0    0  0.22779598240E+02 -0.11179715793E+02  0.10681663028E+03  0.10978929204E+03  0.51100000000E-03 0. -1.
<mgrwt>
<rscale>  0 0.91800102E+02</rscale>
<asrwt>0</asrwt>
<pdfrwt beam="1">  1        2 0.18177136E-01 0.91800102E+02</pdfrwt>
<pdfrwt beam="2">  1       -2 0.27433055E-02 0.91800102E+02</pdfrwt>
<totfact> 0.12683248E+05</totfact>
</mgrwt>
</event>
<event>
 5    1  0.2799021E+000  0.9075028E+02  0.7818608E-02  0.1301045E+00
         -2   -1    0    0    0  501 -0.00000000000E+00  0.00000000000E+00  0.93899332150E+02  0.93899332186E+02  0.26000000000E-02 0.  1.
          2   -1    0    0  501    0  0.00000000000E+00 -0.00000000000E+00 -0.21926707742E+02  0.21926707896E+02  0.26000000000E-02 0. -1.
         23    2    1    2    0    0  0.00000000000E+00  0.00000000000E+00  0.71972624408E+02  0.11582604008E+03  0.90750277669E+02 0.  0.
        -11    1    3    3    0    0 -0.23342385783E+02 -0.32511073335E+02  0.63272814892E+02  0.74868457765E+02  0.51100000000E-03 0. -1.
         11    1    3    3    0    0  0.23342385783E+02  0.32511073335E+02  0.86998095154E+01  0.40957582317E+02  0.51100000000E-03 0.  1.
<mgrwt>
<rscale>  0 0.90750278E+02</rscale>
<asrwt>0</asrwt>
<pdfrwt beam="2">  1        2 0.33733397E-02 0.90750278E+02</pdfrwt>
<pdfrwt beam="1">  1       -2 0.14446051E-01 0.90750278E+02</pdfrwt>
<totfact> 0.82251847E+04</totfact>
</mgrwt>
</event>
<event>
 5    1  0.2799021E+000  0.9398660E+02  0.7818608E-02  0.1293475E+00
         -2   -1    0    0    0  501 -0.00000000000E+00  0.00000000000E+00  0.30532630663E+02  0.30532630773E+02  0.26000000000E-02 0.  1.
          2   -1    0    0  501    0  0.00000000000E+00 -0.00000000000E+00 -0.72328207543E+02  0.72328207590E+02  0.26000000000E-02 0. -1.
         23    2    1    2    0    0  0.00000000000E+00  0.00000000000E+00 -0.41795576881E+02  0.10286083836E+03  0.93986604482E+02 0.  0.
        -11    1    3    3    0    0 -0.20781683935E+02 -0.17993231638E+02  0.20815785594E+02  0.34480888940E+02  0.51100000000E-03 0.  1.
         11    1    3    3    0    0  0.20781683935E+02  0.17993231638E+02 -0.62611362474E+02  0.68379949423E+02  0.51100000000E-03 0. -1.
<mgrwt>
<rscale>  0 0.93986604E+02</rscale>
<asrwt>0</asrwt>
<pdfrwt beam="2">  1        2 0.11127417E-01 0.93986604E+02</pdfrwt>
<pdfrwt beam="1">  1       -2 0.46973278E-02 0.93986604E+02</pdfrwt>
<totfact> 0.10252736E+05</totfact>
</mgrwt>
</event>
<event>
 5    1  0.2799021E+000  0.9290258E+02  0.7818608E-02  0.1295971E+00
         -2   -1    0    0    0  501 -0.00000000000E+00  0.00000000000E+00  0.34368071038E+03  0.34368071039E+03  0.26000000000E-02 0.  1.
          2   -1    0    0  501    0  0.00000000000E+00 -0.00000000000E+00 -0.62782751925E+01  0.62782757309E+01  0.26000000000E-02 0. -1.
         23    2    1    2    0    0  0.00000000000E+00  0.00000000000E+00  0.33740243519E+03  0.34995898612E+03  0.92902576370E+02 0.  0.
        -11    1    3    3    0    0 -0.38903717201E+02  0.14453910609E+02  0.24729486272E+03  0.25075319314E+03  0.51100000000E-03 0.  1.
         11    1    3    3    0    0  0.38903717201E+02 -0.14453910609E+02  0.90107572472E+02  0.99205792981E+02  0.51100000000E-03 0. -1.
<mgrwt>
<rscale>  0 0.92902576E+02</rscale>
<asrwt>0</asrwt>
<pdfrwt beam="2">  1        2 0.96588859E-03 0.92902576E+02</pdfrwt>
<pdfrwt beam="1">  1       -2 0.52873952E-01 0.92902576E+02</pdfrwt>
<totfact> 0.44857189E+04</totfact>
</mgrwt>
</event>
<event>
 5    1  0.2799021E+000  0.9704442E+02  0.7818608E-02  0.1286637E+00
         -2   -1    0    0    0  501 -0.00000000000E+00  0.00000000000E+00  0.11744992863E+03  0.11744992866E+03  0.26000000000E-02 0. -1.
          2   -1    0    0  501    0  0.00000000000E+00 -0.00000000000E+00 -0.20046031313E+02  0.20046031481E+02  0.26000000000E-02 0.  1.
         23    2    1    2    0    0  0.00000000000E+00  0.00000000000E+00  0.97403897317E+02  0.13749596014E+03  0.97044422004E+02 0.  0.
        -11    1    3    3    0    0 -0.22846533716E+02  0.39899354954E+02  0.70673511394E+02  0.84312916221E+02  0.51100000000E-03 0. -1.
         11    1    3    3    0    0  0.22846533716E+02 -0.39899354954E+02  0.26730385923E+02  0.53183043919E+02  0.51100000000E-03 0.  1.
<mgrwt>
<rscale>  0 0.97044422E+02</rscale>
<asrwt>0</asrwt>
<pdfrwt beam="2">  1        2 0.30840049E-02 0.97044422E+02</pdfrwt>
<pdfrwt beam="1">  1       -2 0.18069220E-01 0.97044422E+02</pdfrwt>
<totfact> 0.64941849E+04</totfact>
</mgrwt>
</event>
<event>
 5    1  0.2799021E+000  0.9135399E+02  0.7818608E-02  0.1299606E+00
         -2   -1    0    0    0  501 -0.00000000000E+00  0.00000000000E+00  0.66226569376E+02  0.66226569427E+02  0.26000000000E-02 0.  1.
          2   -1    0    0  501    0  0.00000000000E+00 -0.00000000000E+00 -0.31503789185E+02  0.31503789292E+02  0.26000000000E-02 0. -1.
         23    2    1    2    0    0  0.00000000000E+00  0.00000000000E+00  0.34722780191E+02  0.97730358719E+02  0.91353990340E+02 0.  0.
        -11    1    3    3    0    0 -0.45362902902E+02  0.43534827705E+01  0.20683302201E+02  0.50045426985E+02  0.51100000000E-03 0. -1.
         11    1    3    3    0    0  0.45362902902E+02 -0.43534827705E+01  0.14039477990E+02  0.47684931734E+02  0.51100000000E-03 0.  1.
<mgrwt>
<rscale>  0 0.91353990E+02</rscale>
<asrwt>0</asrwt>
<pdfrwt beam="2">  1        2 0.48467369E-02 0.91353990E+02</pdfrwt>
<pdfrwt beam="1">  1       -2 0.10188703E-01 0.91353990E+02</pdfrwt>
<totfact> 0.89110716E+04</totfact>
</mgrwt>
</event>
<event>
 5    1  0.2799021E+000  0.9211587E+02  0.7818608E-02  0.1297807E+00
          2   -1    0    0  501    0  0.00000000000E+00  0.00000000000E+00  0.18346055908E+03  0.18346055910E+03  0.26000000000E-02 0. -1.
         -2   -1    0    0    0  501 -0.00000000000E+00 -0.00000000000E+00 -0.11562885309E+02  0.11562885601E+02  0.26000000000E-02 0.  1.
         23    2    1    2    0    0  0.00000000000E+00  0.00000000000E+00  0.17189767377E+03  0.19502344470E+03  0.92115871243E+02 0.  0.
        -11    1    3    3    0    0 -0.36519061186E+02  0.24987874737E+02  0.58894155789E+02  0.73665170197E+02  0.51100000000E-03 0.  1.
         11    1    3    3    0    0  0.36519061186E+02 -0.24987874737E+02  0.11300351799E+03  0.12135827451E+03  0.51100000000E-03 0. -1.
<mgrwt>
<rscale>  0 0.92115871E+02</rscale>
<asrwt>0</asrwt>
<pdfrwt beam="1">  1        2 0.28224700E-01 0.92115871E+02</pdfrwt>
<pdfrwt beam="2">  1       -2 0.17789055E-02 0.92115871E+02</pdfrwt>
<totfact> 0.14586387E+05</totfact>
</mgrwt>
</event>
<event>
 5    1  0.2799021E+000  0.9251122E+02  0.7818608E-02  0.1296882E+00
         -2   -1    0    0    0  501 -0.00000000000E+00  0.00000000000E+00  0.22944966411E+03  0.22944966413E+03  0.26000000000E-02 0.  1.
          2   -1    0    0  501    0  0.00000000000E+00 -0.00000000000E+00 -0.93248405802E+01  0.93248409426E+01  0.26000000000E-02 0. -1.
         23    2    1    2    0    0  0.00000000000E+00  0.00000000000E+00  0.22012482353E+03  0.23877450507E+03  0.92511222758E+02 0.  0.
        -11    1    3    3    0    0 -0.29396897751E+02  0.31785819343E+02  0.15208378863E+03  0.15812651477E+03  0.51100000000E-03 0.  1.
         11    1    3    3    0    0  0.29396897751E+02 -0.31785819343E+02  0.68041034904E+02  0.80647990303E+02  0.51100000000E-03 0. -1.
<mgrwt>
<rscale>  0 0.92511223E+02</rscale>
<asrwt>0</asrwt>
<pdfrwt beam="2">  1        2 0.14345909E-02 0.92511223E+02</pdfrwt>
<pdfrwt beam="1">  1       -2 0.35299948E-01 0.92511223E+02</pdfrwt>
<totfact> 0.56423633E+04</totfact>
</mgrwt>
</event>
<event>
 5    1  0.2799021E+000  0.9032567E+02  0.7818608E-02  0.1302065E+00
         -2   -1    0    0    0  501 -0.00000000000E+00  0.00000000000E+00  0.70241110093E+02  0.70241110141E+02  0.26000000000E-02 0.  1.
          2   -1    0    0  501    0  0.00000000000E+00 -0.00000000000E+00 -0.29038292108E+02  0.29038292224E+02  0.26000000000E-02 0. -1.
         23    2    1    2    0    0  0.00000000000E+00  0.00000000000E+00  0.41202817985E+02  0.99279402365E+02  0.90325674778E+02 0.  0.
        -11    1    3    3    0    0 -0.40775680612E+02 -0.86880011092E+01  0.39687788929E+02  0.57560907594E+02  0.51100000000E-03 0.  1.
         11    1    3    3    0    0  0.40775680612E+02  0.86880011092E+01  0.15150290559E+01  0.41718494771E+02  0.51100000000E-03 0. -1.
<mgrwt>
<rscale>  0 0.90325675E+02</rscale>
<asrwt>0</asrwt>
<pdfrwt beam="2">  1        2 0.44674296E-02 0.90325675E+02</pdfrwt>
<pdfrwt beam="1">  1       -2 0.10806325E-01 0.90325675E+02</pdfrwt>
<totfact> 0.90175674E+04</totfact>
</mgrwt>
</event>
<event>
 5    1  0.2799021E+000  0.9298705E+02  0.7818608E-02  0.1295775E+00
         -2   -1    0    0    0  501 -0.00000000000E+00  0.00000000000E+00  0.54237250023E+02  0.54237250085E+02  0.26000000000E-02 0.  1.
          2   -1    0    0  501    0  0.00000000000E+00 -0.00000000000E+00 -0.39855413201E+02  0.39855413285E+02  0.26000000000E-02 0. -1.
         23    2    1    2    0    0  0.00000000000E+00  0.00000000000E+00  0.14381836822E+02  0.94092663370E+02  0.92987053237E+02 0.  0.
        -11    1    3    3    0    0  0.33458718366E+00 -0.31711416711E+02 -0.27212180472E+02  0.41787900936E+02  0.51100000000E-03 0. -1.
         11    1    3    3    0    0 -0.33458718366E+00  0.31711416711E+02  0.41594017294E+02  0.52304762434E+02  0.51100000000E-03 0.  1.
<mgrwt>
<rscale>  0 0.92987053E+02</rscale>
<asrwt>0</asrwt>
<pdfrwt beam="2">  1        2 0.61316021E-02 0.92987053E+02</pdfrwt>
<pdfrwt beam="1">  1       -2 0.83441923E-02 0.92987053E+02</pdfrwt>
<totfact> 0.90006592E+04</totfact>
</mgrwt>
</event>
<event>
 5    1  0.2799021E+000  0.9100203E+02  0.7818608E-02  0.1300443E+00
         -2   -1    0    0    0  501 -0.00000000000E+00  0.00000000000E+00  0.12808740857E+02  0.12808741121E+02  0.26000000000E-02 0.  1.
          2   -1    0    0  501    0  0.00000000000E+00 -0.00000000000E+00 -0.16163511630E+03  0.16163511632E+03  0.26000000000E-02 0. -1.
         23    2    1    2    0    0  0.00000000000E+00  0.00000000000E+00 -0.14882637544E+03  0.17444385744E+03  0.91002029492E+02 0.  0.
        -11    1    3    3    0    0  0.92479010351E+01  0.38504721108E+02 -0.31455077067E+02  0.50572315497E+02  0.51100000000E-03 0.  1.
         11    1    3    3    0    0 -0.92479010351E+01 -0.38504721108E+02 -0.11737129837E+03  0.12387154194E+03  0.51100000000E-03 0. -1.
<mgrwt>
<rscale>  0 0.91002029E+02</rscale>
<asrwt>0</asrwt>
<pdfrwt beam="2">  1        2 0.24866940E-01 0.91002029E+02</pdfrwt>
<pdfrwt beam="1">  1       -2 0.19705757E-02 0.91002029E+02</pdfrwt>
<totfact> 0.14418701E+05</totfact>
</mgrwt>
</event>
<event>
 5    1  0.2799021E+000  0.9193018E+02  0.7818608E-02  0.1298244E+00
         -2   -1    0    0    0  501 -0.00000000000E+00  0.00000000000E+00  0.20956775426E+02  0.20956775587E+02  0.26000000000E-02 0.  1.
          2   -1    0    0  501    0  0.00000000000E+00 -0.00000000000E+00 -0.10081654331E+03  0.10081654335E+03  0.26000000000E-02 0. -1.
         23    2    1    2    0    0  0.00000000000E+00  0.00000000000E+00 -0.79859767887E+02  0.12177331893E+03  0.91930183711E+02 0.  0.
        -11    1    3    3    0    0  0.40637217580E+02  0.11216762825E+02 -0.64195918428E+02  0.76800489347E+02  0.51100000000E-03 0. -1.
         11    1    3    3    0    0 -0.40637217580E+02 -0.11216762825E+02 -0.15663849460E+02  0.44972829587E+02  0.51100000000E-03 0.  1.
<mgrwt>
<rscale>  0 0.91930184E+02</rscale>
<asrwt>0</asrwt>
<pdfrwt beam="2">  1        2 0.15510237E-01 0.91930184E+02</pdfrwt>
<pdfrwt beam="1">  1       -2 0.32241194E-02 0.91930184E+02</pdfrwt>
<totfact> 0.12022284E+05</totfact>
</mgrwt>
</event>
<event>
 5    1  0.2799021E+000  0.9168245E+02  0.7818608E-02  0.1298828E+00
         -2   -1    0    0    0  501 -0.00000000000E+00  0.00000000000E+00  0.12716909277E+03  0.12716909280E+03  0.26000000000E-02 0. -1.
          2   -1    0    0  501    0  0.00000000000E+00 -0.00000000000E+00 -0.16524597794E+02  0.16524597999E+02  0.26000000000E-02 0.  1.
         23    2    1    2    0    0  0.00000000000E+00  0.00000000000E+00  0.11064449498E+03  0.14369369080E+03  0.91682454734E+02 0.  0.
        -11    1    3    3    0    0  0.13343987516E+02 -0.36669129995E+02  0.17618037017E+02  0.42814510694E+02  0.51100000000E-03 0. -1.
         11    1    3    3    0    0 -0.13343987516E+02  0.36669129995E+02  0.93026457960E+02  0.10087918010E+03  0.51100000000E-03 0.  1.
<mgrwt>
<rscale>  0 0.91682455E+02</rscale>
<asrwt>0</asrwt>
<pdfrwt beam="2">  1        2 0.25422459E-02 0.91682455E+02</pdfrwt>
<pdfrwt beam="1">  1       -2 0.19564476E-01 0.91682455E+02</pdfrwt>
<totfact> 0.72969030E+04</totfact>
</mgrwt>
</event>
<event>
 5    1  0.2799021E+000  0.9035344E+02  0.7818608E-02  0.1301998E+00
         -2   -1    0    0    0  501 -0.00000000000E+00  0.00000000000E+00  0.29528052723E+02  0.29528052838E+02  0.26000000000E-02 0. -1.
          2   -1    0    0  501    0  0.00000000000E+00 -0.00000000000E+00 -0.69118545694E+02  0.69118545743E+02  0.26000000000E-02 0.  1.
         23    2    1    2    0    0  0.00000000000E+00  0.00000000000E+00 -0.39590492970E+02  0.98646598581E+02  0.90353440875E+02 0.  0.
        -11    1    3    3    0    0  0.44872502241E+02 -0.27342830514E+01 -0.24667878798E+02  0.51278865099E+02  0.51100000000E-03 0.  1.
         11    1    3    3    0    0 -0.44872502241E+02  0.27342830514E+01 -0.14922614173E+02  0.47367733482E+02  0.51100000000E-03 0. -1.
<mgrwt>
<rscale>  0 0.90353441E+02</rscale>
<asrwt>0</asrwt>
<pdfrwt beam="2">  1        2 0.10633622E-01 0.90353441E+02</pdfrwt>
<pdfrwt beam="1">  1       -2 0.45427774E-02 0.90353441E+02</pdfrwt>
<totfact> 0.11306369E+05</totfact>
</mgrwt>
</event>
<event>
 5    1  0.2799021E+000  0.9866791E+02  0.7818608E-02  0.1283122E+00
         -2   -1    0    0    0  501 -0.00000000000E+00  0.00000000000E+00  0.14712204992E+03  0.14712204994E+03  0.26000000000E-02 0.  1.
          2   -1    0    0  501    0  0.00000000000E+00 -0.00000000000E+00 -0.16542994884E+02  0.16542995088E+02  0.26000000000E-02 0. -1.
         23    2    1    2    0    0  0.00000000000E+00  0.00000000000E+00  0.13057905503E+03  0.16366504503E+03  0.98667914496E+02 0.  0.
        -11    1    3    3    0    0 -0.24492540623E+02  0.10407458782E+02 -0.36161542142E+01  0.26856587945E+02  0.51100000000E-03 0.  1.
         11    1    3    3    0    0  0.24492540623E+02 -0.10407458782E+02  0.13419520925E+03  0.13680845708E+03  0.51100000000E-03 0. -1.
<mgrwt>
<rscale>  0 0.98667914E+02</rscale>
<asrwt>0</asrwt>
<pdfrwt beam="2">  1        2 0.25450761E-02 0.98667914E+02</pdfrwt>
<pdfrwt beam="1">  1       -2 0.22634162E-01 0.98667914E+02</pdfrwt>
<totfact> 0.57600071E+04</totfact>
</mgrwt>
</event>
<event>
 5    1  0.2799021E+000  0.9305778E+02  0.7818608E-02  0.1295611E+00
          2   -1    0    0  501    0  0.00000000000E+00  0.00000000000E+00  0.16341506036E+03  0.16341506038E+03  0.26000000000E-02 0. -1.
         -2   -1    0    0    0  501 -0.00000000000E+00 -0.00000000000E+00 -0.13248091263E+02  0.13248091518E+02  0.26000000000E-02 0.  1.
         23    2    1    2    0    0  0.00000000000E+00  0.00000000000E+00  0.15016696910E+03  0.17666315190E+03  0.93057781143E+02 0.  0.
        -11    1    3    3    0    0 -0.17586595395E+02  0.17807830250E+02  0.61948879915E+00  0.25035792826E+02  0.51100000000E-03 0.  1.
         11    1    3    3    0    0  0.17586595395E+02 -0.17807830250E+02  0.14954748030E+03  0.15162735907E+03  0.51100000000E-03 0. -1.
<mgrwt>
<rscale>  0 0.93057781E+02</rscale>
<asrwt>0</asrwt>
<pdfrwt beam="1">  1        2 0.25140778E-01 0.93057781E+02</pdfrwt>
<pdfrwt beam="2">  1       -2 0.20381680E-02 0.93057781E+02</pdfrwt>
<totfact> 0.13622540E+05</totfact>
</mgrwt>
</event>
<event>
 5    1  0.2799021E+000  0.9063469E+02  0.7818608E-02  0.1301322E+00
          2   -1    0    0  501    0  0.00000000000E+00  0.00000000000E+00  0.27884855151E+03  0.27884855152E+03  0.26000000000E-02 0. -1.
         -2   -1    0    0    0  501 -0.00000000000E+00 -0.00000000000E+00 -0.73647915788E+01  0.73647920378E+01  0.26000000000E-02 0.  1.
         23    2    1    2    0    0  0.00000000000E+00  0.00000000000E+00  0.27148375993E+03  0.28621334356E+03  0.90634685001E+02 0.  0.
        -11    1    3    3    0    0  0.19683458492E+02 -0.40777859826E+02  0.12992834544E+03  0.13759232297E+03  0.51100000000E-03 0. -1.
         11    1    3    3    0    0 -0.19683458492E+02  0.40777859826E+02  0.14155541448E+03  0.14862102059E+03  0.51100000000E-03 0.  1.
<mgrwt>
<rscale>  0 0.90634685E+02</rscale>
<asrwt>0</asrwt>
<pdfrwt beam="1">  1        2 0.42899771E-01 0.90634685E+02</pdfrwt>
<pdfrwt beam="2">  1       -2 0.11330450E-02 0.90634685E+02</pdfrwt>
<totfact> 0.17763438E+05</totfact>
</mgrwt>
</event>
<event>
 5    1  0.2799021E+000  0.9512951E+02  0.7818608E-02  0.1290885E+00
         -2   -1    0    0    0  501 -0.00000000000E+00  0.00000000000E+00  0.37831970035E+02  0.37831970124E+02  0.26000000000E-02 0.  1.
          2   -1    0    0  501    0  0.00000000000E+00 -0.00000000000E+00 -0.59801431725E+02  0.59801431781E+02  0.26000000000E-02 0. -1.
         23    2    1    2    0    0  0.00000000000E+00  0.00000000000E+00 -0.21969461690E+02  0.97633401905E+02  0.95129511302E+02 0.  0.
        -11    1    3    3    0    0  0.36173701285E+02  0.25312019651E+02 -0.29147159004E+02  0.52903609345E+02  0.51100000000E-03 0. -1.
         11    1    3    3    0    0 -0.36173701285E+02 -0.25312019651E+02  0.71776973146E+01  0.44729792560E+02  0.51100000000E-03 0.  1.
<mgrwt>
<rscale>  0 0.95129511E+02</rscale>
<asrwt>0</asrwt>
<pdfrwt beam="2">  1        2 0.92002203E-02 0.95129511E+02</pdfrwt>
<pdfrwt beam="1">  1       -2 0.58203031E-02 0.95129511E+02</pdfrwt>
<totfact> 0.93963980E+04</totfact>
</mgrwt>
</event>
<event>
 5    1  0.2799021E+000  0.1101794E+03  0.7818608E-02  0.1260238E+00
         -2   -1    0    0    0  501 -0.00000000000E+00  0.00000000000E+00  0.87259247347E+01  0.87259251221E+01  0.26000000000E-02 0.  1.
          2   -1    0    0  501    0  0.00000000000E+00 -0.00000000000E+00 -0.34780006428E+03  0.34780006429E+03  0.26000000000E-02 0. -1.
         23    2    1    2    0    0  0.00000000000E+00  0.00000000000E+00 -0.33907413954E+03  0.35652598941E+03  0.11017944009E+03 0.  0.
        -11    1    3    3    0    0  0.30712446909E+02 -0.45550920200E+02 -0.15629904112E+03  0.16567296394E+03  0.51100000000E-03 0.  1.
         11    1    3    3    0    0 -0.30712446909E+02  0.45550920200E+02 -0.18277509842E+03  0.19085302547E+03  0.51100000000E-03 0. -1.
<mgrwt>
<rscale>  0 0.11017944E+03</rscale>
<asrwt>0</asrwt>
<pdfrwt beam="2">  1        2 0.53507691E-01 0.11017944E+03</pdfrwt>
<pdfrwt beam="1">  1       -2 0.13424503E-02 0.11017944E+03</pdfrwt>
<totfact> 0.11405486E+05</totfact>
</mgrwt>
</event>
<event>
 5    1  0.2799021E+000  0.9147377E+02  0.7818608E-02  0.1299321E+00
          2   -1    0    0  501    0  0.00000000000E+00  0.00000000000E+00  0.90512209424E+02  0.90512209462E+02  0.26000000000E-02 0. -1.
         -2   -1    0    0    0  501 -0.00000000000E+00 -0.00000000000E+00 -0.23111386278E+02  0.23111386424E+02  0.26000000000E-02 0.  1.
         23    2    1    2    0    0  0.00000000000E+00  0.00000000000E+00  0.67400823147E+02  0.11362359589E+03  0.91473769908E+02 0.  0.
        -11    1    3    3    0    0 -0.23481323917E+02 -0.88293036579E+01  0.81203829428E+02  0.84990535297E+02  0.51100000000E-03 0. -1.
         11    1    3    3    0    0  0.23481323917E+02  0.88293036579E+01 -0.13803006282E+02  0.28633060588E+02  0.51100000000E-03 0.  1.
<mgrwt>
<rscale>  0 0.91473770E+02</rscale>
<asrwt>0</asrwt>
<pdfrwt beam="1">  1        2 0.13924955E-01 0.91473770E+02</pdfrwt>
<pdfrwt beam="2">  1       -2 0.35555980E-02 0.91473770E+02</pdfrwt>
<totfact> 0.11799164E+05</totfact>
</mgrwt>
</event>
<event>
 5    1  0.2799021E+000  0.9248792E+02  0.7818608E-02  0.1296936E+00
         -2   -1    0    0    0  501 -0.00000000000E+00  0.00000000000E+00  0.17970610074E+02  0.17970610262E+02  0.26000000000E-02 0.  1.
          2   -1    0    0  501    0  0.00000000000E+00 -0.00000000000E+00 -0.11900006791E+03  0.11900006793E+03  0.26000000000E-02 0. -1.
         23    2    1    2    0    0  0.00000000000E+00  0.00000000000E+00 -0.10102945783E+03  0.13697067820E+03  0.92487919944E+02 0.  0.
        -11    1    3    3    0    0 -0.31233110383E+02  0.27653717898E+02 -0.20959754169E+02  0.46685614411E+02  0.51100000000E-03 0.  1.
         11    1    3    3    0    0  0.31233110383E+02 -0.27653717898E+02 -0.80069703662E+02  0.90285063785E+02  0.51100000000E-03 0. -1.
<mgrwt>
<rscale>  0 0.92487920E+02</rscale>
<asrwt>0</asrwt>
<pdfrwt beam="2">  1        2 0.18307702E-01 0.92487920E+02</pdfrwt>
<pdfrwt beam="1">  1       -2 0.27647093E-02 0.92487920E+02</pdfrwt>
<totfact> 0.12454846E+05</totfact>
</mgrwt>
</event>
<event>
 5    1  0.2799021E+000  0.9207543E+02  0.7818608E-02  0.1297902E+00
         -2   -1    0    0    0  501 -0.00000000000E+00  0.00000000000E+00  0.17780983357E+03  0.17780983359E+03  0.26000000000E-02 0. -1.
          2   -1    0    0  501    0  0.00000000000E+00 -0.00000000000E+00 -0.11919877260E+02  0.11919877543E+02  0.26000000000E-02 0.  1.
         23    2    1    2    0    0  0.00000000000E+00  0.00000000000E+00  0.16588995631E+03  0.18972971114E+03  0.92075434737E+02 0.  0.
        -11    1    3    3    0    0 -0.30129807662E+02  0.34460778158E+02  0.72824800550E+02  0.86016289832E+02  0.51100000000E-03 0. -1.
         11    1    3    3    0    0  0.30129807662E+02 -0.34460778158E+02  0.93065155763E+02  0.10371342130E+03  0.51100000000E-03 0.  1.
<mgrwt>
<rscale>  0 0.92075435E+02</rscale>
<asrwt>0</asrwt>
<pdfrwt beam="2">  1        2 0.18338273E-02 0.92075435E+02</pdfrwt>
<pdfrwt beam="1">  1       -2 0.27355359E-01 0.92075435E+02</pdfrwt>
<totfact> 0.63841499E+04</totfact>
</mgrwt>
</event>
<event>
 5    1  0.2799021E+000  0.9445811E+02  0.7818608E-02  0.1292401E+00
          2   -1    0    0  501    0  0.00000000000E+00  0.00000000000E+00  0.35126356131E+03  0.35126356132E+03  0.26000000000E-02 0. -1.
         -2   -1    0    0    0  501 -0.00000000000E+00 -0.00000000000E+00 -0.63501705403E+01  0.63501710726E+01  0.26000000000E-02 0.  1.
         23    2    1    2    0    0  0.00000000000E+00  0.00000000000E+00  0.34491339077E+03  0.35761373239E+03  0.94458109568E+02 0.  0.
        -11    1    3    3    0    0 -0.42152923338E+02  0.86123296206E+01  0.98699377601E+02  0.10766897560E+03  0.51100000000E-03 0.  1.
         11    1    3    3    0    0  0.42152923338E+02 -0.86123296206E+01  0.24621401316E+03  0.24994475679E+03  0.51100000000E-03 0. -1.
<mgrwt>
<rscale>  0 0.94458110E+02</rscale>
<asrwt>0</asrwt>
<pdfrwt beam="1">  1        2 0.54040566E-01 0.94458110E+02</pdfrwt>
<pdfrwt beam="2">  1       -2 0.97694903E-03 0.94458110E+02</pdfrwt>
<totfact> 0.17331083E+05</totfact>
</mgrwt>
</event>
<event>
 5    1  0.2799021E+000  0.9158685E+02  0.7818608E-02  0.1299054E+00
          2   -1    0    0  501    0  0.00000000000E+00  0.00000000000E+00  0.29730868307E+03  0.29730868308E+03  0.26000000000E-02 0.  1.
         -2   -1    0    0    0  501 -0.00000000000E+00 -0.00000000000E+00 -0.70534028814E+01  0.70534033606E+01  0.26000000000E-02 0. -1.
         23    2    1    2    0    0  0.00000000000E+00  0.00000000000E+00  0.29025528019E+03  0.30436208644E+03  0.91586854875E+02 0.  0.
        -11    1    3    3    0    0 -0.13811501043E+02 -0.42646160333E+02  0.11402671014E+03  0.12252160291E+03  0.51100000000E-03 0. -1.
         11    1    3    3    0    0  0.13811501043E+02  0.42646160333E+02  0.17622857004E+03  0.18184048353E+03  0.51100000000E-03 0.  1.
<mgrwt>
<rscale>  0 0.91586855E+02</rscale>
<asrwt>0</asrwt>
<pdfrwt beam="1">  1        2 0.45739797E-01 0.91586855E+02</pdfrwt>
<pdfrwt beam="2">  1       -2 0.10851390E-02 0.91586855E+02</pdfrwt>
<totfact> 0.17692500E+05</totfact>
</mgrwt>
</event>
<event>
 5    1  0.2799021E+000  0.9150380E+02  0.7818608E-02  0.1299250E+00
          2   -1    0    0  501    0  0.00000000000E+00  0.00000000000E+00  0.31934144720E+03  0.31934144721E+03  0.26000000000E-02 0. -1.
         -2   -1    0    0    0  501 -0.00000000000E+00 -0.00000000000E+00 -0.65548530076E+01  0.65548535233E+01  0.26000000000E-02 0.  1.
         23    2    1    2    0    0  0.00000000000E+00  0.00000000000E+00  0.31278659419E+03  0.32589630073E+03  0.91503799514E+02 0.  0.
        -11    1    3    3    0    0 -0.42552451436E+02  0.11521010775E+02  0.19998300061E+03  0.20478438745E+03  0.51100000000E-03 0. -1.
         11    1    3    3    0    0  0.42552451436E+02 -0.11521010775E+02  0.11280359358E+03  0.12111191328E+03  0.51100000000E-03 0.  1.
<mgrwt>
<rscale>  0 0.91503800E+02</rscale>
<asrwt>0</asrwt>
<pdfrwt beam="1">  1        2 0.49129448E-01 0.91503800E+02</pdfrwt>
<pdfrwt beam="2">  1       -2 0.10084391E-02 0.91503800E+02</pdfrwt>
<totfact> 0.18213233E+05</totfact>
</mgrwt>
</event>
<event>
 5    1  0.2799021E+000  0.9056383E+02  0.7818608E-02  0.1301492E+00
         -2   -1    0    0    0  501 -0.00000000000E+00  0.00000000000E+00  0.99407771952E+01  0.99407775352E+01  0.26000000000E-02 0. -1.
          2   -1    0    0  501    0  0.00000000000E+00 -0.00000000000E+00 -0.20626672956E+03  0.20626672957E+03  0.26000000000E-02 0.  1.
         23    2    1    2    0    0  0.00000000000E+00  0.00000000000E+00 -0.19632595236E+03  0.21620750711E+03  0.90563825887E+02 0.  0.
        -11    1    3    3    0    0  0.43659416531E+02  0.95323623708E+01 -0.11561531039E+03  0.12395124276E+03  0.51100000000E-03 0. -1.
         11    1    3    3    0    0 -0.43659416531E+02 -0.95323623708E+01 -0.80710641966E+02  0.92256264346E+02  0.51100000000E-03 0.  1.
<mgrwt>
<rscale>  0 0.90563826E+02</rscale>
<asrwt>0</asrwt>
<pdfrwt beam="2">  1        2 0.31733340E-01 0.90563826E+02</pdfrwt>
<pdfrwt beam="1">  1       -2 0.15293505E-02 0.90563826E+02</pdfrwt>
<totfact> 0.15928136E+05</totfact>
</mgrwt>
</event>
<event>
 5    1  0.2799021E+000  0.9635939E+02  0.7818608E-02  0.1288143E+00
          2   -1    0    0  501    0  0.00000000000E+00  0.00000000000E+00  0.39867998340E+02  0.39867998425E+02  0.26000000000E-02 0.  1.
         -2   -1    0    0    0  501 -0.00000000000E+00 -0.00000000000E+00 -0.58224215061E+02  0.58224215119E+02  0.26000000000E-02 0. -1.
         23    2    1    2    0    0  0.00000000000E+00  0.00000000000E+00 -0.18356216721E+02  0.98092213544E+02  0.96359388052E+02 0.  0.
        -11    1    3    3    0    0 -0.28725936271E+02 -0.36792302202E+02  0.29709114177E+01  0.46772633354E+02  0.51100000000E-03 0.  1.
         11    1    3    3    0    0  0.28725936271E+02  0.36792302202E+02 -0.21327128139E+02  0.51319580190E+02  0.51100000000E-03 0. -1.
<mgrwt>
<rscale>  0 0.96359388E+02</rscale>
<asrwt>0</asrwt>
<pdfrwt beam="1">  1        2 0.61335382E-02 0.96359388E+02</pdfrwt>
<pdfrwt beam="2">  1       -2 0.89575715E-02 0.96359388E+02</pdfrwt>
<totfact> 0.81110296E+04</totfact>
</mgrwt>
</event>
<event>
 5    1  0.2799021E+000  0.8807583E+02  0.7818608E-02  0.1307579E+00
          2   -1    0    0  501    0  0.00000000000E+00  0.00000000000E+00  0.18634281877E+02  0.18634282058E+02  0.26000000000E-02 0. -1.
         -2   -1    0    0    0  501 -0.00000000000E+00 -0.00000000000E+00 -0.10407366109E+03  0.10407366112E+03  0.26000000000E-02 0.  1.
         23    2    1    2    0    0  0.00000000000E+00  0.00000000000E+00 -0.85439379214E+02  0.12270794318E+03  0.88075829825E+02 0.  0.
        -11    1    3    3    0    0  0.20034497571E+02  0.23150190872E+02  0.13820097136E+01  0.30646735249E+02  0.51100000000E-03 0. -1.
         11    1    3    3    0    0 -0.20034497571E+02 -0.23150190872E+02 -0.86821388928E+02  0.92061207932E+02  0.51100000000E-03 0.  1.
<mgrwt>
<rscale>  0 0.88075830E+02</rscale>
<asrwt>0</asrwt>
<pdfrwt beam="1">  1        2 0.28668127E-02 0.88075830E+02</pdfrwt>
<pdfrwt beam="2">  1       -2 0.16011332E-01 0.88075830E+02</pdfrwt>
<totfact> 0.85953948E+04</totfact>
</mgrwt>
</event>
<event>
 5    1  0.2799021E+000  0.8928583E+02  0.7818608E-02  0.1304590E+00
          2   -1    0    0  501    0  0.00000000000E+00  0.00000000000E+00  0.27560787896E+02  0.27560788019E+02  0.26000000000E-02 0. -1.
         -2   -1    0    0    0  501 -0.00000000000E+00 -0.00000000000E+00 -0.72312510183E+02  0.72312510230E+02  0.26000000000E-02 0.  1.
         23    2    1    2    0    0  0.00000000000E+00  0.00000000000E+00 -0.44751722288E+02  0.99873298249E+02  0.89285827853E+02 0.  0.
        -11    1    3    3    0    0 -0.24131500674E+02  0.35012994390E+02 -0.71717909824E+01  0.43123934040E+02  0.51100000000E-03 0.  1.
         11    1    3    3    0    0  0.24131500674E+02 -0.35012994390E+02 -0.37579931305E+02  0.56749364209E+02  0.51100000000E-03 0. -1.
<mgrwt>
<rscale>  0 0.89285828E+02</rscale>
<asrwt>0</asrwt>
<pdfrwt beam="1">  1        2 0.42401213E-02 0.89285828E+02</pdfrwt>
<pdfrwt beam="2">  1       -2 0.11125002E-01 0.89285828E+02</pdfrwt>
<totfact> 0.92043116E+04</totfact>
</mgrwt>
</event>
<event>
 5    1  0.2799021E+000  0.9117395E+02  0.7818608E-02  0.1300033E+00
         -2   -1    0    0    0  501 -0.00000000000E+00  0.00000000000E+00  0.16044286532E+02  0.16044286742E+02  0.26000000000E-02 0. -1.
          2   -1    0    0  501    0  0.00000000000E+00 -0.00000000000E+00 -0.12952725079E+03  0.12952725081E+03  0.26000000000E-02 0.  1.
         23    2    1    2    0    0  0.00000000000E+00  0.00000000000E+00 -0.11348296426E+03  0.14557153756E+03  0.91173951160E+02 0.  0.
        -11    1    3    3    0    0 -0.38968167029E+02 -0.23611890025E+02 -0.59073307588E+02  0.74603586120E+02  0.51100000000E-03 0.  1.
         11    1    3    3    0    0  0.38968167029E+02  0.23611890025E+02 -0.54409656669E+02  0.70967951438E+02  0.51100000000E-03 0. -1.
<mgrwt>
<rscale>  0 0.91173951E+02</rscale>
<asrwt>0</asrwt>
<pdfrwt beam="2">  1        2 0.19927269E-01 0.91173951E+02</pdfrwt>
<pdfrwt beam="1">  1       -2 0.24683519E-02 0.91173951E+02</pdfrwt>
<totfact> 0.13313298E+05</totfact>
</mgrwt>
</event>
<event>
 5    1  0.2799021E+000  0.8935891E+02  0.7818608E-02  0.1304412E+00
         -2   -1    0    0    0  501 -0.00000000000E+00  0.00000000000E+00  0.81613544681E+02  0.81613544723E+02  0.26000000000E-02 0. -1.
          2   -1    0    0  501    0  0.00000000000E+00 -0.00000000000E+00 -0.24459835703E+02  0.24459835841E+02  0.26000000000E-02 0.  1.
         23    2    1    2    0    0  0.00000000000E+00  0.00000000000E+00  0.57153708978E+02  0.10607338056E+03  0.89358914576E+02 0.  0.
        -11    1    3    3    0    0  0.11285221422E+02 -0.37895553201E+02  0.53272737421E+02  0.66343151324E+02  0.51100000000E-03 0. -1.
         11    1    3    3    0    0 -0.11285221422E+02  0.37895553201E+02  0.38809715571E+01  0.39730229240E+02  0.51100000000E-03 0.  1.
<mgrwt>
<rscale>  0 0.89358915E+02</rscale>
<asrwt>0</asrwt>
<pdfrwt beam="2">  1        2 0.37630516E-02 0.89358915E+02</pdfrwt>
<pdfrwt beam="1">  1       -2 0.12555930E-01 0.89358915E+02</pdfrwt>
<totfact> 0.88904493E+04</totfact>
</mgrwt>
</event>
<event>
 5    1  0.2799021E+000  0.8756810E+02  0.7818608E-02  0.1308850E+00
          2   -1    0    0  501    0  0.00000000000E+00  0.00000000000E+00  0.16343597427E+03  0.16343597429E+03  0.26000000000E-02 0. -1.
         -2   -1    0    0    0  501 -0.00000000000E+00 -0.00000000000E+00 -0.11729625907E+02  0.11729626195E+02  0.26000000000E-02 0.  1.
         23    2    1    2    0    0  0.00000000000E+00  0.00000000000E+00  0.15170634836E+03  0.17516560048E+03  0.87568096130E+02 0.  0.
        -11    1    3    3    0    0 -0.39004315016E+02  0.19766443019E+02  0.71382969492E+02  0.83711272797E+02  0.51100000000E-03 0.  1.
         11    1    3    3    0    0  0.39004315016E+02 -0.19766443019E+02  0.80323378871E+02  0.91454327688E+02  0.51100000000E-03 0. -1.
<mgrwt>
<rscale>  0 0.87568096E+02</rscale>
<asrwt>0</asrwt>
<pdfrwt beam="1">  1        2 0.25143993E-01 0.87568096E+02</pdfrwt>
<pdfrwt beam="2">  1       -2 0.18045581E-02 0.87568096E+02</pdfrwt>
<totfact> 0.16056741E+05</totfact>
</mgrwt>
</event>
<event>
 5    1  0.2799021E+000  0.9270436E+02  0.7818608E-02  0.1296432E+00
         -2   -1    0    0    0  501 -0.00000000000E+00  0.00000000000E+00  0.28149969897E+02  0.28149970017E+02  0.26000000000E-02 0. -1.
          2   -1    0    0  501    0  0.00000000000E+00 -0.00000000000E+00 -0.76324229946E+02  0.76324229991E+02  0.26000000000E-02 0.  1.
         23    2    1    2    0    0  0.00000000000E+00  0.00000000000E+00 -0.48174260049E+02  0.10447420001E+03  0.92704364169E+02 0.  0.
        -11    1    3    3    0    0  0.32725539728E+02 -0.29431890006E+02 -0.40469890114E+02  0.59791379863E+02  0.51100000000E-03 0.  1.
         11    1    3    3    0    0 -0.32725539728E+02  0.29431890006E+02 -0.77043699353E+01  0.44682820145E+02  0.51100000000E-03 0. -1.
<mgrwt>
<rscale>  0 0.92704364E+02</rscale>
<asrwt>0</asrwt>
<pdfrwt beam="2">  1        2 0.11742189E-01 0.92704364E+02</pdfrwt>
<pdfrwt beam="1">  1       -2 0.43307646E-02 0.92704364E+02</pdfrwt>
<totfact> 0.10819277E+05</totfact>
</mgrwt>
</event>
<event>
 5    1  0.2799021E+000  0.9257117E+02  0.7818608E-02  0.1296742E+00
          2   -1    0    0  501    0  0.00000000000E+00  0.00000000000E+00  0.86263301330E+02  0.86263301369E+02  0.26000000000E-02 0. -1.
         -2   -1    0    0    0  501 -0.00000000000E+00 -0.00000000000E+00 -0.24835073225E+02  0.24835073361E+02  0.26000000000E-02 0.  1.
         23    2    1    2    0    0  0.00000000000E+00  0.00000000000E+00  0.61428228105E+02  0.11109837473E+03  0.92571170779E+02 0.  0.
        -11    1    3    3    0    0 -0.27968937044E+02 -0.16709073328E+02 -0.87429600206E+01  0.33732683276E+02  0.51100000000E-03 0.  1.
         11    1    3    3    0    0  0.27968937044E+02  0.16709073328E+02  0.70171188125E+02  0.77365691453E+02  0.51100000000E-03 0. -1.
<mgrwt>
<rscale>  0 0.92571171E+02</rscale>
<asrwt>0</asrwt>
<pdfrwt beam="1">  1        2 0.13271277E-01 0.92571171E+02</pdfrwt>
<pdfrwt beam="2">  1       -2 0.38207806E-02 0.92571171E+02</pdfrwt>
<totfact> 0.11254345E+05</totfact>
</mgrwt>
</event>
<event>
 5    1  0.2799021E+000  0.9051925E+02  0.7818608E-02  0.1301599E+00
         -2   -1    0    0    0  501 -0.00000000000E+00  0.00000000000E+00  0.13725722565E+02  0.13725722811E+02  0.26000000000E-02 0.  1.
          2   -1    0    0  501    0  0.00000000000E+00 -0.00000000000E+00 -0.14924049120E+03  0.14924049122E+03  0.26000000000E-02 0. -1.
         23    2    1    2    0    0  0.00000000000E+00  0.00000000000E+00 -0.13551476864E+03  0.16296621403E+03  0.90519248772E+02 0.  0.
        -11    1    3    3    0    0 -0.40820231784E+02 -0.17929220150E+02 -0.53732524327E+02  0.69820716331E+02  0.51100000000E-03 0.  1.
         11    1    3    3    0    0  0.40820231784E+02  0.17929220150E+02 -0.81782244309E+02  0.93145497704E+02  0.51100000000E-03 0. -1.
<mgrwt>
<rscale>  0 0.90519249E+02</rscale>
<asrwt>0</asrwt>
<pdfrwt beam="2">  1        2 0.22960074E-01 0.90519249E+02</pdfrwt>
<pdfrwt beam="1">  1       -2 0.21116498E-02 0.90519249E+02</pdfrwt>
<totfact> 0.14233547E+05</totfact>
</mgrwt>
</event>
<event>
 5    1  0.2799021E+000  0.9315635E+02  0.7818608E-02  0.1295383E+00
         -2   -1    0    0    0  501 -0.00000000000E+00  0.00000000000E+00  0.28509196437E+02  0.28509196556E+02  0.26000000000E-02 0. -1.
          2   -1    0    0  501    0  0.00000000000E+00 -0.00000000000E+00 -0.76099178398E+02  0.76099178442E+02  0.26000000000E-02 0.  1.
         23    2    1    2    0    0  0.00000000000E+00  0.00000000000E+00 -0.47589981960E+02  0.10460837500E+03  0.93156351028E+02 0.  0.
        -11    1    3    3    0    0 -0.28443194712E+02 -0.35093789226E+02 -0.11044031100E+02  0.46503333115E+02  0.51100000000E-03 0. -1.
         11    1    3    3    0    0  0.28443194712E+02  0.35093789226E+02 -0.36545950861E+02  0.58105041883E+02  0.51100000000E-03 0.  1.
<mgrwt>
<rscale>  0 0.93156351E+02</rscale>
<asrwt>0</asrwt>
<pdfrwt beam="2">  1        2 0.11707566E-01 0.93156351E+02</pdfrwt>
<pdfrwt beam="1">  1       -2 0.43860302E-02 0.93156351E+02</pdfrwt>
<totfact> 0.10664093E+05</totfact>
</mgrwt>
</event>
<event>
 5    1  0.2799021E+000  0.8800434E+02  0.7818608E-02  0.1307758E+00
          2   -1    0    0  501    0  0.00000000000E+00  0.00000000000E+00  0.10991650824E+03  0.10991650827E+03  0.26000000000E-02 0. -1.
         -2   -1    0    0    0  501 -0.00000000000E+00 -0.00000000000E+00 -0.17615106359E+02  0.17615106551E+02  0.26000000000E-02 0.  1.
         23    2    1    2    0    0  0.00000000000E+00  0.00000000000E+00  0.92301401883E+02  0.12753161482E+03  0.88004340746E+02 0.  0.
        -11    1    3    3    0    0 -0.28358169587E+02 -0.96242897147E+01 -0.56905654596E+00  0.29952237987E+02  0.51100000000E-03 0.  1.
         11    1    3    3    0    0  0.28358169587E+02  0.96242897147E+01  0.92870458429E+02  0.97579376837E+02  0.51100000000E-03 0. -1.
<mgrwt>
<rscale>  0 0.88004341E+02</rscale>
<asrwt>0</asrwt>
<pdfrwt beam="1">  1        2 0.16910232E-01 0.88004341E+02</pdfrwt>
<pdfrwt beam="2">  1       -2 0.27100164E-02 0.88004341E+02</pdfrwt>
<totfact> 0.13914743E+05</totfact>
</mgrwt>
</event>
<event>
 5    1  0.2799021E+000  0.9185108E+02  0.7818608E-02  0.1298430E+00
         -2   -1    0    0    0  501 -0.00000000000E+00  0.00000000000E+00  0.42358503373E+02  0.42358503452E+02  0.26000000000E-02 0.  1.
          2   -1    0    0  501    0  0.00000000000E+00 -0.00000000000E+00 -0.49792962494E+02  0.49792962562E+02  0.26000000000E-02 0. -1.
         23    2    1    2    0    0  0.00000000000E+00  0.00000000000E+00 -0.74344591211E+01  0.92151466014E+02  0.91851083315E+02 0.  0.
        -11    1    3    3    0    0  0.67400912690E+01 -0.29034207063E+02  0.31336142015E+02  0.43247749153E+02  0.51100000000E-03 0.  1.
         11    1    3    3    0    0 -0.67400912690E+01  0.29034207063E+02 -0.38770601136E+02  0.48903716861E+02  0.51100000000E-03 0. -1.
<mgrwt>
<rscale>  0 0.91851083E+02</rscale>
<asrwt>0</asrwt>
<pdfrwt beam="2">  1        2 0.76604558E-02 0.91851083E+02</pdfrwt>
<pdfrwt beam="1">  1       -2 0.65166928E-02 0.91851083E+02</pdfrwt>
<totfact> 0.98863800E+04</totfact>
</mgrwt>
</event>
<event>
 5    1  0.2799021E+000  0.9003948E+02  0.7818608E-02  0.1302756E+00
         -2   -1    0    0    0  501 -0.00000000000E+00  0.00000000000E+00  0.41054085090E+02  0.41054085173E+02  0.26000000000E-02 0.  1.
          2   -1    0    0  501    0  0.00000000000E+00 -0.00000000000E+00 -0.49368460363E+02  0.49368460431E+02  0.26000000000E-02 0. -1.
         23    2    1    2    0    0  0.00000000000E+00  0.00000000000E+00 -0.83143752723E+01  0.90422545604E+02  0.90039479771E+02 0.  0.
        -11    1    3    3    0    0  0.40706622973E+02 -0.38494735647E+01 -0.23076908579E+02  0.46950945789E+02  0.51100000000E-03 0. -1.
         11    1    3    3    0    0 -0.40706622973E+02  0.38494735647E+01  0.14762533307E+02  0.43471599815E+02  0.51100000000E-03 0.  1.
<mgrwt>
<rscale>  0 0.90039480E+02</rscale>
<asrwt>0</asrwt>
<pdfrwt beam="2">  1        2 0.75951478E-02 0.90039480E+02</pdfrwt>
<pdfrwt beam="1">  1       -2 0.63160131E-02 0.90039480E+02</pdfrwt>
<totfact> 0.10440994E+05</totfact>
</mgrwt>
</event>
<event>
 5    1  0.2799021E+000  0.9299278E+02  0.7818608E-02  0.1295762E+00
         -2   -1    0    0    0  501 -0.00000000000E+00  0.00000000000E+00  0.81497137004E+01  0.81497141151E+01  0.26000000000E-02 0.  1.
          2   -1    0    0  501    0  0.00000000000E+00 -0.00000000000E+00 -0.26527486680E+03  0.26527486681E+03  0.26000000000E-02 0. -1.
         23    2    1    2    0    0  0.00000000000E+00  0.00000000000E+00 -0.25712515310E+03  0.27342458092E+03  0.92992779822E+02 0.  0.
        -11    1    3    3    0    0 -0.40122132701E+02 -0.96627011010E+01 -0.19153951533E+03  0.19593503836E+03  0.51100000000E-03 0. -1.
         11    1    3    3    0    0  0.40122132701E+02  0.96627011010E+01 -0.65585637768E+02  0.77489542564E+02  0.51100000000E-03 0.  1.
<mgrwt>
<rscale>  0 0.92992780E+02</rscale>
<asrwt>0</asrwt>
<pdfrwt beam="2">  1        2 0.40811511E-01 0.92992780E+02</pdfrwt>
<pdfrwt beam="1">  1       -2 0.12538023E-02 0.92992780E+02</pdfrwt>
<totfact> 0.16277009E+05</totfact>
</mgrwt>
</event>
<event>
 5    1  0.2799021E+000  0.9326795E+02  0.7818608E-02  0.1295125E+00
         -2   -1    0    0    0  501 -0.00000000000E+00  0.00000000000E+00  0.55082257301E+02  0.55082257362E+02  0.26000000000E-02 0. -1.
          2   -1    0    0  501    0  0.00000000000E+00 -0.00000000000E+00 -0.39481456601E+02  0.39481456686E+02  0.26000000000E-02 0.  1.
         23    2    1    2    0    0  0.00000000000E+00  0.00000000000E+00  0.15600800700E+02  0.94563714048E+02  0.93267952868E+02 0.  0.
        -11    1    3    3    0    0  0.24330792414E+02 -0.43837296741E+01  0.47891156093E+02  0.53895893883E+02  0.51100000000E-03 0. -1.
         11    1    3    3    0    0 -0.24330792414E+02  0.43837296741E+01 -0.32290355393E+02  0.40667820165E+02  0.51100000000E-03 0.  1.
<mgrwt>
<rscale>  0 0.93267953E+02</rscale>
<asrwt>0</asrwt>
<pdfrwt beam="2">  1        2 0.60740703E-02 0.93267953E+02</pdfrwt>
<pdfrwt beam="1">  1       -2 0.84741934E-02 0.93267953E+02</pdfrwt>
<totfact> 0.88997402E+04</totfact>
</mgrwt>
</event>
<event>
 5    1  0.2799021E+000  0.8444016E+02  0.7818608E-02  0.1316903E+00
         -2   -1    0    0    0  501 -0.00000000000E+00  0.00000000000E+00  0.11528147007E+02  0.11528147300E+02  0.26000000000E-02 0.  1.
          2   -1    0    0  501    0  0.00000000000E+00 -0.00000000000E+00 -0.15462460927E+03  0.15462460929E+03  0.26000000000E-02 0. -1.
         23    2    1    2    0    0  0.00000000000E+00  0.00000000000E+00 -0.14309646226E+03  0.16615275659E+03  0.84440162309E+02 0.  0.
        -11    1    3    3    0    0 -0.12864522455E+02  0.36881915921E+02 -0.40018140930E+02  0.55921581377E+02  0.51100000000E-03 0.  1.
         11    1    3    3    0    0  0.12864522455E+02 -0.36881915921E+02 -0.10307832133E+03  0.11023117521E+03  0.51100000000E-03 0. -1.
<mgrwt>
<rscale>  0 0.84440162E+02</rscale>
<asrwt>0</asrwt>
<pdfrwt beam="2">  1        2 0.23788400E-01 0.84440162E+02</pdfrwt>
<pdfrwt beam="1">  1       -2 0.17735612E-02 0.84440162E+02</pdfrwt>
<totfact> 0.17375138E+05</totfact>
</mgrwt>
</event>
<event>
 5    1  0.2799021E+000  0.9224952E+02  0.7818608E-02  0.1297494E+00
         -2   -1    0    0    0  501 -0.00000000000E+00  0.00000000000E+00  0.16713669002E+02  0.16713669204E+02  0.26000000000E-02 0.  1.
          2   -1    0    0  501    0  0.00000000000E+00 -0.00000000000E+00 -0.12729064212E+03  0.12729064215E+03  0.26000000000E-02 0. -1.
         23    2    1    2    0    0  0.00000000000E+00  0.00000000000E+00 -0.11057697312E+03  0.14400431135E+03  0.92249524138E+02 0.  0.
        -11    1    3    3    0    0 -0.20486486771E+02 -0.17334164175E+02  0.32725090295E+01  0.27034768419E+02  0.51100000000E-03 0.  1.
         11    1    3    3    0    0  0.20486486771E+02  0.17334164175E+02 -0.11384948215E+03  0.11696954293E+03  0.51100000000E-03 0. -1.
<mgrwt>
<rscale>  0 0.92249524E+02</rscale>
<asrwt>0</asrwt>
<pdfrwt beam="2">  1        2 0.19583175E-01 0.92249524E+02</pdfrwt>
<pdfrwt beam="1">  1       -2 0.25713338E-02 0.92249524E+02</pdfrwt>
<totfact> 0.12820112E+05</totfact>
</mgrwt>
</event>
<event>
 5    1  0.2799021E+000  0.9105224E+02  0.7818608E-02  0.1300323E+00
          2   -1    0    0  501    0  0.00000000000E+00  0.00000000000E+00  0.13725378521E+03  0.13725378523E+03  0.26000000000E-02 0. -1.
         -2   -1    0    0    0  501 -0.00000000000E+00 -0.00000000000E+00 -0.15100694562E+02  0.15100694786E+02  0.26000000000E-02 0.  1.
         23    2    1    2    0    0  0.00000000000E+00  0.00000000000E+00  0.12215309065E+03  0.15235448002E+03  0.91052237906E+02 0.  0.
        -11    1    3    3    0    0 -0.31605550448E+02  0.32593832572E+02  0.55437180672E+02  0.71655772566E+02  0.51100000000E-03 0.  1.
         11    1    3    3    0    0  0.31605550448E+02 -0.32593832572E+02  0.66715909975E+02  0.80698707455E+02  0.51100000000E-03 0. -1.
<mgrwt>
<rscale>  0 0.91052238E+02</rscale>
<asrwt>0</asrwt>
<pdfrwt beam="1">  1        2 0.21115967E-01 0.91052238E+02</pdfrwt>
<pdfrwt beam="2">  1       -2 0.23231838E-02 0.91052238E+02</pdfrwt>
<totfact> 0.13620001E+05</totfact>
</mgrwt>
</event>
<event>
 5    1  0.2799021E+000  0.9462434E+02  0.7818608E-02  0.1292024E+00
         -2   -1    0    0    0  501 -0.00000000000E+00  0.00000000000E+00  0.12181672251E+02  0.12181672529E+02  0.26000000000E-02 0.  1.
          2   -1    0    0  501    0  0.00000000000E+00 -0.00000000000E+00 -0.18375484550E+03  0.18375484552E+03  0.26000000000E-02 0. -1.
         23    2    1    2    0    0  0.00000000000E+00  0.00000000000E+00 -0.17157317325E+03  0.19593651805E+03  0.94624337916E+02 0.  0.
        -11    1    3    3    0    0 -0.41906350328E+02 -0.63661187919E+00 -0.13124227385E+03  0.13777184734E+03  0.51100000000E-03 0. -1.
         11    1    3    3    0    0  0.41906350328E+02  0.63661187919E+00 -0.40330899400E+02  0.58164670713E+02  0.51100000000E-03 0.  1.
<mgrwt>
<rscale>  0 0.94624338E+02</rscale>
<asrwt>0</asrwt>
<pdfrwt beam="2">  1        2 0.28269974E-01 0.94624338E+02</pdfrwt>
<pdfrwt beam="1">  1       -2 0.18741036E-02 0.94624338E+02</pdfrwt>
<totfact> 0.13570589E+05</totfact>
</mgrwt>
</event>
<event>
 5    1  0.2799021E+000  0.9116100E+02  0.7818608E-02  0.1300064E+00
         -2   -1    0    0    0  501 -0.00000000000E+00  0.00000000000E+00  0.74200903636E+01  0.74200908191E+01  0.26000000000E-02 0.  1.
          2   -1    0    0  501    0  0.00000000000E+00 -0.00000000000E+00 -0.27999412369E+03  0.27999412370E+03  0.26000000000E-02 0. -1.
         23    2    1    2    0    0  0.00000000000E+00  0.00000000000E+00 -0.27257403333E+03  0.28741421452E+03  0.91160995305E+02 0.  0.
        -11    1    3    3    0    0 -0.51687742588E+01 -0.43321228024E+02 -0.94682125410E+02  0.10425041917E+03  0.51100000000E-03 0. -1.
         11    1    3    3    0    0  0.51687742588E+01  0.43321228024E+02 -0.17789190792E+03  0.18316379535E+03  0.51100000000E-03 0.  1.
<mgrwt>
<rscale>  0 0.91160995E+02</rscale>
<asrwt>0</asrwt>
<pdfrwt beam="2">  1        2 0.43076011E-01 0.91160995E+02</pdfrwt>
<pdfrwt beam="1">  1       -2 0.11415526E-02 0.91160995E+02</pdfrwt>
<totfact> 0.17517704E+05</totfact>
</mgrwt>
</event>
<event>
 5    1  0.2799021E+000  0.9120635E+02  0.7818608E-02  0.1299956E+00
          2   -1    0    0  501    0  0.00000000000E+00  0.00000000000E+00  0.35638027117E+02  0.35638027212E+02  0.26000000000E-02 0.  1.
         -2   -1    0    0    0  501 -0.00000000000E+00 -0.00000000000E+00 -0.58354792729E+02  0.58354792787E+02  0.26000000000E-02 0. -1.
         23    2    1    2    0    0  0.00000000000E+00  0.00000000000E+00 -0.22716765612E+02  0.93992819998E+02  0.91206352692E+02 0.  0.
        -11    1    3    3    0    0  0.15040107554E+02 -0.22880909304E+02  0.26223672587E+02  0.37913346595E+02  0.51100000000E-03 0.  1.
         11    1    3    3    0    0 -0.15040107554E+02  0.22880909304E+02 -0.48940438199E+02  0.56079473403E+02  0.51100000000E-03 0. -1.
<mgrwt>
<rscale>  0 0.91206353E+02</rscale>
<asrwt>0</asrwt>
<pdfrwt beam="1">  1        2 0.54827734E-02 0.91206353E+02</pdfrwt>
<pdfrwt beam="2">  1       -2 0.89776604E-02 0.91206353E+02</pdfrwt>
<totfact> 0.92485511E+04</totfact>
</mgrwt>
</event>
<event>
 5    1  0.2799021E+000  0.9231203E+02  0.7818608E-02  0.1297347E+00
         -2   -1    0    0    0  501 -0.00000000000E+00  0.00000000000E+00  0.15915196586E+02  0.15915196799E+02  0.26000000000E-02 0.  1.
          2   -1    0    0  501    0  0.00000000000E+00 -0.00000000000E+00 -0.13385807526E+03  0.13385807529E+03  0.26000000000E-02 0. -1.
         23    2    1    2    0    0  0.00000000000E+00  0.00000000000E+00 -0.11794287868E+03  0.14977327209E+03  0.92312027392E+02 0.  0.
        -11    1    3    3    0    0 -0.61072058353E+01  0.41936033643E+02 -0.88643027834E+02  0.98252304119E+02  0.51100000000E-03 0. -1.
         11    1    3    3    0    0  0.61072058353E+01 -0.41936033643E+02 -0.29299850844E+02  0.51520967970E+02  0.51100000000E-03 0.  1.
<mgrwt>
<rscale>  0 0.92312027E+02</rscale>
<asrwt>0</asrwt>
<pdfrwt beam="2">  1        2 0.20593549E-01 0.92312027E+02</pdfrwt>
<pdfrwt beam="1">  1       -2 0.24484919E-02 0.92312027E+02</pdfrwt>
<totfact> 0.13010323E+05</totfact>
</mgrwt>
</event>
<event>
 5    1  0.2799021E+000  0.8887328E+02  0.7818608E-02  0.1305603E+00
          2   -1    0    0  501    0  0.00000000000E+00  0.00000000000E+00  0.40901954462E+02  0.40901954545E+02  0.26000000000E-02 0. -1.
         -2   -1    0    0    0  501 -0.00000000000E+00 -0.00000000000E+00 -0.48276784494E+02  0.48276784564E+02  0.26000000000E-02 0.  1.
         23    2    1    2    0    0  0.00000000000E+00  0.00000000000E+00 -0.73748300320E+01  0.89178739109E+02  0.88873277148E+02 0.  0.
        -11    1    3    3    0    0 -0.13414496511E+02  0.40718420508E+02 -0.15418463732E+02  0.45559494174E+02  0.51100000000E-03 0.  1.
         11    1    3    3    0    0  0.13414496511E+02 -0.40718420508E+02  0.80436337000E+01  0.43619244934E+02  0.51100000000E-03 0. -1.
<mgrwt>
<rscale>  0 0.88873277E+02</rscale>
<asrwt>0</asrwt>
<pdfrwt beam="1">  1        2 0.62926083E-02 0.88873277E+02</pdfrwt>
<pdfrwt beam="2">  1       -2 0.74271977E-02 0.88873277E+02</pdfrwt>
<totfact> 0.10328246E+05</totfact>
</mgrwt>
</event>
<event>
 5    1  0.2799021E+000  0.9710028E+02  0.7818608E-02  0.1286515E+00
          2   -1    0    0  501    0  0.00000000000E+00  0.00000000000E+00  0.15993825814E+03  0.15993825816E+03  0.26000000000E-02 0. -1.
         -2   -1    0    0    0  501 -0.00000000000E+00 -0.00000000000E+00 -0.14737662197E+02  0.14737662426E+02  0.26000000000E-02 0.  1.
         23    2    1    2    0    0  0.00000000000E+00  0.00000000000E+00  0.14520059594E+03  0.17467592059E+03  0.97100278943E+02 0.  0.
        -11    1    3    3    0    0 -0.43666779937E+02  0.13165590500E+02  0.42660490875E+02  0.62450283628E+02  0.51100000000E-03 0.  1.
         11    1    3    3    0    0  0.43666779937E+02 -0.13165590500E+02  0.10254010507E+03  0.11222563696E+03  0.51100000000E-03 0. -1.
<mgrwt>
<rscale>  0 0.97100279E+02</rscale>
<asrwt>0</asrwt>
<pdfrwt beam="1">  1        2 0.24605886E-01 0.97100279E+02</pdfrwt>
<pdfrwt beam="2">  1       -2 0.22673326E-02 0.97100279E+02</pdfrwt>
<totfact> 0.12041549E+05</totfact>
</mgrwt>
</event>
<event>
 5    1  0.2799021E+000  0.8319880E+02  0.7818608E-02  0.1320211E+00
         -2   -1    0    0    0  501 -0.00000000000E+00  0.00000000000E+00  0.18746582594E+02  0.18746582774E+02  0.26000000000E-02 0.  1.
          2   -1    0    0  501    0  0.00000000000E+00 -0.00000000000E+00 -0.92310696055E+02  0.92310696092E+02  0.26000000000E-02 0. -1.
         23    2    1    2    0    0  0.00000000000E+00  0.00000000000E+00 -0.73564113462E+02  0.11105727887E+03  0.83198800470E+02 0.  0.
        -11    1    3    3    0    0  0.10707525729E+02 -0.39874989944E+02 -0.43568016060E+02  0.60023644957E+02  0.51100000000E-03 0. -1.
         11    1    3    3    0    0 -0.10707525729E+02  0.39874989944E+02 -0.29996097402E+02  0.51033633909E+02  0.51100000000E-03 0.  1.
<mgrwt>
<rscale>  0 0.83198800E+02</rscale>
<asrwt>0</asrwt>
<pdfrwt beam="2">  1        2 0.14201645E-01 0.83198800E+02</pdfrwt>
<pdfrwt beam="1">  1       -2 0.28840897E-02 0.83198800E+02</pdfrwt>
<totfact> 0.15392535E+05</totfact>
</mgrwt>
</event>
<event>
 5    1  0.2799021E+000  0.9003949E+02  0.7818608E-02  0.1302756E+00
          2   -1    0    0  501    0  0.00000000000E+00  0.00000000000E+00  0.23707601346E+03  0.23707601348E+03  0.26000000000E-02 0.  1.
         -2   -1    0    0    0  501 -0.00000000000E+00 -0.00000000000E+00 -0.85490604884E+01  0.85490608838E+01  0.26000000000E-02 0. -1.
         23    2    1    2    0    0  0.00000000000E+00  0.00000000000E+00  0.22852695297E+03  0.24562507436E+03  0.90039485333E+02 0.  0.
        -11    1    3    3    0    0 -0.20072993658E+02  0.39574613978E+02  0.13498565655E+03  0.14209223280E+03  0.51100000000E-03 0.  1.
         11    1    3    3    0    0  0.20072993658E+02 -0.39574613978E+02  0.93541296423E+02  0.10353284157E+03  0.51100000000E-03 0. -1.
<mgrwt>
<rscale>  0 0.90039485E+02</rscale>
<asrwt>0</asrwt>
<pdfrwt beam="1">  1        2 0.36473235E-01 0.90039485E+02</pdfrwt>
<pdfrwt beam="2">  1       -2 0.13152400E-02 0.90039485E+02</pdfrwt>
<totfact> 0.17022770E+05</totfact>
</mgrwt>
</event>
<event>
 5    1  0.2799021E+000  0.9193584E+02  0.7818608E-02  0.1298230E+00
         -2   -1    0    0    0  501 -0.00000000000E+00  0.00000000000E+00  0.77935031733E+01  0.77935036070E+01  0.26000000000E-02 0. -1.
          2   -1    0    0  501    0  0.00000000000E+00 -0.00000000000E+00 -0.27112960722E+03  0.27112960723E+03  0.26000000000E-02 0.  1.
         23    2    1    2    0    0  0.00000000000E+00  0.00000000000E+00 -0.26333610405E+03  0.27892311084E+03  0.91935836679E+02 0.  0.
        -11    1    3    3    0    0  0.53684981661E+01  0.44041565197E+02 -0.16814661105E+03  0.17390159012E+03  0.51100000000E-03 0.  1.
         11    1    3    3    0    0 -0.53684981661E+01 -0.44041565197E+02 -0.95189493000E+02  0.10502152073E+03  0.51100000000E-03 0. -1.
<mgrwt>
<rscale>  0 0.91935837E+02</rscale>
<asrwt>0</asrwt>
<pdfrwt beam="2">  1        2 0.41712240E-01 0.91935837E+02</pdfrwt>
<pdfrwt beam="1">  1       -2 0.11990007E-02 0.91935837E+02</pdfrwt>
<totfact> 0.16920934E+05</totfact>
</mgrwt>
</event>
<event>
 5    1  0.2799021E+000  0.9206855E+02  0.7818608E-02  0.1297918E+00
          2   -1    0    0  501    0  0.00000000000E+00  0.00000000000E+00  0.19692666529E+02  0.19692666701E+02  0.26000000000E-02 0.  1.
         -2   -1    0    0    0  501 -0.00000000000E+00 -0.00000000000E+00 -0.10761134315E+03  0.10761134318E+03  0.26000000000E-02 0. -1.
         23    2    1    2    0    0  0.00000000000E+00  0.00000000000E+00 -0.87918676620E+02  0.12730400988E+03  0.92068546385E+02 0.  0.
        -11    1    3    3    0    0  0.44999111585E+02  0.42082796649E+01 -0.56055051051E+02  0.72005544299E+02  0.51100000000E-03 0. -1.
         11    1    3    3    0    0 -0.44999111585E+02 -0.42082796649E+01 -0.31863625570E+02  0.55298465584E+02  0.51100000000E-03 0.  1.
<mgrwt>
<rscale>  0 0.92068546E+02</rscale>
<asrwt>0</asrwt>
<pdfrwt beam="1">  1        2 0.30296411E-02 0.92068546E+02</pdfrwt>
<pdfrwt beam="2">  1       -2 0.16555591E-01 0.92068546E+02</pdfrwt>
<totfact> 0.76176688E+04</totfact>
</mgrwt>
</event>
<event>
 5    1  0.2799021E+000  0.9140219E+02  0.7818608E-02  0.1299491E+00
         -2   -1    0    0    0  501 -0.00000000000E+00  0.00000000000E+00  0.16928811748E+03  0.16928811750E+03  0.26000000000E-02 0.  1.
          2   -1    0    0  501    0  0.00000000000E+00 -0.00000000000E+00 -0.12337487705E+02  0.12337487979E+02  0.26000000000E-02 0. -1.
         23    2    1    2    0    0  0.00000000000E+00  0.00000000000E+00  0.15695062977E+03  0.18162560547E+03  0.91402190229E+02 0.  0.
        -11    1    3    3    0    0  0.25192606148E+02  0.38727907532E+01  0.30982143183E+01  0.25676153236E+02  0.51100000000E-03 0. -1.
         11    1    3    3    0    0 -0.25192606148E+02 -0.38727907532E+01  0.15385241545E+03  0.15594945224E+03  0.51100000000E-03 0.  1.
<mgrwt>
<rscale>  0 0.91402190E+02</rscale>
<asrwt>0</asrwt>
<pdfrwt beam="2">  1        2 0.18980750E-02 0.91402190E+02</pdfrwt>
<pdfrwt beam="1">  1       -2 0.26044326E-01 0.91402190E+02</pdfrwt>
<totfact> 0.66325186E+04</totfact>
</mgrwt>
</event>
<event>
 5    1  0.2799021E+000  0.9054779E+02  0.7818608E-02  0.1301531E+00
          2   -1    0    0  501    0  0.00000000000E+00  0.00000000000E+00  0.25561137257E+03  0.25561137258E+03  0.26000000000E-02 0. -1.
         -2   -1    0    0    0  501 -0.00000000000E+00 -0.00000000000E+00 -0.80189142454E+01  0.80189146669E+01  0.26000000000E-02 0.  1.
         23    2    1    2    0    0  0.00000000000E+00  0.00000000000E+00  0.24759245833E+03  0.26363028725E+03  0.90547793659E+02 0.  0.
        -11    1    3    3    0    0 -0.43635905392E+02 -0.81206396105E+01  0.97805658228E+02  0.10740569728E+03  0.51100000000E-03 0.  1.
         11    1    3    3    0    0  0.43635905392E+02  0.81206396105E+01  0.14978680010E+03  0.15622458997E+03  0.51100000000E-03 0. -1.
<mgrwt>
<rscale>  0 0.90547794E+02</rscale>
<asrwt>0</asrwt>
<pdfrwt beam="1">  1        2 0.39324828E-01 0.90547794E+02</pdfrwt>
<pdfrwt beam="2">  1       -2 0.12336791E-02 0.90547794E+02</pdfrwt>
<totfact> 0.17240897E+05</totfact>
</mgrwt>
</event>
<event>
 5    1  0.2799021E+000  0.8718356E+02  0.7818608E-02  0.1309819E+00
         -2   -1    0    0    0  501 -0.00000000000E+00  0.00000000000E+00  0.84020435250E+01  0.84020439272E+01  0.26000000000E-02 0.  1.
          2   -1    0    0  501    0  0.00000000000E+00 -0.00000000000E+00 -0.22616442519E+03  0.22616442521E+03  0.26000000000E-02 0. -1.
         23    2    1    2    0    0  0.00000000000E+00  0.00000000000E+00 -0.21776238167E+03  0.23456646913E+03  0.87183562515E+02 0.  0.
        -11    1    3    3    0    0  0.10527127808E+02 -0.38037992405E+02 -0.59086478233E+02  0.71055761176E+02  0.51100000000E-03 0.  1.
         11    1    3    3    0    0 -0.10527127808E+02  0.38037992405E+02 -0.15867590344E+03  0.16351070796E+03  0.51100000000E-03 0. -1.
<mgrwt>
<rscale>  0 0.87183563E+02</rscale>
<asrwt>0</asrwt>
<pdfrwt beam="2">  1        2 0.34794522E-01 0.87183563E+02</pdfrwt>
<pdfrwt beam="1">  1       -2 0.12926223E-02 0.87183563E+02</pdfrwt>
<totfact> 0.18236446E+05</totfact>
</mgrwt>
</event>
<event>
 5    1  0.2799021E+000  0.9150486E+02  0.7818608E-02  0.1299248E+00
          2   -1    0    0  501    0  0.00000000000E+00  0.00000000000E+00  0.51888466231E+02  0.51888466297E+02  0.26000000000E-02 0. -1.
         -2   -1    0    0    0  501 -0.00000000000E+00 -0.00000000000E+00 -0.40342005694E+02  0.40342005778E+02  0.26000000000E-02 0.  1.
         23    2    1    2    0    0  0.00000000000E+00  0.00000000000E+00  0.11546460538E+02  0.92230472074E+02  0.91504859041E+02 0.  0.
        -11    1    3    3    0    0  0.14787610838E+02  0.39275289853E+02  0.24140326666E+02  0.48414638273E+02  0.51100000000E-03 0. -1.
         11    1    3    3    0    0 -0.14787610838E+02 -0.39275289853E+02 -0.12593866129E+02  0.43815833801E+02  0.51100000000E-03 0.  1.
<mgrwt>
<rscale>  0 0.91504859E+02</rscale>
<asrwt>0</asrwt>
<pdfrwt beam="1">  1        2 0.79828410E-02 0.91504859E+02</pdfrwt>
<pdfrwt beam="2">  1       -2 0.62064624E-02 0.91504859E+02</pdfrwt>
<totfact> 0.10102470E+05</totfact>
</mgrwt>
</event>
<event>
 5    1  0.2799021E+000  0.9368188E+02  0.7818608E-02  0.1294173E+00
         -2   -1    0    0    0  501 -0.00000000000E+00  0.00000000000E+00  0.11261548721E+03  0.11261548724E+03  0.26000000000E-02 0.  1.
          2   -1    0    0  501    0  0.00000000000E+00 -0.00000000000E+00 -0.19482877223E+02  0.19482877396E+02  0.26000000000E-02 0. -1.
         23    2    1    2    0    0  0.00000000000E+00  0.00000000000E+00  0.93132609984E+02  0.13209836463E+03  0.93681881366E+02 0.  0.
        -11    1    3    3    0    0  0.10342221793E+02  0.40253624794E+02  0.16102253644E+02  0.44571273633E+02  0.51100000000E-03 0. -1.
         11    1    3    3    0    0 -0.10342221793E+02 -0.40253624794E+02  0.77030356340E+02  0.87527091000E+02  0.51100000000E-03 0.  1.
<mgrwt>
<rscale>  0 0.93681881E+02</rscale>
<asrwt>0</asrwt>
<pdfrwt beam="2">  1        2 0.29973658E-02 0.93681881E+02</pdfrwt>
<pdfrwt beam="1">  1       -2 0.17325459E-01 0.93681881E+02</pdfrwt>
<totfact> 0.71907387E+04</totfact>
</mgrwt>
</event>
<event>
 5    1  0.2799021E+000  0.1001624E+03  0.7818608E-02  0.1279955E+00
         -2   -1    0    0    0  501 -0.00000000000E+00  0.00000000000E+00  0.39585953809E+02  0.39585953895E+02  0.26000000000E-02 0.  1.
          2   -1    0    0  501    0  0.00000000000E+00 -0.00000000000E+00 -0.63358985568E+02  0.63358985621E+02  0.26000000000E-02 0. -1.
         23    2    1    2    0    0  0.00000000000E+00  0.00000000000E+00 -0.23773031758E+02  0.10294493952E+03  0.10016238582E+03 0.  0.
        -11    1    3    3    0    0  0.84542313109E+01  0.40370129596E+02 -0.41081712792E+02  0.58214504351E+02  0.51100000000E-03 0. -1.
         11    1    3    3    0    0 -0.84542313109E+01 -0.40370129596E+02  0.17308681033E+02  0.44730435165E+02  0.51100000000E-03 0.  1.
<mgrwt>
<rscale>  0 0.10016239E+03</rscale>
<asrwt>0</asrwt>
<pdfrwt beam="2">  1        2 0.97475362E-02 0.10016239E+03</pdfrwt>
<pdfrwt beam="1">  1       -2 0.60901468E-02 0.10016239E+03</pdfrwt>
<totfact> 0.82436704E+04</totfact>
</mgrwt>
</event>
<event>
 5    1  0.2799021E+000  0.9386877E+02  0.7818608E-02  0.1293744E+00
         -2   -1    0    0    0  501 -0.00000000000E+00  0.00000000000E+00  0.20794947534E+02  0.20794947696E+02  0.26000000000E-02 0.  1.
          2   -1    0    0  501    0  0.00000000000E+00 -0.00000000000E+00 -0.10593134095E+03  0.10593134098E+03  0.26000000000E-02 0. -1.
         23    2    1    2    0    0  0.00000000000E+00  0.00000000000E+00 -0.85136393417E+02  0.12672628868E+03  0.93868774138E+02 0.  0.
        -11    1    3    3    0    0  0.32548861030E+02 -0.14025858797E+02 -0.10299653114E+01  0.35457212216E+02  0.51100000000E-03 0.  1.
         11    1    3    3    0    0 -0.32548861030E+02  0.14025858797E+02 -0.84106428105E+02  0.91269076462E+02  0.51100000000E-03 0. -1.
<mgrwt>
<rscale>  0 0.93868774E+02</rscale>
<asrwt>0</asrwt>
<pdfrwt beam="2">  1        2 0.16297129E-01 0.93868774E+02</pdfrwt>
<pdfrwt beam="1">  1       -2 0.31992228E-02 0.93868774E+02</pdfrwt>
<totfact> 0.11524671E+05</totfact>
</mgrwt>
</event>
<event>
 5    1  0.2799021E+000  0.9367722E+02  0.7818608E-02  0.1294183E+00
         -2   -1    0    0    0  501 -0.00000000000E+00  0.00000000000E+00  0.52192251582E+02  0.52192251647E+02  0.26000000000E-02 0.  1.
          2   -1    0    0  501    0  0.00000000000E+00 -0.00000000000E+00 -0.42034116110E+02  0.42034116191E+02  0.26000000000E-02 0. -1.
         23    2    1    2    0    0  0.00000000000E+00  0.00000000000E+00  0.10158135472E+02  0.94226367837E+02  0.93677215370E+02 0.  0.
        -11    1    3    3    0    0  0.46217566609E+02 -0.66256551806E+01  0.13299669642E+01  0.46709009648E+02  0.51100000000E-03 0.  1.
         11    1    3    3    0    0 -0.46217566609E+02  0.66256551806E+01  0.88281685077E+01  0.47517358190E+02  0.51100000000E-03 0. -1.
<mgrwt>
<rscale>  0 0.93677215E+02</rscale>
<asrwt>0</asrwt>
<pdfrwt beam="2">  1        2 0.64667871E-02 0.93677215E+02</pdfrwt>
<pdfrwt beam="1">  1       -2 0.80295772E-02 0.93677215E+02</pdfrwt>
<totfact> 0.89337091E+04</totfact>
</mgrwt>
</event>
<event>
 5    1  0.2799021E+000  0.9008614E+02  0.7818608E-02  0.1302643E+00
          2   -1    0    0  501    0  0.00000000000E+00  0.00000000000E+00  0.19146124770E+03  0.19146124771E+03  0.26000000000E-02 0. -1.
         -2   -1    0    0    0  501 -0.00000000000E+00 -0.00000000000E+00 -0.10596808122E+02  0.10596808441E+02  0.26000000000E-02 0.  1.
         23    2    1    2    0    0  0.00000000000E+00  0.00000000000E+00  0.18086443957E+03  0.20205805615E+03  0.90086139636E+02 0.  0.
        -11    1    3    3    0    0  0.36667932764E+02  0.19873802005E+02  0.52277604732E+02  0.66876402835E+02  0.51100000000E-03 0.  1.
         11    1    3    3    0    0 -0.36667932764E+02 -0.19873802005E+02  0.12858683484E+03  0.13518165332E+03  0.51100000000E-03 0. -1.
<mgrwt>
<rscale>  0 0.90086140E+02</rscale>
<asrwt>0</asrwt>
<pdfrwt beam="1">  1        2 0.29455575E-01 0.90086140E+02</pdfrwt>
<pdfrwt beam="2">  1       -2 0.16302783E-02 0.90086140E+02</pdfrwt>
<totfact> 0.15727989E+05</totfact>
</mgrwt>
</event>
<event>
 5    1  0.2799021E+000  0.8990064E+02  0.7818608E-02  0.1303092E+00
         -2   -1    0    0    0  501 -0.00000000000E+00  0.00000000000E+00  0.50230678006E+02  0.50230678074E+02  0.26000000000E-02 0.  1.
          2   -1    0    0  501    0  0.00000000000E+00 -0.00000000000E+00 -0.40225041528E+02  0.40225041612E+02  0.26000000000E-02 0. -1.
         23    2    1    2    0    0  0.00000000000E+00  0.00000000000E+00  0.10005636479E+02  0.90455719685E+02  0.89900636608E+02 0.  0.
        -11    1    3    3    0    0  0.13236058595E+02 -0.21857257394E+02  0.42212205749E+02  0.49343725664E+02  0.51100000000E-03 0.  1.
         11    1    3    3    0    0 -0.13236058595E+02  0.21857257394E+02 -0.32206569271E+02  0.41111994021E+02  0.51100000000E-03 0. -1.
<mgrwt>
<rscale>  0 0.89900637E+02</rscale>
<asrwt>0</asrwt>
<pdfrwt beam="2">  1        2 0.61884680E-02 0.89900637E+02</pdfrwt>
<pdfrwt beam="1">  1       -2 0.77277966E-02 0.89900637E+02</pdfrwt>
<totfact> 0.99497326E+04</totfact>
</mgrwt>
</event>
<event>
 5    1  0.2799021E+000  0.9052864E+02  0.7818608E-02  0.1301577E+00
         -2   -1    0    0    0  501 -0.00000000000E+00  0.00000000000E+00  0.17713519500E+02  0.17713519691E+02  0.26000000000E-02 0.  1.
          2   -1    0    0  501    0  0.00000000000E+00 -0.00000000000E+00 -0.11566637312E+03  0.11566637315E+03  0.26000000000E-02 0. -1.
         23    2    1    2    0    0  0.00000000000E+00  0.00000000000E+00 -0.97952853618E+02  0.13337989284E+03  0.90528637910E+02 0.  0.
        -11    1    3    3    0    0  0.16953696130E+02 -0.38669683820E+02 -0.73009850588E+02  0.84339851448E+02  0.51100000000E-03 0.  1.
         11    1    3    3    0    0 -0.16953696130E+02  0.38669683820E+02 -0.24943003030E+02  0.49040041391E+02  0.51100000000E-03 0. -1.
<mgrwt>
<rscale>  0 0.90528638E+02</rscale>
<asrwt>0</asrwt>
<pdfrwt beam="2">  1        2 0.17794826E-01 0.90528638E+02</pdfrwt>
<pdfrwt beam="1">  1       -2 0.27251569E-02 0.90528638E+02</pdfrwt>
<totfact> 0.13088014E+05</totfact>
</mgrwt>
</event>
<event>
 5    1  0.2799021E+000  0.9255147E+02  0.7818608E-02  0.1296788E+00
         -2   -1    0    0    0  501 -0.00000000000E+00  0.00000000000E+00  0.25375491666E+02  0.25375491799E+02  0.26000000000E-02 0. -1.
          2   -1    0    0  501    0  0.00000000000E+00 -0.00000000000E+00 -0.84390225266E+02  0.84390225306E+02  0.26000000000E-02 0.  1.
         23    2    1    2    0    0  0.00000000000E+00  0.00000000000E+00 -0.59014733600E+02  0.10976571711E+03  0.92551466059E+02 0.  0.
        -11    1    3    3    0    0  0.29242384817E+02 -0.26365858473E+02 -0.58343620656E+02  0.70386459169E+02  0.51100000000E-03 0.  1.
         11    1    3    3    0    0 -0.29242384817E+02  0.26365858473E+02 -0.67111294471E+00  0.39379257937E+02  0.51100000000E-03 0. -1.
<mgrwt>
<rscale>  0 0.92551466E+02</rscale>
<asrwt>0</asrwt>
<pdfrwt beam="2">  1        2 0.12983111E-01 0.92551466E+02</pdfrwt>
<pdfrwt beam="1">  1       -2 0.39039218E-02 0.92551466E+02</pdfrwt>
<totfact> 0.11188743E+05</totfact>
</mgrwt>
</event>
<event>
 5    1  0.2799021E+000  0.9245463E+02  0.7818608E-02  0.1297014E+00
          2   -1    0    0  501    0  0.00000000000E+00  0.00000000000E+00  0.11464267421E+03  0.11464267424E+03  0.26000000000E-02 0.  1.
         -2   -1    0    0    0  501 -0.00000000000E+00 -0.00000000000E+00 -0.18640221731E+02  0.18640221913E+02  0.26000000000E-02 0. -1.
         23    2    1    2    0    0  0.00000000000E+00  0.00000000000E+00  0.96002452483E+02  0.13328289616E+03  0.92454634957E+02 0.  0.
        -11    1    3    3    0    0 -0.66019527543E+00 -0.18266239233E+02  0.10921206969E+03  0.11073105941E+03  0.51100000000E-03 0.  1.
         11    1    3    3    0    0  0.66019527543E+00  0.18266239233E+02 -0.13209617203E+02  0.22551836742E+02  0.51100000000E-03 0. -1.
<mgrwt>
<rscale>  0 0.92454635E+02</rscale>
<asrwt>0</asrwt>
<pdfrwt beam="1">  1        2 0.17637334E-01 0.92454635E+02</pdfrwt>
<pdfrwt beam="2">  1       -2 0.28677265E-02 0.92454635E+02</pdfrwt>
<totfact> 0.12319575E+05</totfact>
</mgrwt>
</event>
<event>
 5    1  0.2799021E+000  0.9150300E+02  0.7818608E-02  0.1299252E+00
          2   -1    0    0  501    0  0.00000000000E+00  0.00000000000E+00  0.20097478674E+02  0.20097478842E+02  0.26000000000E-02 0. -1.
         -2   -1    0    0    0  501 -0.00000000000E+00 -0.00000000000E+00 -0.10415236568E+03  0.10415236572E+03  0.26000000000E-02 0.  1.
         23    2    1    2    0    0  0.00000000000E+00  0.00000000000E+00 -0.84054887011E+02  0.12424984456E+03  0.91503004555E+02 0.  0.
        -11    1    3    3    0    0  0.16431641453E+02  0.29344537478E+02 -0.84145704863E+02  0.90617881060E+02  0.51100000000E-03 0.  1.
         11    1    3    3    0    0 -0.16431641453E+02 -0.29344537478E+02  0.90817852087E-01  0.33631963499E+02  0.51100000000E-03 0. -1.
<mgrwt>
<rscale>  0 0.91503005E+02</rscale>
<asrwt>0</asrwt>
<pdfrwt beam="1">  1        2 0.30919199E-02 0.91503005E+02</pdfrwt>
<pdfrwt beam="2">  1       -2 0.16023441E-01 0.91503005E+02</pdfrwt>
<totfact> 0.78135923E+04</totfact>
</mgrwt>
</event>
<event>
 5    1  0.2799021E+000  0.9085601E+02  0.7818608E-02  0.1300792E+00
         -2   -1    0    0    0  501 -0.00000000000E+00  0.00000000000E+00  0.22228574793E+03  0.22228574794E+03  0.26000000000E-02 0.  1.
          2   -1    0    0  501    0  0.00000000000E+00 -0.00000000000E+00 -0.92840123086E+01  0.92840126727E+01  0.26000000000E-02 0. -1.
         23    2    1    2    0    0  0.00000000000E+00  0.00000000000E+00  0.21300173562E+03  0.23156976061E+03  0.90856010559E+02 0.  0.
        -11    1    3    3    0    0  0.15820822961E+02 -0.40644290216E+02  0.74115932431E+02  0.85996675556E+02  0.51100000000E-03 0. -1.
         11    1    3    3    0    0 -0.15820822961E+02  0.40644290216E+02  0.13888580319E+03  0.14557308506E+03  0.51100000000E-03 0.  1.
<mgrwt>
<rscale>  0 0.90856011E+02</rscale>
<asrwt>0</asrwt>
<pdfrwt beam="2">  1        2 0.14283097E-02 0.90856011E+02</pdfrwt>
<pdfrwt beam="1">  1       -2 0.34197805E-01 0.90856011E+02</pdfrwt>
<totfact> 0.59979526E+04</totfact>
</mgrwt>
</event>
<event>
 5    1  0.2799021E+000  0.9074429E+02  0.7818608E-02  0.1301059E+00
          2   -1    0    0  501    0  0.00000000000E+00  0.00000000000E+00  0.72295508888E+02  0.72295508935E+02  0.26000000000E-02 0. -1.
         -2   -1    0    0    0  501 -0.00000000000E+00 -0.00000000000E+00 -0.28475231555E+02  0.28475231673E+02  0.26000000000E-02 0.  1.
         23    2    1    2    0    0  0.00000000000E+00  0.00000000000E+00  0.43820277333E+02  0.10077074061E+03  0.90744286085E+02 0.  0.
        -11    1    3    3    0    0  0.74525533656E+01 -0.42846583613E+02  0.75482149052E+01  0.44140070543E+02  0.51100000000E-03 0.  1.
         11    1    3    3    0    0 -0.74525533656E+01  0.42846583613E+02  0.36272062428E+02  0.56630670065E+02  0.51100000000E-03 0. -1.
<mgrwt>
<rscale>  0 0.90744286E+02</rscale>
<asrwt>0</asrwt>
<pdfrwt beam="1">  1        2 0.11122386E-01 0.90744286E+02</pdfrwt>
<pdfrwt beam="2">  1       -2 0.43808050E-02 0.90744286E+02</pdfrwt>
<totfact> 0.11310789E+05</totfact>
</mgrwt>
</event>
<event>
 5    1  0.2799021E+000  0.9168027E+02  0.7818608E-02  0.1298833E+00
          2   -1    0    0  501    0  0.00000000000E+00  0.00000000000E+00  0.42000334724E+02  0.42000334804E+02  0.26000000000E-02 0.  1.
         -2   -1    0    0    0  501 -0.00000000000E+00 -0.00000000000E+00 -0.50030985513E+02  0.50030985581E+02  0.26000000000E-02 0. -1.
         23    2    1    2    0    0  0.00000000000E+00  0.00000000000E+00 -0.80306507892E+01  0.92031320385E+02  0.91680273667E+02 0.  0.
        -11    1    3    3    0    0 -0.36849837602E+02  0.27232131946E+02 -0.26616058205E+01  0.45897534655E+02  0.51100000000E-03 0. -1.
         11    1    3    3    0    0  0.36849837602E+02 -0.27232131946E+02 -0.53690449686E+01  0.46133785730E+02  0.51100000000E-03 0.  1.
<mgrwt>
<rscale>  0 0.91680274E+02</rscale>
<asrwt>0</asrwt>
<pdfrwt beam="1">  1        2 0.64615900E-02 0.91680274E+02</pdfrwt>
<pdfrwt beam="2">  1       -2 0.76970747E-02 0.91680274E+02</pdfrwt>
<totfact> 0.95075247E+04</totfact>
</mgrwt>
</event>
<event>
 5    1  0.2799021E+000  0.9357058E+02  0.7818608E-02  0.1294428E+00
         -2   -1    0    0    0  501 -0.00000000000E+00  0.00000000000E+00  0.28187017485E+02  0.28187017605E+02  0.26000000000E-02 0.  1.
          2   -1    0    0  501    0  0.00000000000E+00 -0.00000000000E+00 -0.77655017647E+02  0.77655017690E+02  0.26000000000E-02 0. -1.
         23    2    1    2    0    0  0.00000000000E+00  0.00000000000E+00 -0.49468000162E+02  0.10584203530E+03  0.93570579754E+02 0.  0.
        -11    1    3    3    0    0 -0.30571523535E+02  0.35353599899E+02 -0.22369857453E+02  0.51816074724E+02  0.51100000000E-03 0. -1.
         11    1    3    3    0    0  0.30571523535E+02 -0.35353599899E+02 -0.27098142709E+02  0.54025960571E+02  0.51100000000E-03 0.  1.
<mgrwt>
<rscale>  0 0.93570580E+02</rscale>
<asrwt>0</asrwt>
<pdfrwt beam="2">  1        2 0.11946926E-01 0.93570580E+02</pdfrwt>
<pdfrwt beam="1">  1       -2 0.43364643E-02 0.93570580E+02</pdfrwt>
<totfact> 0.10593787E+05</totfact>
</mgrwt>
</event>
<event>
 5    1  0.2799021E+000  0.9281892E+02  0.7818608E-02  0.1296165E+00
         -2   -1    0    0    0  501 -0.00000000000E+00  0.00000000000E+00  0.11901164467E+02  0.11901164751E+02  0.26000000000E-02 0.  1.
          2   -1    0    0  501    0  0.00000000000E+00 -0.00000000000E+00 -0.18097705851E+03  0.18097705852E+03  0.26000000000E-02 0. -1.
         23    2    1    2    0    0  0.00000000000E+00  0.00000000000E+00 -0.16907589404E+03  0.19287822328E+03  0.92818915468E+02 0.  0.
        -11    1    3    3    0    0 -0.40378276136E+02  0.22629235094E+02 -0.77537102717E+02  0.90302213499E+02  0.51100000000E-03 0.  1.
         11    1    3    3    0    0  0.40378276136E+02 -0.22629235094E+02 -0.91538791322E+02  0.10257600978E+03  0.51100000000E-03 0. -1.
<mgrwt>
<rscale>  0 0.92818915E+02</rscale>
<asrwt>0</asrwt>
<pdfrwt beam="2">  1        2 0.27842623E-01 0.92818915E+02</pdfrwt>
<pdfrwt beam="1">  1       -2 0.18309485E-02 0.92818915E+02</pdfrwt>
<totfact> 0.14220052E+05</totfact>
</mgrwt>
</event>
<event>
 5    1  0.2799021E+000  0.8775718E+02  0.7818608E-02  0.1308376E+00
          2   -1    0    0  501    0  0.00000000000E+00  0.00000000000E+00  0.24482712388E+03  0.24482712390E+03  0.26000000000E-02 0. -1.
         -2   -1    0    0    0  501 -0.00000000000E+00 -0.00000000000E+00 -0.78640409734E+01  0.78640414032E+01  0.26000000000E-02 0.  1.
         23    2    1    2    0    0  0.00000000000E+00  0.00000000000E+00  0.23696308291E+03  0.25269116530E+03  0.87757178388E+02 0.  0.
        -11    1    3    3    0    0  0.41510068920E+02  0.14020733893E+02  0.12533422899E+03  0.13277174307E+03  0.51100000000E-03 0. -1.
         11    1    3    3    0    0 -0.41510068920E+02 -0.14020733893E+02  0.11162885392E+03  0.11991942223E+03  0.51100000000E-03 0.  1.
<mgrwt>
<rscale>  0 0.87757178E+02</rscale>
<asrwt>0</asrwt>
<pdfrwt beam="1">  1        2 0.37665710E-01 0.87757178E+02</pdfrwt>
<pdfrwt beam="2">  1       -2 0.12098525E-02 0.87757178E+02</pdfrwt>
<totfact> 0.18447899E+05</totfact>
</mgrwt>
</event>
<event>
 5    1  0.2799021E+000  0.9222696E+02  0.7818608E-02  0.1297547E+00
          2   -1    0    0  501    0  0.00000000000E+00  0.00000000000E+00  0.19689452894E+03  0.19689452895E+03  0.26000000000E-02 0. -1.
         -2   -1    0    0    0  501 -0.00000000000E+00 -0.00000000000E+00 -0.10799960927E+02  0.10799961240E+02  0.26000000000E-02 0.  1.
         23    2    1    2    0    0  0.00000000000E+00  0.00000000000E+00  0.18609456801E+03  0.20769449019E+03  0.92226964679E+02 0.  0.
        -11    1    3    3    0    0 -0.32893428836E+02  0.21639994410E+01  0.20429926404E+02  0.38781986119E+02  0.51100000000E-03 0.  1.
         11    1    3    3    0    0  0.32893428836E+02 -0.21639994410E+01  0.16566464160E+03  0.16891250407E+03  0.51100000000E-03 0. -1.
<mgrwt>
<rscale>  0 0.92226965E+02</rscale>
<asrwt>0</asrwt>
<pdfrwt beam="1">  1        2 0.30291466E-01 0.92226965E+02</pdfrwt>
<pdfrwt beam="2">  1       -2 0.16615325E-02 0.92226965E+02</pdfrwt>
<totfact> 0.14912944E+05</totfact>
</mgrwt>
</event>
<event>
 5    1  0.2799021E+000  0.8939816E+02  0.7818608E-02  0.1304316E+00
         -2   -1    0    0    0  501 -0.00000000000E+00  0.00000000000E+00  0.27697148324E+02  0.27697148446E+02  0.26000000000E-02 0.  1.
          2   -1    0    0  501    0  0.00000000000E+00 -0.00000000000E+00 -0.72137677932E+02  0.72137677979E+02  0.26000000000E-02 0. -1.
         23    2    1    2    0    0  0.00000000000E+00  0.00000000000E+00 -0.44440529608E+02  0.99834826425E+02  0.89398164945E+02 0.  0.
        -11    1    3    3    0    0 -0.40464181907E+02  0.76476703279E+01 -0.28078339416E+01  0.41276153049E+02  0.51100000000E-03 0.  1.
         11    1    3    3    0    0  0.40464181907E+02 -0.76476703279E+01 -0.41632695666E+02  0.58558673376E+02  0.51100000000E-03 0. -1.
<mgrwt>
<rscale>  0 0.89398165E+02</rscale>
<asrwt>0</asrwt>
<pdfrwt beam="2">  1        2 0.11098104E-01 0.89398165E+02</pdfrwt>
<pdfrwt beam="1">  1       -2 0.42610998E-02 0.89398165E+02</pdfrwt>
<totfact> 0.11784363E+05</totfact>
</mgrwt>
</event>
<event>
 5    1  0.2799021E+000  0.8626205E+02  0.7818608E-02  0.1312165E+00
          2   -1    0    0  501    0  0.00000000000E+00  0.00000000000E+00  0.18764249616E+02  0.18764249796E+02  0.26000000000E-02 0.  1.
         -2   -1    0    0    0  501 -0.00000000000E+00 -0.00000000000E+00 -0.99139861789E+02  0.99139861823E+02  0.26000000000E-02 0. -1.
         23    2    1    2    0    0  0.00000000000E+00  0.00000000000E+00 -0.80375612173E+02  0.11790411162E+03  0.86262045562E+02 0.  0.
        -11    1    3    3    0    0  0.43958302214E+01  0.26605288398E+02  0.58216641899E+01  0.27587251916E+02  0.51100000000E-03 0.  1.
         11    1    3    3    0    0 -0.43958302214E+01 -0.26605288398E+02 -0.86197276363E+02  0.90316859703E+02  0.51100000000E-03 0. -1.
<mgrwt>
<rscale>  0 0.86262046E+02</rscale>
<asrwt>0</asrwt>
<pdfrwt beam="1">  1        2 0.28868077E-02 0.86262046E+02</pdfrwt>
<pdfrwt beam="2">  1       -2 0.15252286E-01 0.86262046E+02</pdfrwt>
<totfact> 0.91830567E+04</totfact>
</mgrwt>
</event>
<event>
 5    1  0.2799021E+000  0.8608382E+02  0.7818608E-02  0.1312622E+00
          2   -1    0    0  501    0  0.00000000000E+00  0.00000000000E+00  0.82239968315E+02  0.82239968356E+02  0.26000000000E-02 0. -1.
         -2   -1    0    0    0  501 -0.00000000000E+00 -0.00000000000E+00 -0.22526830274E+02  0.22526830424E+02  0.26000000000E-02 0.  1.
         23    2    1    2    0    0  0.00000000000E+00  0.00000000000E+00  0.59713138040E+02  0.10476679878E+03  0.86083815390E+02 0.  0.
        -11    1    3    3    0    0  0.18021504363E+01 -0.27891279709E+02  0.69693419677E+02  0.75088907147E+02  0.51100000000E-03 0. -1.
         11    1    3    3    0    0 -0.18021504363E+01  0.27891279709E+02 -0.99802816368E+01  0.29677891633E+02  0.51100000000E-03 0.  1.
<mgrwt>
<rscale>  0 0.86083815E+02</rscale>
<asrwt>0</asrwt>
<pdfrwt beam="1">  1        2 0.12652303E-01 0.86083815E+02</pdfrwt>
<pdfrwt beam="2">  1       -2 0.34656662E-02 0.86083815E+02</pdfrwt>
<totfact> 0.13568214E+05</totfact>
</mgrwt>
</event>
<event>
 5    1  0.2799021E+000  0.9088465E+02  0.7818608E-02  0.1300723E+00
         -2   -1    0    0    0  501 -0.00000000000E+00  0.00000000000E+00  0.13391011819E+02  0.13391012072E+02  0.26000000000E-02 0.  1.
          2   -1    0    0  501    0  0.00000000000E+00 -0.00000000000E+00 -0.15420828359E+03  0.15420828362E+03  0.26000000000E-02 0. -1.
         23    2    1    2    0    0  0.00000000000E+00  0.00000000000E+00 -0.14081727177E+03  0.16759929569E+03  0.90884651536E+02 0.  0.
        -11    1    3    3    0    0  0.32282113471E+02 -0.24413457930E+02 -0.32308992573E+02  0.51788249436E+02  0.51100000000E-03 0.  1.
         11    1    3    3    0    0 -0.32282113471E+02  0.24413457930E+02 -0.10850827920E+03  0.11581104625E+03  0.51100000000E-03 0. -1.
<mgrwt>
<rscale>  0 0.90884652E+02</rscale>
<asrwt>0</asrwt>
<pdfrwt beam="2">  1        2 0.23724350E-01 0.90884652E+02</pdfrwt>
<pdfrwt beam="1">  1       -2 0.20601558E-02 0.90884652E+02</pdfrwt>
<totfact> 0.14236969E+05</totfact>
</mgrwt>
</event>
<event>
 5    1  0.2799021E+000  0.8376369E+02  0.7818608E-02  0.1318698E+00
         -2   -1    0    0    0  501 -0.00000000000E+00  0.00000000000E+00  0.14540927490E+03  0.14540927492E+03  0.26000000000E-02 0.  1.
          2   -1    0    0  501    0  0.00000000000E+00 -0.00000000000E+00 -0.12063116763E+02  0.12063117043E+02  0.26000000000E-02 0. -1.
         23    2    1    2    0    0  0.00000000000E+00  0.00000000000E+00  0.13334615814E+03  0.15747239197E+03  0.83763693457E+02 0.  0.
        -11    1    3    3    0    0  0.40306809389E+02  0.11366733741E+02  0.65737685932E+02  0.77944113767E+02  0.51100000000E-03 0. -1.
         11    1    3    3    0    0 -0.40306809389E+02 -0.11366733741E+02  0.67608472205E+02  0.79528278199E+02  0.51100000000E-03 0.  1.
<mgrwt>
<rscale>  0 0.83763693E+02</rscale>
<asrwt>0</asrwt>
<pdfrwt beam="2">  1        2 0.18558641E-02 0.83763693E+02</pdfrwt>
<pdfrwt beam="1">  1       -2 0.22370658E-01 0.83763693E+02</pdfrwt>
<totfact> 0.87517181E+04</totfact>
</mgrwt>
</event>
<event>
 5    1  0.2799021E+000  0.9091368E+02  0.7818608E-02  0.1300654E+00
         -2   -1    0    0    0  501 -0.00000000000E+00  0.00000000000E+00  0.38260786002E+03  0.38260786003E+03  0.26000000000E-02 0.  1.
          2   -1    0    0  501    0  0.00000000000E+00 -0.00000000000E+00 -0.54006318026E+01  0.54006324285E+01  0.26000000000E-02 0. -1.
         23    2    1    2    0    0  0.00000000000E+00  0.00000000000E+00  0.37720722822E+03  0.38800849246E+03  0.90913679936E+02 0.  0.
        -11    1    3    3    0    0 -0.32727407153E+02 -0.31042294264E+02  0.16460573150E+03  0.17067440949E+03  0.51100000000E-03 0.  1.
         11    1    3    3    0    0  0.32727407153E+02  0.31042294264E+02  0.21260149672E+03  0.21733408297E+03  0.51100000000E-03 0. -1.
<mgrwt>
<rscale>  0 0.90913680E+02</rscale>
<asrwt>0</asrwt>
<pdfrwt beam="2">  1        2 0.83086653E-03 0.90913680E+02</pdfrwt>
<pdfrwt beam="1">  1       -2 0.58862744E-01 0.90913680E+02</pdfrwt>
<totfact> 0.44306749E+04</totfact>
</mgrwt>
</event>
<event>
 5    1  0.2799021E+000  0.9491494E+02  0.7818608E-02  0.1291368E+00
         -2   -1    0    0    0  501 -0.00000000000E+00  0.00000000000E+00  0.98289479915E+02  0.98289479950E+02  0.26000000000E-02 0. -1.
          2   -1    0    0  501    0  0.00000000000E+00 -0.00000000000E+00 -0.22914063597E+02  0.22914063745E+02  0.26000000000E-02 0.  1.
         23    2    1    2    0    0  0.00000000000E+00  0.00000000000E+00  0.75375416318E+02  0.12120354369E+03  0.94914938861E+02 0.  0.
        -11    1    3    3    0    0  0.44031163848E+02 -0.65791182892E+01  0.16697829411E+02  0.47548351123E+02  0.51100000000E-03 0. -1.
         11    1    3    3    0    0 -0.44031163848E+02  0.65791182892E+01  0.58677586907E+02  0.73655192572E+02  0.51100000000E-03 0.  1.
<mgrwt>
<rscale>  0 0.94914939E+02</rscale>
<asrwt>0</asrwt>
<pdfrwt beam="2">  1        2 0.35252405E-02 0.94914939E+02</pdfrwt>
<pdfrwt beam="1">  1       -2 0.15121459E-01 0.94914939E+02</pdfrwt>
<totfact> 0.72588056E+04</totfact>
</mgrwt>
</event>
<event>
 5    1  0.2799021E+000  0.9195673E+02  0.7818608E-02  0.1298181E+00
          2   -1    0    0  501    0  0.00000000000E+00  0.00000000000E+00  0.10268981689E+03  0.10268981692E+03  0.26000000000E-02 0. -1.
         -2   -1    0    0    0  501 -0.00000000000E+00 -0.00000000000E+00 -0.20586363616E+02  0.20586363781E+02  0.26000000000E-02 0.  1.
         23    2    1    2    0    0  0.00000000000E+00  0.00000000000E+00  0.82103453272E+02  0.12327618070E+03  0.91956727265E+02 0.  0.
        -11    1    3    3    0    0  0.37499078044E+02 -0.26376906303E+02  0.45712637160E+02  0.64742314113E+02  0.51100000000E-03 0.  1.
         11    1    3    3    0    0 -0.37499078044E+02  0.26376906303E+02  0.36390816113E+02  0.58533866590E+02  0.51100000000E-03 0. -1.
<mgrwt>
<rscale>  0 0.91956727E+02</rscale>
<asrwt>0</asrwt>
<pdfrwt beam="1">  1        2 0.15798433E-01 0.91956727E+02</pdfrwt>
<pdfrwt beam="2">  1       -2 0.31671329E-02 0.91956727E+02</pdfrwt>
<totfact> 0.12080785E+05</totfact>
</mgrwt>
</event>
<event>
 5    1  0.2799021E+000  0.9903026E+02  0.7818608E-02  0.1282348E+00
         -2   -1    0    0    0  501 -0.00000000000E+00  0.00000000000E+00  0.37497905253E+02  0.37497905343E+02  0.26000000000E-02 0.  1.
          2   -1    0    0  501    0  0.00000000000E+00 -0.00000000000E+00 -0.65383600063E+02  0.65383600115E+02  0.26000000000E-02 0. -1.
         23    2    1    2    0    0  0.00000000000E+00  0.00000000000E+00 -0.27885694810E+02  0.10288150546E+03  0.99030258963E+02 0.  0.
        -11    1    3    3    0    0 -0.81331331944E+01  0.40671169118E+02  0.14154385853E+02  0.43825089756E+02  0.51100000000E-03 0.  1.
         11    1    3    3    0    0  0.81331331944E+01 -0.40671169118E+02 -0.42040080664E+02  0.59056415701E+02  0.51100000000E-03 0. -1.
<mgrwt>
<rscale>  0 0.99030259E+02</rscale>
<asrwt>0</asrwt>
<pdfrwt beam="2">  1        2 0.10059015E-01 0.99030259E+02</pdfrwt>
<pdfrwt beam="1">  1       -2 0.57689085E-02 0.99030259E+02</pdfrwt>
<totfact> 0.85927163E+04</totfact>
</mgrwt>
</event>
<event>
 5    1  0.2799021E+000  0.8991524E+02  0.7818608E-02  0.1303057E+00
         -2   -1    0    0    0  501 -0.00000000000E+00  0.00000000000E+00  0.83855364876E+01  0.83855368906E+01  0.26000000000E-02 0. -1.
          2   -1    0    0  501    0  0.00000000000E+00 -0.00000000000E+00 -0.24103258442E+03  0.24103258443E+03  0.26000000000E-02 0.  1.
         23    2    1    2    0    0  0.00000000000E+00  0.00000000000E+00 -0.23264704793E+03  0.24941812132E+03  0.89915239717E+02 0.  0.
        -11    1    3    3    0    0 -0.42662989020E+02  0.77590886321E+00 -0.77049712283E+02  0.88076051398E+02  0.51100000000E-03 0. -1.
         11    1    3    3    0    0  0.42662989020E+02 -0.77590886321E+00 -0.15559733565E+03  0.16134206992E+03  0.51100000000E-03 0.  1.
<mgrwt>
<rscale>  0 0.89915240E+02</rscale>
<asrwt>0</asrwt>
<pdfrwt beam="2">  1        2 0.37081931E-01 0.89915240E+02</pdfrwt>
<pdfrwt beam="1">  1       -2 0.12900827E-02 0.89915240E+02</pdfrwt>
<totfact> 0.17190186E+05</totfact>
</mgrwt>
</event>
<event>
 5    1  0.2799021E+000  0.9212496E+02  0.7818608E-02  0.1297786E+00
          2   -1    0    0  501    0  0.00000000000E+00  0.00000000000E+00  0.61233662179E+02  0.61233662234E+02  0.26000000000E-02 0.  1.
         -2   -1    0    0    0  501 -0.00000000000E+00 -0.00000000000E+00 -0.34650096159E+02  0.34650096256E+02  0.26000000000E-02 0. -1.
         23    2    1    2    0    0  0.00000000000E+00  0.00000000000E+00  0.26583566020E+02  0.95883758491E+02  0.92124964912E+02 0.  0.
        -11    1    3    3    0    0  0.30847919036E+02 -0.29421681850E+02 -0.48708009080E+01  0.42906341879E+02  0.51100000000E-03 0. -1.
         11    1    3    3    0    0 -0.30847919036E+02  0.29421681850E+02  0.31454366928E+02  0.52977416612E+02  0.51100000000E-03 0.  1.
<mgrwt>
<rscale>  0 0.92124965E+02</rscale>
<asrwt>0</asrwt>
<pdfrwt beam="1">  1        2 0.94205634E-02 0.92124965E+02</pdfrwt>
<pdfrwt beam="2">  1       -2 0.53307841E-02 0.92124965E+02</pdfrwt>
<totfact> 0.10358184E+05</totfact>
</mgrwt>
</event>
<event>
 5    1  0.2799021E+000  0.9108171E+02  0.7818608E-02  0.1300253E+00
         -2   -1    0    0    0  501 -0.00000000000E+00  0.00000000000E+00  0.20846273493E+03  0.20846273495E+03  0.26000000000E-02 0.  1.
          2   -1    0    0  501    0  0.00000000000E+00 -0.00000000000E+00 -0.99488743252E+01  0.99488746649E+01  0.26000000000E-02 0. -1.
         23    2    1    2    0    0  0.00000000000E+00  0.00000000000E+00  0.19851386061E+03  0.21841160962E+03  0.91081712549E+02 0.  0.
        -11    1    3    3    0    0  0.38182233265E+01  0.41658469906E+02  0.14241798018E+03  0.14843479384E+03  0.51100000000E-03 0.  1.
         11    1    3    3    0    0 -0.38182233265E+01 -0.41658469906E+02  0.56095880429E+02  0.69976815773E+02  0.51100000000E-03 0. -1.
<mgrwt>
<rscale>  0 0.91081713E+02</rscale>
<asrwt>0</asrwt>
<pdfrwt beam="2">  1        2 0.15305961E-02 0.91081713E+02</pdfrwt>
<pdfrwt beam="1">  1       -2 0.32071190E-01 0.91081713E+02</pdfrwt>
<totfact> 0.61360284E+04</totfact>
</mgrwt>
</event>
<event>
 5    1  0.2799021E+000  0.9215762E+02  0.7818608E-02  0.1297709E+00
         -2   -1    0    0    0  501 -0.00000000000E+00  0.00000000000E+00  0.11212500704E+03  0.11212500707E+03  0.26000000000E-02 0.  1.
          2   -1    0    0  501    0  0.00000000000E+00 -0.00000000000E+00 -0.18936513598E+02  0.18936513776E+02  0.26000000000E-02 0. -1.
         23    2    1    2    0    0  0.00000000000E+00  0.00000000000E+00  0.93188493446E+02  0.13106152085E+03  0.92157620069E+02 0.  0.
        -11    1    3    3    0    0  0.46297319388E+01 -0.38798269420E+02  0.11860212997E+02  0.40833868055E+02  0.51100000000E-03 0. -1.
         11    1    3    3    0    0 -0.46297319388E+01  0.38798269420E+02  0.81328280449E+02  0.90227652795E+02  0.51100000000E-03 0.  1.
<mgrwt>
<rscale>  0 0.92157620E+02</rscale>
<asrwt>0</asrwt>
<pdfrwt beam="2">  1        2 0.29133098E-02 0.92157620E+02</pdfrwt>
<pdfrwt beam="1">  1       -2 0.17250001E-01 0.92157620E+02</pdfrwt>
<totfact> 0.75026136E+04</totfact>
</mgrwt>
</event>
<event>
 5    1  0.2799021E+000  0.8031603E+02  0.7818608E-02  0.1328157E+00
          2   -1    0    0  501    0  0.00000000000E+00  0.00000000000E+00  0.27932082378E+03  0.27932082379E+03  0.26000000000E-02 0. -1.
         -2   -1    0    0    0  501 -0.00000000000E+00 -0.00000000000E+00 -0.57735260562E+01  0.57735266416E+01  0.26000000000E-02 0.  1.
         23    2    1    2    0    0  0.00000000000E+00  0.00000000000E+00  0.27354729773E+03  0.28509435044E+03  0.80316029267E+02 0.  0.
        -11    1    3    3    0    0 -0.19084176268E+02  0.33285115398E+02  0.17885788932E+03  0.18292689596E+03  0.51100000000E-03 0. -1.
         11    1    3    3    0    0  0.19084176268E+02 -0.33285115398E+02  0.94689408403E+02  0.10216745448E+03  0.51100000000E-03 0.  1.
<mgrwt>
<rscale>  0 0.80316029E+02</rscale>
<asrwt>0</asrwt>
<pdfrwt beam="1">  1        2 0.42972434E-01 0.80316029E+02</pdfrwt>
<pdfrwt beam="2">  1       -2 0.88823483E-03 0.80316029E+02</pdfrwt>
<totfact> 0.24488677E+05</totfact>
</mgrwt>
</event>
<event>
 5    1  0.2799021E+000  0.9163549E+02  0.7818608E-02  0.1298939E+00
          2   -1    0    0  501    0  0.00000000000E+00  0.00000000000E+00  0.35093690921E+02  0.35093691017E+02  0.26000000000E-02 0. -1.
         -2   -1    0    0    0  501 -0.00000000000E+00 -0.00000000000E+00 -0.59818890284E+02  0.59818890341E+02  0.26000000000E-02 0.  1.
         23    2    1    2    0    0  0.00000000000E+00  0.00000000000E+00 -0.24725199364E+02  0.94912581358E+02  0.91635487757E+02 0.  0.
        -11    1    3    3    0    0  0.34413663283E+02  0.21101894068E+02 -0.34809637720E+02  0.53303855698E+02  0.51100000000E-03 0.  1.
         11    1    3    3    0    0 -0.34413663283E+02 -0.21101894068E+02  0.10084438357E+02  0.41608725660E+02  0.51100000000E-03 0. -1.
<mgrwt>
<rscale>  0 0.91635488E+02</rscale>
<asrwt>0</asrwt>
<pdfrwt beam="1">  1        2 0.53990294E-02 0.91635488E+02</pdfrwt>
<pdfrwt beam="2">  1       -2 0.92029062E-02 0.91635488E+02</pdfrwt>
<totfact> 0.90855492E+04</totfact>
</mgrwt>
</event>
<event>
 5    1  0.2799021E+000  0.9069265E+02  0.7818608E-02  0.1301183E+00
          2   -1    0    0  501    0  0.00000000000E+00  0.00000000000E+00  0.29086939722E+03  0.29086939723E+03  0.26000000000E-02 0. -1.
         -2   -1    0    0    0  501 -0.00000000000E+00 -0.00000000000E+00 -0.70694580577E+01  0.70694585358E+01  0.26000000000E-02 0.  1.
         23    2    1    2    0    0  0.00000000000E+00  0.00000000000E+00  0.28379993916E+03  0.29793885577E+03  0.90692647483E+02 0.  0.
        -11    1    3    3    0    0 -0.55015363054E+01  0.37603479424E+02  0.22317010019E+03  0.22638282219E+03  0.51100000000E-03 0. -1.
         11    1    3    3    0    0  0.55015363054E+01 -0.37603479424E+02  0.60629838977E+02  0.71556033576E+02  0.51100000000E-03 0.  1.
<mgrwt>
<rscale>  0 0.90692647E+02</rscale>
<asrwt>0</asrwt>
<pdfrwt beam="1">  1        2 0.44749140E-01 0.90692647E+02</pdfrwt>
<pdfrwt beam="2">  1       -2 0.10876089E-02 0.90692647E+02</pdfrwt>
<totfact> 0.18014398E+05</totfact>
</mgrwt>
</event>
<event>
 5    1  0.2799021E+000  0.9334621E+02  0.7818608E-02  0.1294945E+00
          2   -1    0    0  501    0  0.00000000000E+00  0.00000000000E+00  0.46491229239E+02  0.46491229312E+02  0.26000000000E-02 0. -1.
         -2   -1    0    0    0  501 -0.00000000000E+00 -0.00000000000E+00 -0.46855695583E+02  0.46855695655E+02  0.26000000000E-02 0.  1.
         23    2    1    2    0    0  0.00000000000E+00  0.00000000000E+00 -0.36446634349E+00  0.93346924967E+02  0.93346213448E+02 0.  0.
        -11    1    3    3    0    0  0.29843862986E+02  0.27899714788E+02 -0.22750715895E+02  0.46761579498E+02  0.51100000000E-03 0.  1.
         11    1    3    3    0    0 -0.29843862986E+02 -0.27899714788E+02  0.22386249551E+02  0.46585345468E+02  0.51100000000E-03 0. -1.
<mgrwt>
<rscale>  0 0.93346213E+02</rscale>
<asrwt>0</asrwt>
<pdfrwt beam="1">  1        2 0.71524968E-02 0.93346213E+02</pdfrwt>
<pdfrwt beam="2">  1       -2 0.72085686E-02 0.93346213E+02</pdfrwt>
<totfact> 0.92694277E+04</totfact>
</mgrwt>
</event>
<event>
 5    1  0.2799021E+000  0.9089390E+02  0.7818608E-02  0.1300701E+00
          2   -1    0    0  501    0  0.00000000000E+00  0.00000000000E+00  0.28809908777E+02  0.28809908894E+02  0.26000000000E-02 0. -1.
         -2   -1    0    0    0  501 -0.00000000000E+00 -0.00000000000E+00 -0.71691488832E+02  0.71691488879E+02  0.26000000000E-02 0.  1.
         23    2    1    2    0    0  0.00000000000E+00  0.00000000000E+00 -0.42881580055E+02  0.10050139777E+03  0.90893899940E+02 0.  0.
        -11    1    3    3    0    0  0.26239463559E+02 -0.34916204088E+02 -0.35329303931E+02  0.56176600755E+02  0.51100000000E-03 0.  1.
         11    1    3    3    0    0 -0.26239463559E+02  0.34916204088E+02 -0.75522761234E+01  0.44324797018E+02  0.51100000000E-03 0. -1.
<mgrwt>
<rscale>  0 0.90893900E+02</rscale>
<asrwt>0</asrwt>
<pdfrwt beam="1">  1        2 0.44322937E-02 0.90893900E+02</pdfrwt>
<pdfrwt beam="2">  1       -2 0.11029460E-01 0.90893900E+02</pdfrwt>
<totfact> 0.88324954E+04</totfact>
</mgrwt>
</event>
<event>
 5    1  0.2799021E+000  0.9194589E+02  0.7818608E-02  0.1298207E+00
         -2   -1    0    0    0  501 -0.00000000000E+00  0.00000000000E+00  0.18349924904E+02  0.18349925088E+02  0.26000000000E-02 0.  1.
          2   -1    0    0  501    0  0.00000000000E+00 -0.00000000000E+00 -0.11517822728E+03  0.11517822731E+03  0.26000000000E-02 0. -1.
         23    2    1    2    0    0  0.00000000000E+00  0.00000000000E+00 -0.96828302380E+02  0.13352815240E+03  0.91945893557E+02 0.  0.
        -11    1    3    3    0    0  0.35107432177E+02  0.29640758778E+02 -0.50666520444E+02  0.68397387883E+02  0.51100000000E-03 0. -1.
         11    1    3    3    0    0 -0.35107432177E+02 -0.29640758778E+02 -0.46161781936E+02  0.65130764519E+02  0.51100000000E-03 0.  1.
<mgrwt>
<rscale>  0 0.91945894E+02</rscale>
<asrwt>0</asrwt>
<pdfrwt beam="2">  1        2 0.17719727E-01 0.91945894E+02</pdfrwt>
<pdfrwt beam="1">  1       -2 0.28230654E-02 0.91945894E+02</pdfrwt>
<totfact> 0.12526101E+05</totfact>
</mgrwt>
</event>
<event>
 5    1  0.2799021E+000  0.8972174E+02  0.7818608E-02  0.1303527E+00
         -2   -1    0    0    0  501 -0.00000000000E+00  0.00000000000E+00  0.64882697189E+02  0.64882697241E+02  0.26000000000E-02 0.  1.
          2   -1    0    0  501    0  0.00000000000E+00 -0.00000000000E+00 -0.31017481432E+02  0.31017481541E+02  0.26000000000E-02 0. -1.
         23    2    1    2    0    0  0.00000000000E+00  0.00000000000E+00  0.33865215757E+02  0.95900178782E+02  0.89721744590E+02 0.  0.
        -11    1    3    3    0    0  0.38693968441E+02  0.11402732455E+02  0.37912070608E+02  0.55358563920E+02  0.51100000000E-03 0.  1.
         11    1    3    3    0    0 -0.38693968441E+02 -0.11402732455E+02 -0.40468548516E+01  0.40541614862E+02  0.51100000000E-03 0. -1.
<mgrwt>
<rscale>  0 0.89721745E+02</rscale>
<asrwt>0</asrwt>
<pdfrwt beam="2">  1        2 0.47719203E-02 0.89721745E+02</pdfrwt>
<pdfrwt beam="1">  1       -2 0.99819534E-02 0.89721745E+02</pdfrwt>
<totfact> 0.93594195E+04</totfact>
</mgrwt>
</event>
<event>
 5    1  0.2799021E+000  0.9175020E+02  0.7818608E-02  0.1298668E+00
          2   -1    0    0  501    0  0.00000000000E+00  0.00000000000E+00  0.76701542178E+02  0.76701542222E+02  0.26000000000E-02 0.  1.
         -2   -1    0    0    0  501 -0.00000000000E+00 -0.00000000000E+00 -0.27437844083E+02  0.27437844206E+02  0.26000000000E-02 0. -1.
         23    2    1    2    0    0  0.00000000000E+00  0.00000000000E+00  0.49263698095E+02  0.10413938643E+03  0.91750203572E+02 0.  0.
        -11    1    3    3    0    0 -0.37429205135E+02 -0.88803243854E+01  0.53001270311E+02  0.65490000863E+02  0.51100000000E-03 0.  1.
         11    1    3    3    0    0  0.37429205135E+02  0.88803243854E+01 -0.37375722156E+01  0.38649385565E+02  0.51100000000E-03 0. -1.
<mgrwt>
<rscale>  0 0.91750204E+02</rscale>
<asrwt>0</asrwt>
<pdfrwt beam="1">  1        2 0.11800237E-01 0.91750204E+02</pdfrwt>
<pdfrwt beam="2">  1       -2 0.42212068E-02 0.91750204E+02</pdfrwt>
<totfact> 0.11152132E+05</totfact>
</mgrwt>
</event>
<event>
 5    1  0.2799021E+000  0.9039368E+02  0.7818608E-02  0.1301901E+00
          2   -1    0    0  501    0  0.00000000000E+00  0.00000000000E+00  0.92224011653E+01  0.92224015318E+01  0.26000000000E-02 0. -1.
         -2   -1    0    0    0  501 -0.00000000000E+00 -0.00000000000E+00 -0.22149917666E+03  0.22149917668E+03  0.26000000000E-02 0.  1.
         23    2    1    2    0    0  0.00000000000E+00  0.00000000000E+00 -0.21227677550E+03  0.23072157821E+03  0.90393679182E+02 0.  0.
        -11    1    3    3    0    0  0.32777494151E+02 -0.30444791325E+02 -0.12258209227E+03  0.13048991834E+03  0.51100000000E-03 0.  1.
         11    1    3    3    0    0 -0.32777494151E+02  0.30444791325E+02 -0.89694683227E+02  0.10023165987E+03  0.51100000000E-03 0. -1.
<mgrwt>
<rscale>  0 0.90393679E+02</rscale>
<asrwt>0</asrwt>
<pdfrwt beam="1">  1        2 0.14188311E-02 0.90393679E+02</pdfrwt>
<pdfrwt beam="2">  1       -2 0.34076792E-01 0.90393679E+02</pdfrwt>
<totfact> 0.60866756E+04</totfact>
</mgrwt>
</event>
<event>
 5    1  0.2799021E+000  0.8933217E+02  0.7818608E-02  0.1304477E+00
         -2   -1    0    0    0  501 -0.00000000000E+00  0.00000000000E+00  0.24618809735E+02  0.24618809873E+02  0.26000000000E-02 0.  1.
          2   -1    0    0  501    0  0.00000000000E+00 -0.00000000000E+00 -0.81037999079E+02  0.81037999121E+02  0.26000000000E-02 0. -1.
         23    2    1    2    0    0  0.00000000000E+00  0.00000000000E+00 -0.56419189344E+02  0.10565680899E+03  0.89332168677E+02 0.  0.
        -11    1    3    3    0    0  0.10897438720E+01 -0.44562019429E+02 -0.24843876374E+02  0.51031160194E+02  0.51100000000E-03 0.  1.
         11    1    3    3    0    0 -0.10897438720E+01  0.44562019429E+02 -0.31575312970E+02  0.54625648799E+02  0.51100000000E-03 0. -1.
<mgrwt>
<rscale>  0 0.89332169E+02</rscale>
<asrwt>0</asrwt>
<pdfrwt beam="2">  1        2 0.12467384E-01 0.89332169E+02</pdfrwt>
<pdfrwt beam="1">  1       -2 0.37875092E-02 0.89332169E+02</pdfrwt>
<totfact> 0.12199812E+05</totfact>
</mgrwt>
</event>
<event>
 5    1  0.2799021E+000  0.9072531E+02  0.7818608E-02  0.1301105E+00
         -2   -1    0    0    0  501 -0.00000000000E+00  0.00000000000E+00  0.23723367363E+02  0.23723367506E+02  0.26000000000E-02 0. -1.
          2   -1    0    0  501    0  0.00000000000E+00 -0.00000000000E+00 -0.86740239340E+02  0.86740239379E+02  0.26000000000E-02 0.  1.
         23    2    1    2    0    0  0.00000000000E+00  0.00000000000E+00 -0.63016871977E+02  0.11046360689E+03  0.90725312302E+02 0.  0.
        -11    1    3    3    0    0  0.77124582121E+01  0.36438074777E+02 -0.63037279230E+02  0.73218261916E+02  0.51100000000E-03 0. -1.
         11    1    3    3    0    0 -0.77124582121E+01 -0.36438074777E+02  0.20407252337E-01  0.37245344969E+02  0.51100000000E-03 0.  1.
<mgrwt>
<rscale>  0 0.90725312E+02</rscale>
<asrwt>0</asrwt>
<pdfrwt beam="2">  1        2 0.13344652E-01 0.90725312E+02</pdfrwt>
<pdfrwt beam="1">  1       -2 0.36497489E-02 0.90725312E+02</pdfrwt>
<totfact> 0.11920165E+05</totfact>
</mgrwt>
</event>
<event>
 5    1  0.2799021E+000  0.9468515E+02  0.7818608E-02  0.1291887E+00
         -2   -1    0    0    0  501 -0.00000000000E+00  0.00000000000E+00  0.14607673610E+02  0.14607673841E+02  0.26000000000E-02 0.  1.
          2   -1    0    0  501    0  0.00000000000E+00 -0.00000000000E+00 -0.15343437156E+03  0.15343437158E+03  0.26000000000E-02 0. -1.
         23    2    1    2    0    0  0.00000000000E+00  0.00000000000E+00 -0.13882669795E+03  0.16804204542E+03  0.94685146492E+02 0.  0.
        -11    1    3    3    0    0  0.44377861804E+02 -0.16453638591E+02 -0.71359428657E+02  0.85628762105E+02  0.51100000000E-03 0. -1.
         11    1    3    3    0    0 -0.44377861804E+02  0.16453638591E+02 -0.67467269293E+02  0.82413283318E+02  0.51100000000E-03 0.  1.
<mgrwt>
<rscale>  0 0.94685146E+02</rscale>
<asrwt>0</asrwt>
<pdfrwt beam="2">  1        2 0.23605287E-01 0.94685146E+02</pdfrwt>
<pdfrwt beam="1">  1       -2 0.22473345E-02 0.94685146E+02</pdfrwt>
<totfact> 0.12713725E+05</totfact>
</mgrwt>
</event>
<event>
 5    1  0.2799021E+000  0.9128523E+02  0.7818608E-02  0.1299769E+00
         -2   -1    0    0    0  501 -0.00000000000E+00  0.00000000000E+00  0.51448391929E+01  0.51448398499E+01  0.26000000000E-02 0.  1.
          2   -1    0    0  501    0  0.00000000000E+00 -0.00000000000E+00 -0.40491994117E+03  0.40491994118E+03  0.26000000000E-02 0. -1.
         23    2    1    2    0    0  0.00000000000E+00  0.00000000000E+00 -0.39977510197E+03  0.41006478103E+03  0.91285225962E+02 0.  0.
        -11    1    3    3    0    0 -0.51105764120E+01  0.43468312405E+02 -0.14172605758E+03  0.14833033261E+03  0.51100000000E-03 0.  1.
         11    1    3    3    0    0  0.51105764120E+01 -0.43468312405E+02 -0.25804904439E+03  0.26173444841E+03  0.51100000000E-03 0. -1.
<mgrwt>
<rscale>  0 0.91285226E+02</rscale>
<asrwt>0</asrwt>
<pdfrwt beam="2">  1        2 0.62295351E-01 0.91285226E+02</pdfrwt>
<pdfrwt beam="1">  1       -2 0.79151409E-03 0.91285226E+02</pdfrwt>
<totfact> 0.19986602E+05</totfact>
</mgrwt>
</event>
<event>
 5    1  0.2799021E+000  0.8899055E+02  0.7818608E-02  0.1305315E+00
         -2   -1    0    0    0  501 -0.00000000000E+00  0.00000000000E+00  0.19118760582E+02  0.19118760759E+02  0.26000000000E-02 0.  1.
          2   -1    0    0  501    0  0.00000000000E+00 -0.00000000000E+00 -0.10355426967E+03  0.10355426971E+03  0.26000000000E-02 0. -1.
         23    2    1    2    0    0  0.00000000000E+00  0.00000000000E+00 -0.84435509093E+02  0.12267303047E+03  0.88990545611E+02 0.  0.
        -11    1    3    3    0    0 -0.41736634602E+02 -0.74657055573E+01 -0.23613387717E+02  0.48531180771E+02  0.51100000000E-03 0. -1.
         11    1    3    3    0    0  0.41736634602E+02  0.74657055573E+01 -0.60822121376E+02  0.74141849695E+02  0.51100000000E-03 0.  1.
<mgrwt>
<rscale>  0 0.88990546E+02</rscale>
<asrwt>0</asrwt>
<pdfrwt beam="2">  1        2 0.15931426E-01 0.88990546E+02</pdfrwt>
<pdfrwt beam="1">  1       -2 0.29413479E-02 0.88990546E+02</pdfrwt>
<totfact> 0.13252777E+05</totfact>
</mgrwt>
</event>
<event>
 5    1  0.2799021E+000  0.8739740E+02  0.7818608E-02  0.1309280E+00
         -2   -1    0    0    0  501 -0.00000000000E+00  0.00000000000E+00  0.17514445945E+02  0.17514446138E+02  0.26000000000E-02 0.  1.
          2   -1    0    0  501    0  0.00000000000E+00 -0.00000000000E+00 -0.10902865140E+03  0.10902865143E+03  0.26000000000E-02 0. -1.
         23    2    1    2    0    0  0.00000000000E+00  0.00000000000E+00 -0.91514205454E+02  0.12654309757E+03  0.87397401232E+02 0.  0.
        -11    1    3    3    0    0 -0.37139413812E+01  0.29416967090E+02  0.72097535119E+00  0.29659250143E+02  0.51100000000E-03 0.  1.
         11    1    3    3    0    0  0.37139413812E+01 -0.29416967090E+02 -0.92235180806E+02  0.96883847425E+02  0.51100000000E-03 0. -1.
<mgrwt>
<rscale>  0 0.87397401E+02</rscale>
<asrwt>0</asrwt>
<pdfrwt beam="2">  1        2 0.16773638E-01 0.87397401E+02</pdfrwt>
<pdfrwt beam="1">  1       -2 0.26945302E-02 0.87397401E+02</pdfrwt>
<totfact> 0.14144334E+05</totfact>
</mgrwt>
</event>
<event>
 5    1  0.2799021E+000  0.8942731E+02  0.7818608E-02  0.1304244E+00
         -2   -1    0    0    0  501 -0.00000000000E+00  0.00000000000E+00  0.16575342802E+02  0.16575343006E+02  0.26000000000E-02 0.  1.
          2   -1    0    0  501    0  0.00000000000E+00 -0.00000000000E+00 -0.12061959395E+03  0.12061959398E+03  0.26000000000E-02 0. -1.
         23    2    1    2    0    0  0.00000000000E+00  0.00000000000E+00 -0.10404425115E+03  0.13719493699E+03  0.89427314269E+02 0.  0.
        -11    1    3    3    0    0 -0.62241532463E+01 -0.34647059202E+02 -0.94319967976E+02  0.10067479900E+03  0.51100000000E-03 0. -1.
         11    1    3    3    0    0  0.62241532463E+01  0.34647059202E+02 -0.97242831762E+01  0.36520137986E+02  0.51100000000E-03 0.  1.
<mgrwt>
<rscale>  0 0.89427314E+02</rscale>
<asrwt>0</asrwt>
<pdfrwt beam="2">  1        2 0.18556860E-01 0.89427314E+02</pdfrwt>
<pdfrwt beam="1">  1       -2 0.25500528E-02 0.89427314E+02</pdfrwt>
<totfact> 0.13713824E+05</totfact>
</mgrwt>
</event>
<event>
 5    1  0.2799021E+000  0.9489853E+02  0.7818608E-02  0.1291405E+00
         -2   -1    0    0    0  501 -0.00000000000E+00  0.00000000000E+00  0.52711582248E+02  0.52711582312E+02  0.26000000000E-02 0.  1.
          2   -1    0    0  501    0  0.00000000000E+00 -0.00000000000E+00 -0.42712298430E+02  0.42712298510E+02  0.26000000000E-02 0. -1.
         23    2    1    2    0    0  0.00000000000E+00  0.00000000000E+00  0.99992838178E+01  0.95423880822E+02  0.94898531887E+02 0.  0.
        -11    1    3    3    0    0  0.66861136149E+01 -0.12197386744E+02  0.50615437342E+02  0.52491931344E+02  0.51100000000E-03 0.  1.
         11    1    3    3    0    0 -0.66861136149E+01  0.12197386744E+02 -0.40616153524E+02  0.42931949478E+02  0.51100000000E-03 0. -1.
<mgrwt>
<rscale>  0 0.94898532E+02</rscale>
<asrwt>0</asrwt>
<pdfrwt beam="2">  1        2 0.65711229E-02 0.94898532E+02</pdfrwt>
<pdfrwt beam="1">  1       -2 0.81094742E-02 0.94898532E+02</pdfrwt>
<totfact> 0.86402205E+04</totfact>
</mgrwt>
</event>
<event>
 4    1  0.2799021E+000  0.2337062E+02  0.7818608E-02  0.1685572E+00
         -2   -1    0    0    0  501 -0.00000000000E+00  0.00000000000E+00  0.12559867849E+01  0.12559894760E+01  0.26000000000E-02 0. -1.
          2   -1    0    0  501    0  0.00000000000E+00 -0.00000000000E+00 -0.10871636222E+03  0.10871636225E+03  0.26000000000E-02 0.  1.
        -11    1    1    2    0    0 -0.61743140524E+01 -0.95346491310E+01 -0.66629640762E+02  0.67590981029E+02  0.51100000000E-03 0.  1.
         11    1    1    2    0    0  0.61743140524E+01  0.95346491310E+01 -0.40830734669E+02  0.42381370694E+02  0.51100000000E-03 0. -1.
<mgrwt>
<rscale>  0 0.23370619E+02</rscale>
<asrwt>0</asrwt>
<pdfrwt beam="2">  1        2 0.16725587E-01 0.23370619E+02</pdfrwt>
<pdfrwt beam="1">  1       -2 0.19322903E-03 0.23370619E+02</pdfrwt>
<totfact> 0.37980965E+06</totfact>
</mgrwt>
</event>
<event>
 5    1  0.2799021E+000  0.9112278E+02  0.7818608E-02  0.1300155E+00
          2   -1    0    0  501    0  0.00000000000E+00  0.00000000000E+00  0.34153194691E+03  0.34153194692E+03  0.26000000000E-02 0. -1.
         -2   -1    0    0    0  501 -0.00000000000E+00 -0.00000000000E+00 -0.60780264263E+01  0.60780269824E+01  0.26000000000E-02 0.  1.
         23    2    1    2    0    0  0.00000000000E+00  0.00000000000E+00  0.33545392048E+03  0.34760997390E+03  0.91122780842E+02 0.  0.
        -11    1    3    3    0    0  0.41354818021E+02 -0.17684821907E+02  0.13999023895E+03  0.14703822939E+03  0.51100000000E-03 0. -1.
         11    1    3    3    0    0 -0.41354818021E+02  0.17684821907E+02  0.19546368154E+03  0.20057174452E+03  0.51100000000E-03 0.  1.
<mgrwt>
<rscale>  0 0.91122781E+02</rscale>
<asrwt>0</asrwt>
<pdfrwt beam="1">  1        2 0.52543369E-01 0.91122781E+02</pdfrwt>
<pdfrwt beam="2">  1       -2 0.93508117E-03 0.91122781E+02</pdfrwt>
<totfact> 0.18879423E+05</totfact>
</mgrwt>
</event>
<event>
 5    1  0.2799021E+000  0.8932077E+02  0.7818608E-02  0.1304505E+00
         -2   -1    0    0    0  501 -0.00000000000E+00  0.00000000000E+00  0.32292464994E+02  0.32292465098E+02  0.26000000000E-02 0. -1.
          2   -1    0    0  501    0  0.00000000000E+00 -0.00000000000E+00 -0.61765186694E+02  0.61765186749E+02  0.26000000000E-02 0.  1.
         23    2    1    2    0    0  0.00000000000E+00  0.00000000000E+00 -0.29472721701E+02  0.94057651848E+02  0.89320773321E+02 0.  0.
        -11    1    3    3    0    0  0.21551680283E+02 -0.30666406871E+02  0.10834043472E+02  0.39016405929E+02  0.51100000000E-03 0. -1.
         11    1    3    3    0    0 -0.21551680283E+02  0.30666406871E+02 -0.40306765173E+02  0.55041245919E+02  0.51100000000E-03 0.  1.
<mgrwt>
<rscale>  0 0.89320773E+02</rscale>
<asrwt>0</asrwt>
<pdfrwt beam="2">  1        2 0.95023364E-02 0.89320773E+02</pdfrwt>
<pdfrwt beam="1">  1       -2 0.49680716E-02 0.89320773E+02</pdfrwt>
<totfact> 0.11325709E+05</totfact>
</mgrwt>
</event>
<event>
 5    1  0.2799021E+000  0.9169716E+02  0.7818608E-02  0.1298793E+00
          2   -1    0    0  501    0  0.00000000000E+00  0.00000000000E+00  0.27062906130E+03  0.27062906132E+03  0.26000000000E-02 0. -1.
         -2   -1    0    0    0  501 -0.00000000000E+00 -0.00000000000E+00 -0.77674290607E+01  0.77674294959E+01  0.26000000000E-02 0.  1.
         23    2    1    2    0    0  0.00000000000E+00  0.00000000000E+00  0.26286163224E+03  0.27839649081E+03  0.91697155850E+02 0.  0.
        -11    1    3    3    0    0  0.16897849657E+02  0.38078853370E+02  0.73303819999E+02  0.84314805484E+02  0.51100000000E-03 0. -1.
         11    1    3    3    0    0 -0.16897849657E+02 -0.38078853370E+02  0.18955781224E+03  0.19408168533E+03  0.51100000000E-03 0.  1.
<mgrwt>
<rscale>  0 0.91697156E+02</rscale>
<asrwt>0</asrwt>
<pdfrwt beam="1">  1        2 0.41635244E-01 0.91697156E+02</pdfrwt>
<pdfrwt beam="2">  1       -2 0.11949890E-02 0.91697156E+02</pdfrwt>
<totfact> 0.17027360E+05</totfact>
</mgrwt>
</event>
<event>
 5    1  0.2799021E+000  0.9044466E+02  0.7818608E-02  0.1301778E+00
          2   -1    0    0  501    0  0.00000000000E+00  0.00000000000E+00  0.45777407474E+02  0.45777407548E+02  0.26000000000E-02 0. -1.
         -2   -1    0    0    0  501 -0.00000000000E+00 -0.00000000000E+00 -0.44673987234E+02  0.44673987310E+02  0.26000000000E-02 0.  1.
         23    2    1    2    0    0  0.00000000000E+00  0.00000000000E+00  0.11034202400E+01  0.90451394858E+02  0.90444664273E+02 0.  0.
        -11    1    3    3    0    0  0.15391969581E+02  0.27520614427E+02 -0.31866167228E+02  0.44830230426E+02  0.51100000000E-03 0.  1.
         11    1    3    3    0    0 -0.15391969581E+02 -0.27520614427E+02  0.32969587468E+02  0.45621164432E+02  0.51100000000E-03 0. -1.
<mgrwt>
<rscale>  0 0.90444664E+02</rscale>
<asrwt>0</asrwt>
<pdfrwt beam="1">  1        2 0.70426781E-02 0.90444664E+02</pdfrwt>
<pdfrwt beam="2">  1       -2 0.68729211E-02 0.90444664E+02</pdfrwt>
<totfact> 0.10108888E+05</totfact>
</mgrwt>
</event>
<event>
 5    1  0.2799021E+000  0.9205802E+02  0.7818608E-02  0.1297943E+00
         -2   -1    0    0    0  501 -0.00000000000E+00  0.00000000000E+00  0.16679299113E+03  0.16679299115E+03  0.26000000000E-02 0. -1.
          2   -1    0    0  501    0  0.00000000000E+00 -0.00000000000E+00 -0.12702391996E+02  0.12702392262E+02  0.26000000000E-02 0.  1.
         23    2    1    2    0    0  0.00000000000E+00  0.00000000000E+00  0.15409059914E+03  0.17949538341E+03  0.92058024772E+02 0.  0.
        -11    1    3    3    0    0  0.31148230548E+02 -0.33807687785E+02  0.72473444312E+02  0.85822911570E+02  0.51100000000E-03 0. -1.
         11    1    3    3    0    0 -0.31148230548E+02  0.33807687785E+02  0.81617154825E+02  0.93672471845E+02  0.51100000000E-03 0.  1.
<mgrwt>
<rscale>  0 0.92058025E+02</rscale>
<asrwt>0</asrwt>
<pdfrwt beam="2">  1        2 0.19542144E-02 0.92058025E+02</pdfrwt>
<pdfrwt beam="1">  1       -2 0.25660458E-01 0.92058025E+02</pdfrwt>
<totfact> 0.65507388E+04</totfact>
</mgrwt>
</event>
<event>
 5    1  0.2799021E+000  0.9133789E+02  0.7818608E-02  0.1299644E+00
         -2   -1    0    0    0  501 -0.00000000000E+00  0.00000000000E+00  0.17697998836E+02  0.17697999027E+02  0.26000000000E-02 0.  1.
          2   -1    0    0  501    0  0.00000000000E+00 -0.00000000000E+00 -0.11784680637E+03  0.11784680640E+03  0.26000000000E-02 0. -1.
         23    2    1    2    0    0  0.00000000000E+00  0.00000000000E+00 -0.10014880753E+03  0.13554480543E+03  0.91337892615E+02 0.  0.
        -11    1    3    3    0    0  0.79049937925E+01  0.40725268634E+02 -0.21737663717E+02  0.46835482877E+02  0.51100000000E-03 0. -1.
         11    1    3    3    0    0 -0.79049937925E+01 -0.40725268634E+02 -0.78411143817E+02  0.88709322549E+02  0.51100000000E-03 0.  1.
<mgrwt>
<rscale>  0 0.91337893E+02</rscale>
<asrwt>0</asrwt>
<pdfrwt beam="2">  1        2 0.18130277E-01 0.91337893E+02</pdfrwt>
<pdfrwt beam="1">  1       -2 0.27227691E-02 0.91337893E+02</pdfrwt>
<totfact> 0.12849273E+05</totfact>
</mgrwt>
</event>
<event>
 5    1  0.2799021E+000  0.8825013E+02  0.7818608E-02  0.1307145E+00
         -2   -1    0    0    0  501 -0.00000000000E+00  0.00000000000E+00  0.18343578585E+02  0.18343578770E+02  0.26000000000E-02 0.  1.
          2   -1    0    0  501    0  0.00000000000E+00 -0.00000000000E+00 -0.10614184562E+03  0.10614184565E+03  0.26000000000E-02 0. -1.
         23    2    1    2    0    0  0.00000000000E+00  0.00000000000E+00 -0.87798267036E+02  0.12448542442E+03  0.88250128607E+02 0.  0.
        -11    1    3    3    0    0 -0.23170252412E+02  0.80248054033E+01 -0.95646408137E+02  0.98739523436E+02  0.51100000000E-03 0. -1.
         11    1    3    3    0    0  0.23170252412E+02 -0.80248054033E+01  0.78481411012E+01  0.25745900987E+02  0.51100000000E-03 0.  1.
<mgrwt>
<rscale>  0 0.88250129E+02</rscale>
<asrwt>0</asrwt>
<pdfrwt beam="2">  1        2 0.16329514E-01 0.88250129E+02</pdfrwt>
<pdfrwt beam="1">  1       -2 0.28220891E-02 0.88250129E+02</pdfrwt>
<totfact> 0.13661622E+05</totfact>
</mgrwt>
</event>
<event>
 4    1  0.2799021E+000  0.1479655E+03  0.7818608E-02  0.1202996E+00
          2   -1    0    0  501    0  0.00000000000E+00  0.00000000000E+00  0.36573824787E+02  0.36573824880E+02  0.26000000000E-02 0. -1.
         -2   -1    0    0    0  501 -0.00000000000E+00 -0.00000000000E+00 -0.14965469004E+03  0.14965469006E+03  0.26000000000E-02 0.  1.
        -11    1    1    2    0    0 -0.67138008410E+02  0.12792965889E+02 -0.92189380729E+02  0.11476085600E+03  0.51100000000E-03 0.  1.
         11    1    1    2    0    0  0.67138008410E+02 -0.12792965889E+02 -0.20891484525E+02  0.71467658947E+02  0.51100000000E-03 0. -1.
<mgrwt>
<rscale>  0 0.14796546E+03</rscale>
<asrwt>0</asrwt>
<pdfrwt beam="1">  1        2 0.56267424E-02 0.14796546E+03</pdfrwt>
<pdfrwt beam="2">  1       -2 0.23023798E-01 0.14796546E+03</pdfrwt>
<totfact> 0.20619864E+04</totfact>
</mgrwt>
</event>
<event>
 5    1  0.2799021E+000  0.9071132E+02  0.7818608E-02  0.1301138E+00
         -2   -1    0    0    0  501 -0.00000000000E+00  0.00000000000E+00  0.11702092367E+02  0.11702092655E+02  0.26000000000E-02 0.  1.
          2   -1    0    0  501    0  0.00000000000E+00 -0.00000000000E+00 -0.17579213841E+03  0.17579213843E+03  0.26000000000E-02 0. -1.
         23    2    1    2    0    0  0.00000000000E+00  0.00000000000E+00 -0.16409004604E+03  0.18749423108E+03  0.90711319467E+02 0.  0.
        -11    1    3    3    0    0  0.43955596505E+02 -0.10988894236E+02 -0.86323928519E+02  0.97491901694E+02  0.51100000000E-03 0.  1.
         11    1    3    3    0    0 -0.43955596505E+02  0.10988894236E+02 -0.77766117524E+02  0.90002329391E+02  0.51100000000E-03 0. -1.
<mgrwt>
<rscale>  0 0.90711319E+02</rscale>
<asrwt>0</asrwt>
<pdfrwt beam="2">  1        2 0.27044942E-01 0.90711319E+02</pdfrwt>
<pdfrwt beam="1">  1       -2 0.18003221E-02 0.90711319E+02</pdfrwt>
<totfact> 0.14975997E+05</totfact>
</mgrwt>
</event>
<event>
 5    1  0.2799021E+000  0.9008410E+02  0.7818608E-02  0.1302648E+00
          2   -1    0    0  501    0  0.00000000000E+00  0.00000000000E+00  0.36503641989E+02  0.36503642081E+02  0.26000000000E-02 0.  1.
         -2   -1    0    0    0  501 -0.00000000000E+00 -0.00000000000E+00 -0.55577643285E+02  0.55577643346E+02  0.26000000000E-02 0. -1.
         23    2    1    2    0    0  0.00000000000E+00  0.00000000000E+00 -0.19074001297E+02  0.92081285427E+02  0.90084102929E+02 0.  0.
        -11    1    3    3    0    0  0.44503155587E+02 -0.19678949880E+01 -0.16346751294E+02  0.47451235453E+02  0.51100000000E-03 0. -1.
         11    1    3    3    0    0 -0.44503155587E+02  0.19678949880E+01 -0.27272500024E+01  0.44630049974E+02  0.51100000000E-03 0.  1.
<mgrwt>
<rscale>  0 0.90084103E+02</rscale>
<asrwt>0</asrwt>
<pdfrwt beam="1">  1        2 0.56159449E-02 0.90084103E+02</pdfrwt>
<pdfrwt beam="2">  1       -2 0.85504067E-02 0.90084103E+02</pdfrwt>
<totfact> 0.96480943E+04</totfact>
</mgrwt>
</event>
<event>
 5    1  0.2799021E+000  0.9151952E+02  0.7818608E-02  0.1299213E+00
         -2   -1    0    0    0  501 -0.00000000000E+00  0.00000000000E+00  0.65145301843E+01  0.65145307031E+01  0.26000000000E-02 0. -1.
          2   -1    0    0  501    0  0.00000000000E+00 -0.00000000000E+00 -0.32142850325E+03  0.32142850326E+03  0.26000000000E-02 0.  1.
         23    2    1    2    0    0  0.00000000000E+00  0.00000000000E+00 -0.31491397307E+03  0.32794303397E+03  0.91519523017E+02 0.  0.
        -11    1    3    3    0    0 -0.43355751010E+02  0.54636505829E+01 -0.10879999231E+03  0.11724764795E+03  0.51100000000E-03 0. -1.
         11    1    3    3    0    0  0.43355751010E+02 -0.54636505829E+01 -0.20611398076E+03  0.21069538601E+03  0.51100000000E-03 0.  1.
<mgrwt>
<rscale>  0 0.91519523E+02</rscale>
<asrwt>0</asrwt>
<pdfrwt beam="2">  1        2 0.49450527E-01 0.91519523E+02</pdfrwt>
<pdfrwt beam="1">  1       -2 0.10022357E-02 0.91519523E+02</pdfrwt>
<totfact> 0.18248893E+05</totfact>
</mgrwt>
</event>
<event>
 5    1  0.2799021E+000  0.9032470E+02  0.7818608E-02  0.1302067E+00
          2   -1    0    0  501    0  0.00000000000E+00  0.00000000000E+00  0.35026287932E+03  0.35026287933E+03  0.26000000000E-02 0. -1.
         -2   -1    0    0    0  501 -0.00000000000E+00 -0.00000000000E+00 -0.58231627017E+01  0.58231632821E+01  0.26000000000E-02 0.  1.
         23    2    1    2    0    0  0.00000000000E+00  0.00000000000E+00  0.34443971662E+03  0.35608604261E+03  0.90324699605E+02 0.  0.
        -11    1    3    3    0    0 -0.10910605628E+02  0.43349785785E+02  0.14685632456E+03  0.15350903982E+03  0.51100000000E-03 0.  1.
         11    1    3    3    0    0  0.10910605628E+02 -0.43349785785E+02  0.19758339205E+03  0.20257700279E+03  0.51100000000E-03 0. -1.
<mgrwt>
<rscale>  0 0.90324700E+02</rscale>
<asrwt>0</asrwt>
<pdfrwt beam="1">  1        2 0.53886589E-01 0.90324700E+02</pdfrwt>
<pdfrwt beam="2">  1       -2 0.89587136E-03 0.90324700E+02</pdfrwt>
<totfact> 0.19505734E+05</totfact>
</mgrwt>
</event>
<event>
 5    1  0.2799021E+000  0.9093499E+02  0.7818608E-02  0.1300603E+00
          2   -1    0    0  501    0  0.00000000000E+00  0.00000000000E+00  0.11358621240E+03  0.11358621243E+03  0.26000000000E-02 0. -1.
         -2   -1    0    0    0  501 -0.00000000000E+00 -0.00000000000E+00 -0.18200211325E+02  0.18200211511E+02  0.26000000000E-02 0.  1.
         23    2    1    2    0    0  0.00000000000E+00  0.00000000000E+00  0.95386001070E+02  0.13178642394E+03  0.90934989601E+02 0.  0.
        -11    1    3    3    0    0  0.18704266786E+01 -0.20601096285E+02  0.10637173190E+03  0.10836442688E+03  0.51100000000E-03 0. -1.
         11    1    3    3    0    0 -0.18704266786E+01  0.20601096285E+02 -0.10985730832E+02  0.23421997060E+02  0.51100000000E-03 0.  1.
<mgrwt>
<rscale>  0 0.90934990E+02</rscale>
<asrwt>0</asrwt>
<pdfrwt beam="1">  1        2 0.17474802E-01 0.90934990E+02</pdfrwt>
<pdfrwt beam="2">  1       -2 0.28000326E-02 0.90934990E+02</pdfrwt>
<totfact> 0.12854882E+05</totfact>
</mgrwt>
</event>
<event>
 5    1  0.2799021E+000  0.9837900E+02  0.7818608E-02  0.1283742E+00
          2   -1    0    0  501    0  0.00000000000E+00  0.00000000000E+00  0.28725621765E+03  0.28725621766E+03  0.26000000000E-02 0. -1.
         -2   -1    0    0    0  501 -0.00000000000E+00 -0.00000000000E+00 -0.84231659713E+01  0.84231663726E+01  0.26000000000E-02 0.  1.
         23    2    1    2    0    0  0.00000000000E+00  0.00000000000E+00  0.27883305168E+03  0.29567938403E+03  0.98378998950E+02 0.  0.
        -11    1    3    3    0    0 -0.48197981663E+02 -0.88839734091E+01  0.12679464461E+03  0.13593694244E+03  0.51100000000E-03 0.  1.
         11    1    3    3    0    0  0.48197981663E+02  0.88839734091E+01  0.15203840707E+03  0.15974244159E+03  0.51100000000E-03 0. -1.
<mgrwt>
<rscale>  0 0.98378999E+02</rscale>
<asrwt>0</asrwt>
<pdfrwt beam="1">  1        2 0.44193264E-01 0.98378999E+02</pdfrwt>
<pdfrwt beam="2">  1       -2 0.12958717E-02 0.98378999E+02</pdfrwt>
<totfact> 0.14415643E+05</totfact>
</mgrwt>
</event>
<event>
 5    1  0.2799021E+000  0.9425366E+02  0.7818608E-02  0.1292866E+00
         -2   -1    0    0    0  501 -0.00000000000E+00  0.00000000000E+00  0.88157636040E+02  0.88157636078E+02  0.26000000000E-02 0.  1.
          2   -1    0    0  501    0  0.00000000000E+00 -0.00000000000E+00 -0.25192804780E+02  0.25192804914E+02  0.26000000000E-02 0. -1.
         23    2    1    2    0    0  0.00000000000E+00  0.00000000000E+00  0.62964831261E+02  0.11335044099E+03  0.94253660393E+02 0.  0.
        -11    1    3    3    0    0 -0.43739704003E+02  0.17541310800E+02  0.31820075761E+02  0.56862786711E+02  0.51100000000E-03 0.  1.
         11    1    3    3    0    0  0.43739704003E+02 -0.17541310800E+02  0.31144755500E+02  0.56487654281E+02  0.51100000000E-03 0. -1.
<mgrwt>
<rscale>  0 0.94253660E+02</rscale>
<asrwt>0</asrwt>
<pdfrwt beam="2">  1        2 0.38758162E-02 0.94253660E+02</pdfrwt>
<pdfrwt beam="1">  1       -2 0.13562713E-01 0.94253660E+02</pdfrwt>
<totfact> 0.76271018E+04</totfact>
</mgrwt>
</event>
<event>
 4    1  0.2799021E+000  0.5152282E+02  0.7818608E-02  0.1437297E+00
          2   -1    0    0  501    0  0.00000000000E+00  0.00000000000E+00  0.81024589361E+02  0.81024589403E+02  0.26000000000E-02 0. -1.
         -2   -1    0    0    0  501 -0.00000000000E+00 -0.00000000000E+00 -0.81907261770E+01  0.81907265897E+01  0.26000000000E-02 0.  1.
        -11    1    1    2    0    0 -0.24618801124E+02  0.68555433538E+01  0.42045569997E+02  0.49202782442E+02  0.51100000000E-03 0. -1.
         11    1    1    2    0    0  0.24618801124E+02 -0.68555433538E+01  0.30788293187E+02  0.40012533550E+02  0.51100000000E-03 0.  1.
<mgrwt>
<rscale>  0 0.51522820E+02</rscale>
<asrwt>0</asrwt>
<pdfrwt beam="1">  1        2 0.12465321E-01 0.51522820E+02</pdfrwt>
<pdfrwt beam="2">  1       -2 0.12601118E-02 0.51522820E+02</pdfrwt>
<totfact> 0.52646729E+05</totfact>
</mgrwt>
</event>
<event>
 5    1  0.2799021E+000  0.8779178E+02  0.7818608E-02  0.1308289E+00
         -2   -1    0    0    0  501 -0.00000000000E+00  0.00000000000E+00  0.41254343963E+02  0.41254344045E+02  0.26000000000E-02 0.  1.
          2   -1    0    0  501    0  0.00000000000E+00 -0.00000000000E+00 -0.46706573012E+02  0.46706573084E+02  0.26000000000E-02 0. -1.
         23    2    1    2    0    0  0.00000000000E+00  0.00000000000E+00 -0.54522290484E+01  0.87960917129E+02  0.87791777181E+02 0.  0.
        -11    1    3    3    0    0  0.21975153492E+01 -0.16377210473E+02  0.38019259907E+02  0.41454869686E+02  0.51100000000E-03 0.  1.
         11    1    3    3    0    0 -0.21975153492E+01  0.16377210473E+02 -0.43471488955E+02  0.46506047443E+02  0.51100000000E-03 0. -1.
<mgrwt>
<rscale>  0 0.87791777E+02</rscale>
<asrwt>0</asrwt>
<pdfrwt beam="2">  1        2 0.71856267E-02 0.87791777E+02</pdfrwt>
<pdfrwt beam="1">  1       -2 0.63468221E-02 0.87791777E+02</pdfrwt>
<totfact> 0.11061071E+05</totfact>
</mgrwt>
</event>
<event>
 5    1  0.2799021E+000  0.8695701E+02  0.7818608E-02  0.1310393E+00
          2   -1    0    0  501    0  0.00000000000E+00  0.00000000000E+00  0.20509249258E+02  0.20509249423E+02  0.26000000000E-02 0. -1.
         -2   -1    0    0    0  501 -0.00000000000E+00 -0.00000000000E+00 -0.92172098302E+02  0.92172098339E+02  0.26000000000E-02 0.  1.
         23    2    1    2    0    0  0.00000000000E+00  0.00000000000E+00 -0.71662849044E+02  0.11268134776E+03  0.86957013519E+02 0.  0.
        -11    1    3    3    0    0  0.22645500064E+02  0.28465346001E+02 -0.66695156028E+02  0.75969325612E+02  0.51100000000E-03 0.  1.
         11    1    3    3    0    0 -0.22645500064E+02 -0.28465346001E+02 -0.49676930162E+01  0.36712022149E+02  0.51100000000E-03 0. -1.
<mgrwt>
<rscale>  0 0.86957014E+02</rscale>
<asrwt>0</asrwt>
<pdfrwt beam="1">  1        2 0.31552692E-02 0.86957014E+02</pdfrwt>
<pdfrwt beam="2">  1       -2 0.14180323E-01 0.86957014E+02</pdfrwt>
<totfact> 0.91920087E+04</totfact>
</mgrwt>
</event>
<event>
 5    1  0.2799021E+000  0.9546392E+02  0.7818608E-02  0.1290135E+00
          2   -1    0    0  501    0  0.00000000000E+00  0.00000000000E+00  0.43657318115E+02  0.43657318193E+02  0.26000000000E-02 0.  1.
         -2   -1    0    0    0  501 -0.00000000000E+00 -0.00000000000E+00 -0.52186900095E+02  0.52186900159E+02  0.26000000000E-02 0. -1.
         23    2    1    2    0    0  0.00000000000E+00  0.00000000000E+00 -0.85295819793E+01  0.95844218352E+02  0.95463922100E+02 0.  0.
        -11    1    3    3    0    0 -0.33106165791E+02 -0.50941592730E+01  0.29876137183E+02  0.44883763716E+02  0.51100000000E-03 0.  1.
         11    1    3    3    0    0  0.33106165791E+02  0.50941592730E+01 -0.38405719162E+02  0.50960454636E+02  0.51100000000E-03 0. -1.
<mgrwt>
<rscale>  0 0.95463922E+02</rscale>
<asrwt>0</asrwt>
<pdfrwt beam="1">  1        2 0.67165105E-02 0.95463922E+02</pdfrwt>
<pdfrwt beam="2">  1       -2 0.80287538E-02 0.95463922E+02</pdfrwt>
<totfact> 0.85421579E+04</totfact>
</mgrwt>
</event>
<event>
 5    1  0.2799021E+000  0.9066326E+02  0.7818608E-02  0.1301253E+00
          2   -1    0    0  501    0  0.00000000000E+00  0.00000000000E+00  0.20121083893E+02  0.20121084061E+02  0.26000000000E-02 0.  1.
         -2   -1    0    0    0  501 -0.00000000000E+00 -0.00000000000E+00 -0.10212952879E+03  0.10212952883E+03  0.26000000000E-02 0. -1.
         23    2    1    2    0    0  0.00000000000E+00  0.00000000000E+00 -0.82008444899E+02  0.12225061289E+03  0.90663263322E+02 0.  0.
        -11    1    3    3    0    0  0.23460301034E+02 -0.38668960569E+02 -0.45112448631E+02  0.63881196434E+02  0.51100000000E-03 0. -1.
         11    1    3    3    0    0 -0.23460301034E+02  0.38668960569E+02 -0.36895996268E+02  0.58369416452E+02  0.51100000000E-03 0.  1.
<mgrwt>
<rscale>  0 0.90663263E+02</rscale>
<asrwt>0</asrwt>
<pdfrwt beam="1">  1        2 0.30955514E-02 0.90663263E+02</pdfrwt>
<pdfrwt beam="2">  1       -2 0.15712235E-01 0.90663263E+02</pdfrwt>
<totfact> 0.80427244E+04</totfact>
</mgrwt>
</event>
<event>
 5    1  0.2799021E+000  0.9224777E+02  0.7818608E-02  0.1297498E+00
         -2   -1    0    0    0  501 -0.00000000000E+00  0.00000000000E+00  0.33920242627E+02  0.33920242727E+02  0.26000000000E-02 0.  1.
          2   -1    0    0  501    0  0.00000000000E+00 -0.00000000000E+00 -0.62718089802E+02  0.62718089856E+02  0.26000000000E-02 0. -1.
         23    2    1    2    0    0  0.00000000000E+00  0.00000000000E+00 -0.28797847174E+02  0.96638332582E+02  0.92247771368E+02 0.  0.
        -11    1    3    3    0    0 -0.31412913113E+02  0.30218996950E+02  0.14004649922E+01  0.43611009956E+02  0.51100000000E-03 0.  1.
         11    1    3    3    0    0  0.31412913113E+02 -0.30218996950E+02 -0.30198312167E+02  0.53027322626E+02  0.51100000000E-03 0. -1.
<mgrwt>
<rscale>  0 0.92247771E+02</rscale>
<asrwt>0</asrwt>
<pdfrwt beam="2">  1        2 0.96489369E-02 0.92247771E+02</pdfrwt>
<pdfrwt beam="1">  1       -2 0.52184989E-02 0.92247771E+02</pdfrwt>
<totfact> 0.10386661E+05</totfact>
</mgrwt>
</event>
<event>
 5    1  0.2799021E+000  0.9114717E+02  0.7818608E-02  0.1300097E+00
         -2   -1    0    0    0  501 -0.00000000000E+00  0.00000000000E+00  0.12394761356E+02  0.12394761628E+02  0.26000000000E-02 0.  1.
          2   -1    0    0  501    0  0.00000000000E+00 -0.00000000000E+00 -0.16756687514E+03  0.16756687516E+03  0.26000000000E-02 0. -1.
         23    2    1    2    0    0  0.00000000000E+00  0.00000000000E+00 -0.15517211378E+03  0.17996163679E+03  0.91147165722E+02 0.  0.
        -11    1    3    3    0    0  0.29994055778E+02 -0.22719271612E+02 -0.26818718796E+02  0.46206626827E+02  0.51100000000E-03 0.  1.
         11    1    3    3    0    0 -0.29994055778E+02  0.22719271612E+02 -0.12835339499E+03  0.13375500996E+03  0.51100000000E-03 0. -1.
<mgrwt>
<rscale>  0 0.91147166E+02</rscale>
<asrwt>0</asrwt>
<pdfrwt beam="2">  1        2 0.25779518E-01 0.91147166E+02</pdfrwt>
<pdfrwt beam="1">  1       -2 0.19068865E-02 0.91147166E+02</pdfrwt>
<totfact> 0.14537370E+05</totfact>
</mgrwt>
</event>
<event>
 5    1  0.2799021E+000  0.9180515E+02  0.7818608E-02  0.1298538E+00
          2   -1    0    0  501    0  0.00000000000E+00  0.00000000000E+00  0.42340832691E+02  0.42340832771E+02  0.26000000000E-02 0. -1.
         -2   -1    0    0    0  501 -0.00000000000E+00 -0.00000000000E+00 -0.49763936114E+02  0.49763936182E+02  0.26000000000E-02 0.  1.
         23    2    1    2    0    0  0.00000000000E+00  0.00000000000E+00 -0.74231034237E+01  0.92104768953E+02  0.91805152358E+02 0.  0.
        -11    1    3    3    0    0 -0.59416744559E+01 -0.24499145160E+02 -0.42197336211E+02  0.49154112671E+02  0.51100000000E-03 0.  1.
         11    1    3    3    0    0  0.59416744559E+01  0.24499145160E+02  0.34774232787E+02  0.42950656282E+02  0.51100000000E-03 0. -1.
<mgrwt>
<rscale>  0 0.91805152E+02</rscale>
<asrwt>0</asrwt>
<pdfrwt beam="1">  1        2 0.65139743E-02 0.91805152E+02</pdfrwt>
<pdfrwt beam="2">  1       -2 0.76559902E-02 0.91805152E+02</pdfrwt>
<totfact> 0.94900834E+04</totfact>
</mgrwt>
</event>
<event>
 5    1  0.2799021E+000  0.9171194E+02  0.7818608E-02  0.1298758E+00
         -2   -1    0    0    0  501 -0.00000000000E+00  0.00000000000E+00  0.80298819862E+02  0.80298819904E+02  0.26000000000E-02 0. -1.
          2   -1    0    0  501    0  0.00000000000E+00 -0.00000000000E+00 -0.26186809358E+02  0.26186809487E+02  0.26000000000E-02 0.  1.
         23    2    1    2    0    0  0.00000000000E+00  0.00000000000E+00  0.54112010504E+02  0.10648562939E+03  0.91711938077E+02 0.  0.
        -11    1    3    3    0    0  0.42091622506E+02 -0.14839818877E+02  0.39280281591E+02  0.59454734308E+02  0.51100000000E-03 0.  1.
         11    1    3    3    0    0 -0.42091622506E+02  0.14839818877E+02  0.14831728913E+02  0.47030895083E+02  0.51100000000E-03 0. -1.
<mgrwt>
<rscale>  0 0.91711938E+02</rscale>
<asrwt>0</asrwt>
<pdfrwt beam="2">  1        2 0.40287399E-02 0.91711938E+02</pdfrwt>
<pdfrwt beam="1">  1       -2 0.12353665E-01 0.91711938E+02</pdfrwt>
<totfact> 0.83776490E+04</totfact>
</mgrwt>
</event>
<event>
 5    1  0.2799021E+000  0.8886147E+02  0.7818608E-02  0.1305632E+00
         -2   -1    0    0    0  501 -0.00000000000E+00  0.00000000000E+00  0.71177734692E+01  0.71177739441E+01  0.26000000000E-02 0.  1.
          2   -1    0    0  501    0  0.00000000000E+00 -0.00000000000E+00 -0.27734658066E+03  0.27734658067E+03  0.26000000000E-02 0. -1.
         23    2    1    2    0    0  0.00000000000E+00  0.00000000000E+00 -0.27022880719E+03  0.28446435461E+03  0.88861469780E+02 0.  0.
        -11    1    3    3    0    0  0.32471689537E+02 -0.27027564204E+02 -0.17914594176E+03  0.18406023008E+03  0.51100000000E-03 0. -1.
         11    1    3    3    0    0 -0.32471689537E+02  0.27027564204E+02 -0.91082865425E+02  0.10040412453E+03  0.51100000000E-03 0.  1.
<mgrwt>
<rscale>  0 0.88861470E+02</rscale>
<asrwt>0</asrwt>
<pdfrwt beam="2">  1        2 0.42668696E-01 0.88861470E+02</pdfrwt>
<pdfrwt beam="1">  1       -2 0.10950423E-02 0.88861470E+02</pdfrwt>
<totfact> 0.18686480E+05</totfact>
</mgrwt>
</event>
<event>
 5    1  0.2799021E+000  0.9198625E+02  0.7818608E-02  0.1298112E+00
          2   -1    0    0  501    0  0.00000000000E+00  0.00000000000E+00  0.70687916578E+02  0.70687916626E+02  0.26000000000E-02 0. -1.
         -2   -1    0    0    0  501 -0.00000000000E+00 -0.00000000000E+00 -0.29925449139E+02  0.29925449252E+02  0.26000000000E-02 0.  1.
         23    2    1    2    0    0  0.00000000000E+00  0.00000000000E+00  0.40762467439E+02  0.10061336588E+03  0.91986252460E+02 0.  0.
        -11    1    3    3    0    0  0.29154526846E+02 -0.35314859984E+02  0.15709612156E+02  0.48414023647E+02  0.51100000000E-03 0.  1.
         11    1    3    3    0    0 -0.29154526846E+02  0.35314859984E+02  0.25052855283E+02  0.52199342231E+02  0.51100000000E-03 0. -1.
<mgrwt>
<rscale>  0 0.91986252E+02</rscale>
<asrwt>0</asrwt>
<pdfrwt beam="1">  1        2 0.10875064E-01 0.91986252E+02</pdfrwt>
<pdfrwt beam="2">  1       -2 0.46039154E-02 0.91986252E+02</pdfrwt>
<totfact> 0.10820769E+05</totfact>
</mgrwt>
</event>
<event>
 5    1  0.2799021E+000  0.9121533E+02  0.7818608E-02  0.1299935E+00
          2   -1    0    0  501    0  0.00000000000E+00  0.00000000000E+00  0.12740875549E+03  0.12740875551E+03  0.26000000000E-02 0. -1.
         -2   -1    0    0    0  501 -0.00000000000E+00 -0.00000000000E+00 -0.16325871317E+02  0.16325871524E+02  0.26000000000E-02 0.  1.
         23    2    1    2    0    0  0.00000000000E+00  0.00000000000E+00  0.11108288417E+03  0.14373462704E+03  0.91215326859E+02 0.  0.
        -11    1    3    3    0    0 -0.21816889062E+02  0.24237580705E+02  0.52986994157E+01  0.33038056579E+02  0.51100000000E-03 0.  1.
         11    1    3    3    0    0  0.21816889062E+02 -0.24237580705E+02  0.10578418476E+03  0.11069657046E+03  0.51100000000E-03 0. -1.
<mgrwt>
<rscale>  0 0.91215327E+02</rscale>
<asrwt>0</asrwt>
<pdfrwt beam="1">  1        2 0.19601347E-01 0.91215327E+02</pdfrwt>
<pdfrwt beam="2">  1       -2 0.25116725E-02 0.91215327E+02</pdfrwt>
<totfact> 0.13225290E+05</totfact>
</mgrwt>
</event>
<event>
 5    1  0.2799021E+000  0.9151648E+02  0.7818608E-02  0.1299220E+00
          2   -1    0    0  501    0  0.00000000000E+00  0.00000000000E+00  0.15363132095E+02  0.15363132315E+02  0.26000000000E-02 0. -1.
         -2   -1    0    0    0  501 -0.00000000000E+00 -0.00000000000E+00 -0.13628837464E+03  0.13628837466E+03  0.26000000000E-02 0.  1.
         23    2    1    2    0    0  0.00000000000E+00  0.00000000000E+00 -0.12092524254E+03  0.15165150698E+03  0.91516475481E+02 0.  0.
        -11    1    3    3    0    0  0.28639909205E+02  0.21027862941E+02 -0.12681901264E+02  0.37725933243E+02  0.51100000000E-03 0. -1.
         11    1    3    3    0    0 -0.28639909205E+02 -0.21027862941E+02 -0.10824334128E+03  0.11392557373E+03  0.51100000000E-03 0.  1.
<mgrwt>
<rscale>  0 0.91516475E+02</rscale>
<asrwt>0</asrwt>
<pdfrwt beam="1">  1        2 0.23635589E-02 0.91516475E+02</pdfrwt>
<pdfrwt beam="2">  1       -2 0.20967441E-01 0.91516475E+02</pdfrwt>
<totfact> 0.71597272E+04</totfact>
</mgrwt>
</event>
<event>
 5    1  0.2799021E+000  0.9574699E+02  0.7818608E-02  0.1289502E+00
         -2   -1    0    0    0  501 -0.00000000000E+00  0.00000000000E+00  0.74434520395E+01  0.74434524936E+01  0.26000000000E-02 0.  1.
          2   -1    0    0  501    0  0.00000000000E+00 -0.00000000000E+00 -0.30790438277E+03  0.30790438278E+03  0.26000000000E-02 0. -1.
         23    2    1    2    0    0  0.00000000000E+00  0.00000000000E+00 -0.30046093073E+03  0.31534783527E+03  0.95746991163E+02 0.  0.
        -11    1    3    3    0    0  0.37101225652E+02  0.22597705554E+02 -0.83972359861E+02  0.94543717201E+02  0.51100000000E-03 0.  1.
         11    1    3    3    0    0 -0.37101225652E+02 -0.22597705554E+02 -0.21648857087E+03  0.22080411807E+03  0.51100000000E-03 0. -1.
<mgrwt>
<rscale>  0 0.95746991E+02</rscale>
<asrwt>0</asrwt>
<pdfrwt beam="2">  1        2 0.47369895E-01 0.95746991E+02</pdfrwt>
<pdfrwt beam="1">  1       -2 0.11451467E-02 0.95746991E+02</pdfrwt>
<totfact> 0.15915645E+05</totfact>
</mgrwt>
</event>
<event>
 5    1  0.2799021E+000  0.8888007E+02  0.7818608E-02  0.1305587E+00
          2   -1    0    0  501    0  0.00000000000E+00  0.00000000000E+00  0.29910593267E+03  0.29910593268E+03  0.26000000000E-02 0. -1.
         -2   -1    0    0    0  501 -0.00000000000E+00 -0.00000000000E+00 -0.66027328749E+01  0.66027333868E+01  0.26000000000E-02 0.  1.
         23    2    1    2    0    0  0.00000000000E+00  0.00000000000E+00  0.29250319980E+03  0.30570866607E+03  0.88880068738E+02 0.  0.
        -11    1    3    3    0    0  0.26921047650E+02 -0.31545965506E+02  0.20117981916E+03  0.20540985951E+03  0.51100000000E-03 0.  1.
         11    1    3    3    0    0 -0.26921047650E+02  0.31545965506E+02  0.91323380639E+02  0.10029880656E+03  0.51100000000E-03 0. -1.
<mgrwt>
<rscale>  0 0.88880069E+02</rscale>
<asrwt>0</asrwt>
<pdfrwt beam="1">  1        2 0.46016311E-01 0.88880069E+02</pdfrwt>
<pdfrwt beam="2">  1       -2 0.10158048E-02 0.88880069E+02</pdfrwt>
<totfact> 0.19207759E+05</totfact>
</mgrwt>
</event>
<event>
 5    1  0.2799021E+000  0.9154584E+02  0.7818608E-02  0.1299151E+00
          2   -1    0    0  501    0  0.00000000000E+00  0.00000000000E+00  0.30198118437E+03  0.30198118438E+03  0.26000000000E-02 0. -1.
         -2   -1    0    0    0  501 -0.00000000000E+00 -0.00000000000E+00 -0.69380488192E+01  0.69380493064E+01  0.26000000000E-02 0.  1.
         23    2    1    2    0    0  0.00000000000E+00  0.00000000000E+00  0.29504313555E+03  0.30891923368E+03  0.91545841557E+02 0.  0.
        -11    1    3    3    0    0 -0.41944705448E+02  0.75715419623E+00  0.20930569414E+03  0.21346851103E+03  0.51100000000E-03 0. -1.
         11    1    3    3    0    0  0.41944705448E+02 -0.75715419623E+00  0.85737441403E+02  0.95450722660E+02  0.51100000000E-03 0.  1.
<mgrwt>
<rscale>  0 0.91545842E+02</rscale>
<asrwt>0</asrwt>
<pdfrwt beam="1">  1        2 0.46458643E-01 0.91545842E+02</pdfrwt>
<pdfrwt beam="2">  1       -2 0.10673922E-02 0.91545842E+02</pdfrwt>
<totfact> 0.17816907E+05</totfact>
</mgrwt>
</event>
<event>
 5    1  0.2799021E+000  0.8978196E+02  0.7818608E-02  0.1303381E+00
         -2   -1    0    0    0  501 -0.00000000000E+00  0.00000000000E+00  0.61325242684E+02  0.61325242739E+02  0.26000000000E-02 0. -1.
          2   -1    0    0  501    0  0.00000000000E+00 -0.00000000000E+00 -0.32860858225E+02  0.32860858328E+02  0.26000000000E-02 0.  1.
         23    2    1    2    0    0  0.00000000000E+00  0.00000000000E+00  0.28464384459E+02  0.94186101066E+02  0.89781960613E+02 0.  0.
        -11    1    3    3    0    0  0.39582493336E+02 -0.20665148809E+02  0.19082629030E+02  0.48558921785E+02  0.51100000000E-03 0. -1.
         11    1    3    3    0    0 -0.39582493336E+02  0.20665148809E+02  0.93817554290E+01  0.45627179281E+02  0.51100000000E-03 0.  1.
<mgrwt>
<rscale>  0 0.89781961E+02</rscale>
<asrwt>0</asrwt>
<pdfrwt beam="2">  1        2 0.50555167E-02 0.89781961E+02</pdfrwt>
<pdfrwt beam="1">  1       -2 0.94346526E-02 0.89781961E+02</pdfrwt>
<totfact> 0.94823695E+04</totfact>
</mgrwt>
</event>
<event>
 5    1  0.2799021E+000  0.9178442E+02  0.7818608E-02  0.1298587E+00
          2   -1    0    0  501    0  0.00000000000E+00  0.00000000000E+00  0.19046794852E+03  0.19046794854E+03  0.26000000000E-02 0.  1.
         -2   -1    0    0    0  501 -0.00000000000E+00 -0.00000000000E+00 -0.11057476517E+02  0.11057476823E+02  0.26000000000E-02 0. -1.
         23    2    1    2    0    0  0.00000000000E+00  0.00000000000E+00  0.17941047200E+03  0.20152542536E+03  0.91784419169E+02 0.  0.
        -11    1    3    3    0    0  0.24423535017E+02  0.27328289278E+02  0.15034424801E+03  0.15474733396E+03  0.51100000000E-03 0.  1.
         11    1    3    3    0    0 -0.24423535017E+02 -0.27328289278E+02  0.29066223991E+02  0.46778091399E+02  0.51100000000E-03 0. -1.
<mgrwt>
<rscale>  0 0.91784419E+02</rscale>
<asrwt>0</asrwt>
<pdfrwt beam="1">  1        2 0.29302762E-01 0.91784419E+02</pdfrwt>
<pdfrwt beam="2">  1       -2 0.17011502E-02 0.91784419E+02</pdfrwt>
<totfact> 0.14928241E+05</totfact>
</mgrwt>
</event>
<event>
 5    1  0.2799021E+000  0.8951251E+02  0.7818608E-02  0.1304037E+00
         -2   -1    0    0    0  501 -0.00000000000E+00  0.00000000000E+00  0.76836558826E+01  0.76836563225E+01  0.26000000000E-02 0.  1.
          2   -1    0    0  501    0  0.00000000000E+00 -0.00000000000E+00 -0.26069909181E+03  0.26069909182E+03  0.26000000000E-02 0. -1.
         23    2    1    2    0    0  0.00000000000E+00  0.00000000000E+00 -0.25301543593E+03  0.26838274815E+03  0.89512505744E+02 0.  0.
        -11    1    3    3    0    0  0.25384225181E+02 -0.27760027675E+02 -0.19922083638E+03  0.20274101626E+03  0.51100000000E-03 0. -1.
         11    1    3    3    0    0 -0.25384225181E+02  0.27760027675E+02 -0.53794599545E+02  0.65641731886E+02  0.51100000000E-03 0.  1.
<mgrwt>
<rscale>  0 0.89512506E+02</rscale>
<asrwt>0</asrwt>
<pdfrwt beam="2">  1        2 0.40107546E-01 0.89512506E+02</pdfrwt>
<pdfrwt beam="1">  1       -2 0.11821011E-02 0.89512506E+02</pdfrwt>
<totfact> 0.17909280E+05</totfact>
</mgrwt>
</event>
<event>
 5    1  0.2799021E+000  0.9081723E+02  0.7818608E-02  0.1300885E+00
          2   -1    0    0  501    0  0.00000000000E+00  0.00000000000E+00  0.11070345631E+03  0.11070345634E+03  0.26000000000E-02 0. -1.
         -2   -1    0    0    0  501 -0.00000000000E+00 -0.00000000000E+00 -0.18625816061E+02  0.18625816242E+02  0.26000000000E-02 0.  1.
         23    2    1    2    0    0  0.00000000000E+00  0.00000000000E+00  0.92077640251E+02  0.12932927258E+03  0.90817228062E+02 0.  0.
        -11    1    3    3    0    0  0.22124948154E+02 -0.87136659009E+01 -0.90504587362E+01  0.25443115136E+02  0.51100000000E-03 0.  1.
         11    1    3    3    0    0 -0.22124948154E+02  0.87136659009E+01  0.10112809899E+03  0.10388615745E+03  0.51100000000E-03 0. -1.
<mgrwt>
<rscale>  0 0.90817228E+02</rscale>
<asrwt>0</asrwt>
<pdfrwt beam="1">  1        2 0.17031301E-01 0.90817228E+02</pdfrwt>
<pdfrwt beam="2">  1       -2 0.28655102E-02 0.90817228E+02</pdfrwt>
<totfact> 0.12796871E+05</totfact>
</mgrwt>
</event>
<event>
 5    1  0.2799021E+000  0.8981805E+02  0.7818608E-02  0.1303293E+00
          2   -1    0    0  501    0  0.00000000000E+00  0.00000000000E+00  0.93850744496E+01  0.93850748097E+01  0.26000000000E-02 0. -1.
         -2   -1    0    0    0  501 -0.00000000000E+00 -0.00000000000E+00 -0.21489658962E+03  0.21489658963E+03  0.26000000000E-02 0.  1.
         23    2    1    2    0    0  0.00000000000E+00  0.00000000000E+00 -0.20551151517E+03  0.22428166444E+03  0.89818050183E+02 0.  0.
        -11    1    3    3    0    0 -0.25848566687E+02  0.35966991975E+02 -0.12128251573E+03  0.12911708459E+03  0.51100000000E-03 0.  1.
         11    1    3    3    0    0  0.25848566687E+02 -0.35966991975E+02 -0.84228999437E+02  0.95164579850E+02  0.51100000000E-03 0. -1.
<mgrwt>
<rscale>  0 0.89818050E+02</rscale>
<asrwt>0</asrwt>
<pdfrwt beam="1">  1        2 0.14438578E-02 0.89818050E+02</pdfrwt>
<pdfrwt beam="2">  1       -2 0.33061010E-01 0.89818050E+02</pdfrwt>
<totfact> 0.62729506E+04</totfact>
</mgrwt>
</event>
<event>
 5    1  0.2799021E+000  0.9012679E+02  0.7818608E-02  0.1302545E+00
         -2   -1    0    0    0  501 -0.00000000000E+00  0.00000000000E+00  0.29534750900E+02  0.29534751014E+02  0.26000000000E-02 0.  1.
          2   -1    0    0  501    0  0.00000000000E+00 -0.00000000000E+00 -0.68756619901E+02  0.68756619950E+02  0.26000000000E-02 0. -1.
         23    2    1    2    0    0  0.00000000000E+00  0.00000000000E+00 -0.39221869002E+02  0.98291370965E+02  0.90126791789E+02 0.  0.
        -11    1    3    3    0    0 -0.36078227678E+02 -0.66151879602E+01  0.89390022180E+01  0.37753211586E+02  0.51100000000E-03 0.  1.
         11    1    3    3    0    0  0.36078227678E+02  0.66151879602E+01 -0.48160871220E+02  0.60538159379E+02  0.51100000000E-03 0. -1.
<mgrwt>
<rscale>  0 0.90126792E+02</rscale>
<asrwt>0</asrwt>
<pdfrwt beam="2">  1        2 0.10577941E-01 0.90126792E+02</pdfrwt>
<pdfrwt beam="1">  1       -2 0.45438079E-02 0.90126792E+02</pdfrwt>
<totfact> 0.11369536E+05</totfact>
</mgrwt>
</event>
<event>
 5    1  0.2799021E+000  0.8963251E+02  0.7818608E-02  0.1303744E+00
         -2   -1    0    0    0  501 -0.00000000000E+00  0.00000000000E+00  0.12193985954E+03  0.12193985957E+03  0.26000000000E-02 0. -1.
          2   -1    0    0  501    0  0.00000000000E+00 -0.00000000000E+00 -0.16471208191E+02  0.16471208396E+02  0.26000000000E-02 0.  1.
         23    2    1    2    0    0  0.00000000000E+00  0.00000000000E+00  0.10546865135E+03  0.13841106796E+03  0.89632512614E+02 0.  0.
        -11    1    3    3    0    0 -0.19531608408E+02 -0.40197734307E+02  0.47576756382E+02  0.65275487884E+02  0.51100000000E-03 0. -1.
         11    1    3    3    0    0  0.19531608408E+02  0.40197734307E+02  0.57891894964E+02  0.73135580077E+02  0.51100000000E-03 0.  1.
<mgrwt>
<rscale>  0 0.89632513E+02</rscale>
<asrwt>0</asrwt>
<pdfrwt beam="2">  1        2 0.25340320E-02 0.89632513E+02</pdfrwt>
<pdfrwt beam="1">  1       -2 0.18759979E-01 0.89632513E+02</pdfrwt>
<totfact> 0.78311016E+04</totfact>
</mgrwt>
</event>
<event>
 5    1  0.2799021E+000  0.9016002E+02  0.7818608E-02  0.1302465E+00
         -2   -1    0    0    0  501 -0.00000000000E+00  0.00000000000E+00  0.10510912993E+02  0.10510913315E+02  0.26000000000E-02 0. -1.
          2   -1    0    0  501    0  0.00000000000E+00 -0.00000000000E+00 -0.19334262233E+03  0.19334262235E+03  0.26000000000E-02 0.  1.
         23    2    1    2    0    0  0.00000000000E+00  0.00000000000E+00 -0.18283170934E+03  0.20385353567E+03  0.90160024751E+02 0.  0.
        -11    1    3    3    0    0 -0.14205903303E+02 -0.42771558525E+02 -0.93669636133E+02  0.10394813438E+03  0.51100000000E-03 0. -1.
         11    1    3    3    0    0  0.14205903303E+02  0.42771558525E+02 -0.89162073208E+02  0.99905401287E+02  0.51100000000E-03 0.  1.
<mgrwt>
<rscale>  0 0.90160025E+02</rscale>
<asrwt>0</asrwt>
<pdfrwt beam="2">  1        2 0.29745016E-01 0.90160025E+02</pdfrwt>
<pdfrwt beam="1">  1       -2 0.16170637E-02 0.90160025E+02</pdfrwt>
<totfact> 0.15748478E+05</totfact>
</mgrwt>
</event>
<event>
 4    1  0.2799021E+000  0.2205090E+02  0.7818608E-02  0.1707373E+00
         -2   -1    0    0    0  501 -0.00000000000E+00  0.00000000000E+00  0.55053384149E+02  0.55053384210E+02  0.26000000000E-02 0. -1.
          2   -1    0    0  501    0  0.00000000000E+00 -0.00000000000E+00 -0.22080485506E+01  0.22080500814E+01  0.26000000000E-02 0.  1.
        -11    1    1    2    0    0  0.14027475583E+01 -0.10935461541E+02  0.26182264148E+02  0.28408853831E+02  0.51100000000E-03 0. -1.
         11    1    1    2    0    0 -0.14027475583E+01  0.10935461541E+02  0.26663071450E+02  0.28852580460E+02  0.51100000000E-03 0.  1.
<mgrwt>
<rscale>  0 0.22050904E+02</rscale>
<asrwt>0</asrwt>
<pdfrwt beam="2">  1        2 0.33969992E-03 0.22050904E+02</pdfrwt>
<pdfrwt beam="1">  1       -2 0.84697510E-02 0.22050904E+02</pdfrwt>
<totfact> 0.26947964E+06</totfact>
</mgrwt>
</event>
<event>
 5    1  0.2799021E+000  0.9095835E+02  0.7818608E-02  0.1300547E+00
          2   -1    0    0  501    0  0.00000000000E+00  0.00000000000E+00  0.65500073574E+01  0.65500078735E+01  0.26000000000E-02 0. -1.
         -2   -1    0    0    0  501 -0.00000000000E+00 -0.00000000000E+00 -0.31577910224E+03  0.31577910225E+03  0.26000000000E-02 0.  1.
         23    2    1    2    0    0  0.00000000000E+00  0.00000000000E+00 -0.30922909488E+03  0.32232911012E+03  0.90958353720E+02 0.  0.
        -11    1    3    3    0    0 -0.44958250417E+02 -0.93774078687E+00 -0.17870959337E+03  0.18428033645E+03  0.51100000000E-03 0. -1.
         11    1    3    3    0    0  0.44958250417E+02  0.93774078687E+00 -0.13051950150E+03  0.13804877367E+03  0.51100000000E-03 0.  1.
<mgrwt>
<rscale>  0 0.90958354E+02</rscale>
<asrwt>0</asrwt>
<pdfrwt beam="1">  1        2 0.10076937E-02 0.90958354E+02</pdfrwt>
<pdfrwt beam="2">  1       -2 0.48581388E-01 0.90958354E+02</pdfrwt>
<totfact> 0.49835283E+04</totfact>
</mgrwt>
</event>
<event>
 5    1  0.2799021E+000  0.9168199E+02  0.7818608E-02  0.1298829E+00
          2   -1    0    0  501    0  0.00000000000E+00  0.00000000000E+00  0.10012470394E+02  0.10012470732E+02  0.26000000000E-02 0. -1.
         -2   -1    0    0    0  501 -0.00000000000E+00 -0.00000000000E+00 -0.20987796029E+03  0.20987796030E+03  0.26000000000E-02 0.  1.
         23    2    1    2    0    0  0.00000000000E+00  0.00000000000E+00 -0.19986548989E+03  0.21989043103E+03  0.91681991745E+02 0.  0.
        -11    1    3    3    0    0 -0.31311847628E+02 -0.33389826565E+02 -0.94016615342E+02  0.10456785491E+03  0.51100000000E-03 0.  1.
         11    1    3    3    0    0  0.31311847628E+02  0.33389826565E+02 -0.10584887455E+03  0.11532257612E+03  0.51100000000E-03 0. -1.
<mgrwt>
<rscale>  0 0.91681992E+02</rscale>
<asrwt>0</asrwt>
<pdfrwt beam="1">  1        2 0.15403803E-02 0.91681992E+02</pdfrwt>
<pdfrwt beam="2">  1       -2 0.32288914E-01 0.91681992E+02</pdfrwt>
<totfact> 0.60155888E+04</totfact>
</mgrwt>
</event>
<event>
 5    1  0.2799021E+000  0.1015201E+03  0.7818608E-02  0.1277132E+00
         -2   -1    0    0    0  501 -0.00000000000E+00  0.00000000000E+00  0.11501971146E+02  0.11501971440E+02  0.26000000000E-02 0.  1.
          2   -1    0    0  501    0  0.00000000000E+00 -0.00000000000E+00 -0.22401212340E+03  0.22401212341E+03  0.26000000000E-02 0. -1.
         23    2    1    2    0    0  0.00000000000E+00  0.00000000000E+00 -0.21251015225E+03  0.23551409485E+03  0.10152006730E+03 0.  0.
        -11    1    3    3    0    0 -0.26440378821E+02  0.35418321017E+02 -0.16416052843E+03  0.17000655925E+03  0.51100000000E-03 0. -1.
         11    1    3    3    0    0  0.26440378821E+02 -0.35418321017E+02 -0.48349623828E+02  0.65507535601E+02  0.51100000000E-03 0.  1.
<mgrwt>
<rscale>  0 0.10152007E+03</rscale>
<asrwt>0</asrwt>
<pdfrwt beam="2">  1        2 0.34463400E-01 0.10152007E+03</pdfrwt>
<pdfrwt beam="1">  1       -2 0.17695342E-02 0.10152007E+03</pdfrwt>
<totfact> 0.12056432E+05</totfact>
</mgrwt>
</event>
<event>
 5    1  0.2799021E+000  0.9625576E+02  0.7818608E-02  0.1288373E+00
          2   -1    0    0  501    0  0.00000000000E+00  0.00000000000E+00  0.13728846010E+02  0.13728846256E+02  0.26000000000E-02 0.  1.
         -2   -1    0    0    0  501 -0.00000000000E+00 -0.00000000000E+00 -0.16871722309E+03  0.16871722311E+03  0.26000000000E-02 0. -1.
         23    2    1    2    0    0  0.00000000000E+00  0.00000000000E+00 -0.15498837708E+03  0.18244606937E+03  0.96255759293E+02 0.  0.
        -11    1    3    3    0    0 -0.45617961408E+02  0.57301505403E+00 -0.10654848375E+03  0.11590472872E+03  0.51100000000E-03 0. -1.
         11    1    3    3    0    0  0.45617961408E+02 -0.57301505403E+00 -0.48439893330E+02  0.66541340649E+02  0.51100000000E-03 0.  1.
<mgrwt>
<rscale>  0 0.96255759E+02</rscale>
<asrwt>0</asrwt>
<pdfrwt beam="1">  1        2 0.21121303E-02 0.96255759E+02</pdfrwt>
<pdfrwt beam="2">  1       -2 0.25956494E-01 0.96255759E+02</pdfrwt>
<totfact> 0.58220849E+04</totfact>
</mgrwt>
</event>
<event>
 5    1  0.2799021E+000  0.1047154E+03  0.7818608E-02  0.1270681E+00
          2   -1    0    0  501    0  0.00000000000E+00  0.00000000000E+00  0.47424136691E+02  0.47424136763E+02  0.26000000000E-02 0. -1.
         -2   -1    0    0    0  501 -0.00000000000E+00 -0.00000000000E+00 -0.57804479441E+02  0.57804479499E+02  0.26000000000E-02 0.  1.
         23    2    1    2    0    0  0.00000000000E+00  0.00000000000E+00 -0.10380342750E+02  0.10522861626E+03  0.10471537693E+03 0.  0.
        -11    1    3    3    0    0  0.12001914175E+01 -0.27044857298E+02 -0.50225702888E+02  0.57056866340E+02  0.51100000000E-03 0.  1.
         11    1    3    3    0    0 -0.12001914175E+01  0.27044857298E+02  0.39845360138E+02  0.48171749922E+02  0.51100000000E-03 0. -1.
<mgrwt>
<rscale>  0 0.10471538E+03</rscale>
<asrwt>0</asrwt>
<pdfrwt beam="1">  1        2 0.72960211E-02 0.10471538E+03</pdfrwt>
<pdfrwt beam="2">  1       -2 0.88929968E-02 0.10471538E+03</pdfrwt>
<totfact> 0.66677677E+04</totfact>
</mgrwt>
</event>
<event>
 5    1  0.2799021E+000  0.9003577E+02  0.7818608E-02  0.1302765E+00
         -2   -1    0    0    0  501 -0.00000000000E+00  0.00000000000E+00  0.47793996761E+01  0.47794003833E+01  0.26000000000E-02 0.  1.
          2   -1    0    0  501    0  0.00000000000E+00 -0.00000000000E+00 -0.42403017179E+03  0.42403017180E+03  0.26000000000E-02 0. -1.
         23    2    1    2    0    0  0.00000000000E+00  0.00000000000E+00 -0.41925077212E+03  0.42880957219E+03  0.90035766650E+02 0.  0.
        -11    1    3    3    0    0  0.68761415514E+01  0.43660308045E+02 -0.16890368528E+03  0.17459083230E+03  0.51100000000E-03 0.  1.
         11    1    3    3    0    0 -0.68761415514E+01 -0.43660308045E+02 -0.25034708683E+03  0.25421873988E+03  0.51100000000E-03 0. -1.
<mgrwt>
<rscale>  0 0.90035767E+02</rscale>
<asrwt>0</asrwt>
<pdfrwt beam="2">  1        2 0.65235381E-01 0.90035767E+02</pdfrwt>
<pdfrwt beam="1">  1       -2 0.73529265E-03 0.90035767E+02</pdfrwt>
<totfact> 0.21070939E+05</totfact>
</mgrwt>
</event>
<event>
 5    1  0.2799021E+000  0.9188114E+02  0.7818608E-02  0.1298359E+00
         -2   -1    0    0    0  501 -0.00000000000E+00  0.00000000000E+00  0.28074298313E+02  0.28074298434E+02  0.26000000000E-02 0. -1.
          2   -1    0    0  501    0  0.00000000000E+00 -0.00000000000E+00 -0.75176796377E+02  0.75176796422E+02  0.26000000000E-02 0.  1.
         23    2    1    2    0    0  0.00000000000E+00  0.00000000000E+00 -0.47102498064E+02  0.10325109486E+03  0.91881136612E+02 0.  0.
        -11    1    3    3    0    0  0.43872465226E+02 -0.25178372249E+01 -0.38602870448E+02  0.58492002158E+02  0.51100000000E-03 0.  1.
         11    1    3    3    0    0 -0.43872465226E+02  0.25178372249E+01 -0.84996276156E+01  0.44759092698E+02  0.51100000000E-03 0. -1.
<mgrwt>
<rscale>  0 0.91881137E+02</rscale>
<asrwt>0</asrwt>
<pdfrwt beam="2">  1        2 0.11565661E-01 0.91881137E+02</pdfrwt>
<pdfrwt beam="1">  1       -2 0.43191229E-02 0.91881137E+02</pdfrwt>
<totfact> 0.11044783E+05</totfact>
</mgrwt>
</event>
<event>
 5    1  0.2799021E+000  0.9306014E+02  0.7818608E-02  0.1295606E+00
          2   -1    0    0  501    0  0.00000000000E+00  0.00000000000E+00  0.19269530474E+03  0.19269530476E+03  0.26000000000E-02 0. -1.
         -2   -1    0    0    0  501 -0.00000000000E+00 -0.00000000000E+00 -0.11235600343E+02  0.11235600643E+02  0.26000000000E-02 0.  1.
         23    2    1    2    0    0  0.00000000000E+00  0.00000000000E+00  0.18145970440E+03  0.20393090540E+03  0.93060141079E+02 0.  0.
        -11    1    3    3    0    0 -0.43395848950E+02  0.15887567862E+02  0.78841101944E+02  0.91386727015E+02  0.51100000000E-03 0.  1.
         11    1    3    3    0    0  0.43395848950E+02 -0.15887567862E+02  0.10261860245E+03  0.11254417838E+03  0.51100000000E-03 0. -1.
<mgrwt>
<rscale>  0 0.93060141E+02</rscale>
<asrwt>0</asrwt>
<pdfrwt beam="1">  1        2 0.29645431E-01 0.93060141E+02</pdfrwt>
<pdfrwt beam="2">  1       -2 0.17285540E-02 0.93060141E+02</pdfrwt>
<totfact> 0.14442108E+05</totfact>
</mgrwt>
</event>
<event>
 5    1  0.2799021E+000  0.9385912E+02  0.7818608E-02  0.1293767E+00
         -2   -1    0    0    0  501 -0.00000000000E+00  0.00000000000E+00  0.29513455611E+02  0.29513455725E+02  0.26000000000E-02 0. -1.
          2   -1    0    0  501    0  0.00000000000E+00 -0.00000000000E+00 -0.74623026041E+02  0.74623026087E+02  0.26000000000E-02 0.  1.
         23    2    1    2    0    0  0.00000000000E+00  0.00000000000E+00 -0.45109570431E+02  0.10413648181E+03  0.93859115166E+02 0.  0.
        -11    1    3    3    0    0  0.37009502872E+02 -0.19887976157E+02  0.64270124746E+00  0.42019614035E+02  0.51100000000E-03 0. -1.
         11    1    3    3    0    0 -0.37009502872E+02  0.19887976157E+02 -0.45752271678E+02  0.62116867777E+02  0.51100000000E-03 0.  1.
<mgrwt>
<rscale>  0 0.93859115E+02</rscale>
<asrwt>0</asrwt>
<pdfrwt beam="2">  1        2 0.11480466E-01 0.93859115E+02</pdfrwt>
<pdfrwt beam="1">  1       -2 0.45405317E-02 0.93859115E+02</pdfrwt>
<totfact> 0.10383695E+05</totfact>
</mgrwt>
</event>
<event>
 5    1  0.2799021E+000  0.9250137E+02  0.7818608E-02  0.1296905E+00
          2   -1    0    0  501    0  0.00000000000E+00  0.00000000000E+00  0.15620124793E+03  0.15620124795E+03  0.26000000000E-02 0. -1.
         -2   -1    0    0    0  501 -0.00000000000E+00 -0.00000000000E+00 -0.13694677965E+02  0.13694678212E+02  0.26000000000E-02 0.  1.
         23    2    1    2    0    0  0.00000000000E+00  0.00000000000E+00  0.14250656996E+03  0.16989592616E+03  0.92501368876E+02 0.  0.
        -11    1    3    3    0    0 -0.13543027352E+02 -0.42124362883E+02  0.95980439332E+02  0.10568878972E+03  0.51100000000E-03 0.  1.
         11    1    3    3    0    0  0.13543027352E+02  0.42124362883E+02  0.46526130633E+02  0.64207136442E+02  0.51100000000E-03 0. -1.
<mgrwt>
<rscale>  0 0.92501369E+02</rscale>
<asrwt>0</asrwt>
<pdfrwt beam="1">  1        2 0.24030961E-01 0.92501369E+02</pdfrwt>
<pdfrwt beam="2">  1       -2 0.21068735E-02 0.92501369E+02</pdfrwt>
<totfact> 0.13631398E+05</totfact>
</mgrwt>
</event>
<event>
 5    1  0.2799021E+000  0.9233860E+02  0.7818608E-02  0.1297285E+00
          2   -1    0    0  501    0  0.00000000000E+00  0.00000000000E+00  0.78618681477E+02  0.78618681520E+02  0.26000000000E-02 0. -1.
         -2   -1    0    0    0  501 -0.00000000000E+00 -0.00000000000E+00 -0.27113199856E+02  0.27113199981E+02  0.26000000000E-02 0.  1.
         23    2    1    2    0    0  0.00000000000E+00  0.00000000000E+00  0.51505481621E+02  0.10573188150E+03  0.92338595011E+02 0.  0.
        -11    1    3    3    0    0  0.13644375888E+02 -0.17256050311E+02  0.72231764180E+02  0.75507403760E+02  0.51100000000E-03 0. -1.
         11    1    3    3    0    0 -0.13644375888E+02  0.17256050311E+02 -0.20726282559E+02  0.30224477741E+02  0.51100000000E-03 0.  1.
<mgrwt>
<rscale>  0 0.92338595E+02</rscale>
<asrwt>0</asrwt>
<pdfrwt beam="1">  1        2 0.12095182E-01 0.92338595E+02</pdfrwt>
<pdfrwt beam="2">  1       -2 0.41712615E-02 0.92338595E+02</pdfrwt>
<totfact> 0.11032381E+05</totfact>
</mgrwt>
</event>
<event>
 5    1  0.2799021E+000  0.7937631E+02  0.7818608E-02  0.1330831E+00
         -2   -1    0    0    0  501 -0.00000000000E+00  0.00000000000E+00  0.52661286673E+02  0.52661286737E+02  0.26000000000E-02 0.  1.
          2   -1    0    0  501    0  0.00000000000E+00 -0.00000000000E+00 -0.29910960992E+02  0.29910961105E+02  0.26000000000E-02 0. -1.
         23    2    1    2    0    0  0.00000000000E+00  0.00000000000E+00  0.22750325681E+02  0.82572247842E+02  0.79376311297E+02 0.  0.
        -11    1    3    3    0    0 -0.17994072027E+02  0.35160823399E+02  0.73355694879E+01  0.40173134184E+02  0.51100000000E-03 0. -1.
         11    1    3    3    0    0  0.17994072027E+02 -0.35160823399E+02  0.15414756193E+02  0.42399113658E+02  0.51100000000E-03 0.  1.
<mgrwt>
<rscale>  0 0.79376311E+02</rscale>
<asrwt>0</asrwt>
<pdfrwt beam="2">  1        2 0.46016864E-02 0.79376311E+02</pdfrwt>
<pdfrwt beam="1">  1       -2 0.81017363E-02 0.79376311E+02</pdfrwt>
<totfact> 0.13244913E+05</totfact>
</mgrwt>
</event>
<event>
 5    1  0.2799021E+000  0.9107596E+02  0.7818608E-02  0.1300267E+00
          2   -1    0    0  501    0  0.00000000000E+00  0.00000000000E+00  0.20921371374E+03  0.20921371376E+03  0.26000000000E-02 0. -1.
         -2   -1    0    0    0  501 -0.00000000000E+00 -0.00000000000E+00 -0.99119100863E+01  0.99119104273E+01  0.26000000000E-02 0.  1.
         23    2    1    2    0    0  0.00000000000E+00  0.00000000000E+00  0.19930180366E+03  0.21912562419E+03  0.91075958597E+02 0.  0.
        -11    1    3    3    0    0 -0.30403158735E+02  0.28231356157E+02  0.14481299938E+03  0.15063919251E+03  0.51100000000E-03 0. -1.
         11    1    3    3    0    0  0.30403158735E+02 -0.28231356157E+02  0.54488804282E+02  0.68486431677E+02  0.51100000000E-03 0.  1.
<mgrwt>
<rscale>  0 0.91075959E+02</rscale>
<asrwt>0</asrwt>
<pdfrwt beam="1">  1        2 0.32186724E-01 0.91075959E+02</pdfrwt>
<pdfrwt beam="2">  1       -2 0.15249093E-02 0.91075959E+02</pdfrwt>
<totfact> 0.15769702E+05</totfact>
</mgrwt>
</event>
<event>
 5    1  0.2799021E+000  0.9271521E+02  0.7818608E-02  0.1296407E+00
          2   -1    0    0  501    0  0.00000000000E+00  0.00000000000E+00  0.72474681482E+02  0.72474681529E+02  0.26000000000E-02 0. -1.
         -2   -1    0    0    0  501 -0.00000000000E+00 -0.00000000000E+00 -0.29652116346E+02  0.29652116460E+02  0.26000000000E-02 0.  1.
         23    2    1    2    0    0  0.00000000000E+00  0.00000000000E+00  0.42822565137E+02  0.10212679799E+03  0.92715213329E+02 0.  0.
        -11    1    3    3    0    0 -0.28048538266E+02  0.12132114918E+02 -0.16985790183E+02  0.34963206084E+02  0.51100000000E-03 0.  1.
         11    1    3    3    0    0  0.28048538266E+02 -0.12132114918E+02  0.59808355320E+02  0.67163591905E+02  0.51100000000E-03 0. -1.
<mgrwt>
<rscale>  0 0.92715213E+02</rscale>
<asrwt>0</asrwt>
<pdfrwt beam="1">  1        2 0.11149951E-01 0.92715213E+02</pdfrwt>
<pdfrwt beam="2">  1       -2 0.45618641E-02 0.92715213E+02</pdfrwt>
<totfact> 0.10658287E+05</totfact>
</mgrwt>
</event>
<event>
 5    1  0.2799021E+000  0.8945506E+02  0.7818608E-02  0.1304177E+00
         -2   -1    0    0    0  501 -0.00000000000E+00  0.00000000000E+00  0.26672383924E+02  0.26672384051E+02  0.26000000000E-02 0.  1.
          2   -1    0    0  501    0  0.00000000000E+00 -0.00000000000E+00 -0.75004619215E+02  0.75004619260E+02  0.26000000000E-02 0. -1.
         23    2    1    2    0    0  0.00000000000E+00  0.00000000000E+00 -0.48332235291E+02  0.10167700331E+03  0.89455061534E+02 0.  0.
        -11    1    3    3    0    0 -0.12284395044E+02 -0.19738772142E+02 -0.67596953878E+02  0.71483380313E+02  0.51100000000E-03 0. -1.
         11    1    3    3    0    0  0.12284395044E+02  0.19738772142E+02  0.19264718586E+02  0.30193622998E+02  0.51100000000E-03 0.  1.
<mgrwt>
<rscale>  0 0.89455062E+02</rscale>
<asrwt>0</asrwt>
<pdfrwt beam="2">  1        2 0.11539172E-01 0.89455062E+02</pdfrwt>
<pdfrwt beam="1">  1       -2 0.41034437E-02 0.89455062E+02</pdfrwt>
<totfact> 0.11891466E+05</totfact>
</mgrwt>
</event>
<event>
 5    1  0.2799021E+000  0.9246893E+02  0.7818608E-02  0.1296981E+00
         -2   -1    0    0    0  501 -0.00000000000E+00  0.00000000000E+00  0.12505941349E+02  0.12505941620E+02  0.26000000000E-02 0.  1.
          2   -1    0    0  501    0  0.00000000000E+00 -0.00000000000E+00 -0.17092879754E+03  0.17092879756E+03  0.26000000000E-02 0. -1.
         23    2    1    2    0    0  0.00000000000E+00  0.00000000000E+00 -0.15842285619E+03  0.18343473918E+03  0.92468925452E+02 0.  0.
        -11    1    3    3    0    0  0.93966919733E+00 -0.44903561802E+02 -0.57443257739E+02  0.72917355278E+02  0.51100000000E-03 0.  1.
         11    1    3    3    0    0 -0.93966919733E+00  0.44903561802E+02 -0.10097959845E+03  0.11051738390E+03  0.51100000000E-03 0. -1.
<mgrwt>
<rscale>  0 0.92468925E+02</rscale>
<asrwt>0</asrwt>
<pdfrwt beam="2">  1        2 0.26296737E-01 0.92468925E+02</pdfrwt>
<pdfrwt beam="1">  1       -2 0.19239911E-02 0.92468925E+02</pdfrwt>
<totfact> 0.14078837E+05</totfact>
</mgrwt>
</event>
<event>
 5    1  0.2799021E+000  0.9053043E+02  0.7818608E-02  0.1301572E+00
         -2   -1    0    0    0  501 -0.00000000000E+00  0.00000000000E+00  0.16268563153E+02  0.16268563361E+02  0.26000000000E-02 0.  1.
          2   -1    0    0  501    0  0.00000000000E+00 -0.00000000000E+00 -0.12594472910E+03  0.12594472912E+03  0.26000000000E-02 0. -1.
         23    2    1    2    0    0  0.00000000000E+00  0.00000000000E+00 -0.10967616595E+03  0.14221329249E+03  0.90530432360E+02 0.  0.
        -11    1    3    3    0    0  0.36485972067E+02 -0.14506900121E+02 -0.19457710721E+02  0.43820986017E+02  0.51100000000E-03 0.  1.
         11    1    3    3    0    0 -0.36485972067E+02  0.14506900121E+02 -0.90218455224E+02  0.98392306468E+02  0.51100000000E-03 0. -1.
<mgrwt>
<rscale>  0 0.90530432E+02</rscale>
<asrwt>0</asrwt>
<pdfrwt beam="2">  1        2 0.19376112E-01 0.90530432E+02</pdfrwt>
<pdfrwt beam="1">  1       -2 0.25028560E-02 0.90530432E+02</pdfrwt>
<totfact> 0.13449176E+05</totfact>
</mgrwt>
</event>
<event>
 5    1  0.2799021E+000  0.9013045E+02  0.7818608E-02  0.1302536E+00
          2   -1    0    0  501    0  0.00000000000E+00  0.00000000000E+00  0.79974702755E+02  0.79974702797E+02  0.26000000000E-02 0. -1.
         -2   -1    0    0    0  501 -0.00000000000E+00 -0.00000000000E+00 -0.25393961939E+02  0.25393962072E+02  0.26000000000E-02 0.  1.
         23    2    1    2    0    0  0.00000000000E+00  0.00000000000E+00  0.54580740816E+02  0.10536866487E+03  0.90130451393E+02 0.  0.
        -11    1    3    3    0    0 -0.18068127576E+02 -0.28641650178E+01 -0.20857849877E+02  0.27743658323E+02  0.51100000000E-03 0.  1.
         11    1    3    3    0    0  0.18068127576E+02  0.28641650178E+01  0.75438590693E+02  0.77625006547E+02  0.51100000000E-03 0. -1.
<mgrwt>
<rscale>  0 0.90130451E+02</rscale>
<asrwt>0</asrwt>
<pdfrwt beam="1">  1        2 0.12303800E-01 0.90130451E+02</pdfrwt>
<pdfrwt beam="2">  1       -2 0.39067634E-02 0.90130451E+02</pdfrwt>
<totfact> 0.11858321E+05</totfact>
</mgrwt>
</event>
<event>
 5    1  0.2799021E+000  0.9118001E+02  0.7818608E-02  0.1300019E+00
         -2   -1    0    0    0  501 -0.00000000000E+00  0.00000000000E+00  0.52608643674E+02  0.52608643739E+02  0.26000000000E-02 0.  1.
          2   -1    0    0  501    0  0.00000000000E+00 -0.00000000000E+00 -0.39507735588E+02  0.39507735674E+02  0.26000000000E-02 0. -1.
         23    2    1    2    0    0  0.00000000000E+00  0.00000000000E+00  0.13100908086E+02  0.92116379413E+02  0.91180006380E+02 0.  0.
        -11    1    3    3    0    0 -0.14422062402E+02 -0.39482593999E+02  0.24383278356E+02  0.48594396554E+02  0.51100000000E-03 0.  1.
         11    1    3    3    0    0  0.14422062402E+02  0.39482593999E+02 -0.11282370270E+02  0.43521982859E+02  0.51100000000E-03 0. -1.
<mgrwt>
<rscale>  0 0.91180006E+02</rscale>
<asrwt>0</asrwt>
<pdfrwt beam="2">  1        2 0.60781132E-02 0.91180006E+02</pdfrwt>
<pdfrwt beam="1">  1       -2 0.80936375E-02 0.91180006E+02</pdfrwt>
<totfact> 0.95073553E+04</totfact>
</mgrwt>
</event>
<event>
 5    1  0.2799021E+000  0.8941107E+02  0.7818608E-02  0.1304284E+00
         -2   -1    0    0    0  501 -0.00000000000E+00  0.00000000000E+00  0.46608719202E+02  0.46608719274E+02  0.26000000000E-02 0.  1.
          2   -1    0    0  501    0  0.00000000000E+00 -0.00000000000E+00 -0.42880064544E+02  0.42880064623E+02  0.26000000000E-02 0. -1.
         23    2    1    2    0    0  0.00000000000E+00  0.00000000000E+00  0.37286546578E+01  0.89488783897E+02  0.89411070779E+02 0.  0.
        -11    1    3    3    0    0  0.41960453421E+02  0.64234792429E+01 -0.12170847731E+02  0.44159599994E+02  0.51100000000E-03 0.  1.
         11    1    3    3    0    0 -0.41960453421E+02 -0.64234792429E+01  0.15899502389E+02  0.45329183903E+02  0.51100000000E-03 0. -1.
<mgrwt>
<rscale>  0 0.89411071E+02</rscale>
<asrwt>0</asrwt>
<pdfrwt beam="2">  1        2 0.65969330E-02 0.89411071E+02</pdfrwt>
<pdfrwt beam="1">  1       -2 0.71705722E-02 0.89411071E+02</pdfrwt>
<totfact> 0.10273514E+05</totfact>
</mgrwt>
</event>
<event>
 5    1  0.2799021E+000  0.8525360E+02  0.7818608E-02  0.1314771E+00
         -2   -1    0    0    0  501 -0.00000000000E+00  0.00000000000E+00  0.90390169570E+01  0.90390173309E+01  0.26000000000E-02 0. -1.
          2   -1    0    0  501    0  0.00000000000E+00 -0.00000000000E+00 -0.20102232958E+03  0.20102232960E+03  0.26000000000E-02 0.  1.
         23    2    1    2    0    0  0.00000000000E+00  0.00000000000E+00 -0.19198331263E+03  0.21006134693E+03  0.85253604894E+02 0.  0.
        -11    1    3    3    0    0 -0.39952125482E+00  0.41739104943E+02 -0.11729197398E+03  0.12449787010E+03  0.51100000000E-03 0.  1.
         11    1    3    3    0    0  0.39952125482E+00 -0.41739104943E+02 -0.74691338646E+02  0.85563476832E+02  0.51100000000E-03 0. -1.
<mgrwt>
<rscale>  0 0.85253605E+02</rscale>
<asrwt>0</asrwt>
<pdfrwt beam="2">  1        2 0.30926509E-01 0.85253605E+02</pdfrwt>
<pdfrwt beam="1">  1       -2 0.13906182E-02 0.85253605E+02</pdfrwt>
<totfact> 0.18552579E+05</totfact>
</mgrwt>
</event>
<event>
 5    1  0.2799021E+000  0.9243656E+02  0.7818608E-02  0.1297056E+00
          2   -1    0    0  501    0  0.00000000000E+00  0.00000000000E+00  0.24104246177E+03  0.24104246179E+03  0.26000000000E-02 0. -1.
         -2   -1    0    0    0  501 -0.00000000000E+00 -0.00000000000E+00 -0.88620461417E+01  0.88620465231E+01  0.26000000000E-02 0.  1.
         23    2    1    2    0    0  0.00000000000E+00  0.00000000000E+00  0.23218041563E+03  0.24990450831E+03  0.92436561332E+02 0.  0.
        -11    1    3    3    0    0  0.28161759703E+02 -0.22421805242E+02  0.37720287407E+02  0.52140599750E+02  0.51100000000E-03 0.  1.
         11    1    3    3    0    0 -0.28161759703E+02  0.22421805242E+02  0.19446012822E+03  0.19776390856E+03  0.51100000000E-03 0. -1.
<mgrwt>
<rscale>  0 0.92436561E+02</rscale>
<asrwt>0</asrwt>
<pdfrwt beam="1">  1        2 0.37083450E-01 0.92436561E+02</pdfrwt>
<pdfrwt beam="2">  1       -2 0.13633919E-02 0.92436561E+02</pdfrwt>
<totfact> 0.15962280E+05</totfact>
</mgrwt>
</event>
<event>
 5    1  0.2799021E+000  0.9138105E+02  0.7818608E-02  0.1299541E+00
          2   -1    0    0  501    0  0.00000000000E+00  0.00000000000E+00  0.87649235308E+01  0.87649239164E+01  0.26000000000E-02 0. -1.
         -2   -1    0    0    0  501 -0.00000000000E+00 -0.00000000000E+00 -0.23817936079E+03  0.23817936080E+03  0.26000000000E-02 0.  1.
         23    2    1    2    0    0  0.00000000000E+00  0.00000000000E+00 -0.22941443726E+03  0.24694428472E+03  0.91381046903E+02 0.  0.
        -11    1    3    3    0    0  0.15102048690E+02 -0.39884808899E+02 -0.15900891753E+03  0.16462899413E+03  0.51100000000E-03 0.  1.
         11    1    3    3    0    0 -0.15102048690E+02  0.39884808899E+02 -0.70405519726E+02  0.82315290583E+02  0.51100000000E-03 0. -1.
<mgrwt>
<rscale>  0 0.91381047E+02</rscale>
<asrwt>0</asrwt>
<pdfrwt beam="1">  1        2 0.13484500E-02 0.91381047E+02</pdfrwt>
<pdfrwt beam="2">  1       -2 0.36642974E-01 0.91381047E+02</pdfrwt>
<totfact> 0.57200661E+04</totfact>
</mgrwt>
</event>
<event>
 5    1  0.2799021E+000  0.8891063E+02  0.7818608E-02  0.1305511E+00
         -2   -1    0    0    0  501 -0.00000000000E+00  0.00000000000E+00  0.14794161930E+03  0.14794161932E+03  0.26000000000E-02 0.  1.
          2   -1    0    0  501    0  0.00000000000E+00 -0.00000000000E+00 -0.13358479969E+02  0.13358480222E+02  0.26000000000E-02 0. -1.
         23    2    1    2    0    0  0.00000000000E+00  0.00000000000E+00  0.13458313933E+03  0.16130009954E+03  0.88910633340E+02 0.  0.
        -11    1    3    3    0    0 -0.38639134203E+02 -0.18441797660E+02  0.45582500647E+02  0.62536764853E+02  0.51100000000E-03 0.  1.
         11    1    3    3    0    0  0.38639134203E+02  0.18441797660E+02  0.89000638684E+02  0.98763334691E+02  0.51100000000E-03 0. -1.
<mgrwt>
<rscale>  0 0.88910633E+02</rscale>
<asrwt>0</asrwt>
<pdfrwt beam="2">  1        2 0.20551507E-02 0.88910633E+02</pdfrwt>
<pdfrwt beam="1">  1       -2 0.22760250E-01 0.88910633E+02</pdfrwt>
<totfact> 0.74819796E+04</totfact>
</mgrwt>
</event>
<event>
 5    1  0.2799021E+000  0.1001064E+03  0.7818608E-02  0.1280072E+00
          2   -1    0    0  501    0  0.00000000000E+00  0.00000000000E+00  0.33184336401E+03  0.33184336402E+03  0.26000000000E-02 0. -1.
         -2   -1    0    0    0  501 -0.00000000000E+00 -0.00000000000E+00 -0.75497081970E+01  0.75497086447E+01  0.26000000000E-02 0.  1.
         23    2    1    2    0    0  0.00000000000E+00  0.00000000000E+00  0.32429365581E+03  0.33939307266E+03  0.10010635630E+03 0.  0.
        -11    1    3    3    0    0 -0.49169698176E+02 -0.53348941186E+01  0.13606107483E+03  0.14477132450E+03  0.51100000000E-03 0. -1.
         11    1    3    3    0    0  0.49169698176E+02  0.53348941186E+01  0.18823258098E+03  0.19462174816E+03  0.51100000000E-03 0.  1.
<mgrwt>
<rscale>  0 0.10010636E+03</rscale>
<asrwt>0</asrwt>
<pdfrwt beam="1">  1        2 0.51052822E-01 0.10010636E+03</pdfrwt>
<pdfrwt beam="2">  1       -2 0.11614937E-02 0.10010636E+03</pdfrwt>
<totfact> 0.14522346E+05</totfact>
</mgrwt>
</event>
<event>
 5    1  0.2799021E+000  0.9011138E+02  0.7818608E-02  0.1302582E+00
         -2   -1    0    0    0  501 -0.00000000000E+00  0.00000000000E+00  0.19133106783E+02  0.19133106959E+02  0.26000000000E-02 0.  1.
          2   -1    0    0  501    0  0.00000000000E+00 -0.00000000000E+00 -0.10609961365E+03  0.10609961368E+03  0.26000000000E-02 0. -1.
         23    2    1    2    0    0  0.00000000000E+00  0.00000000000E+00 -0.86966506863E+02  0.12523272064E+03  0.90111381091E+02 0.  0.
        -11    1    3    3    0    0  0.38503789730E+02 -0.22825012336E+02 -0.36330100704E+02  0.57648930859E+02  0.51100000000E-03 0. -1.
         11    1    3    3    0    0 -0.38503789730E+02  0.22825012336E+02 -0.50636406159E+02  0.67583789778E+02  0.51100000000E-03 0.  1.
<mgrwt>
<rscale>  0 0.90111381E+02</rscale>
<asrwt>0</asrwt>
<pdfrwt beam="2">  1        2 0.16323017E-01 0.90111381E+02</pdfrwt>
<pdfrwt beam="1">  1       -2 0.29435550E-02 0.90111381E+02</pdfrwt>
<totfact> 0.12901957E+05</totfact>
</mgrwt>
</event>
<event>
 5    1  0.2799021E+000  0.8993732E+02  0.7818608E-02  0.1303004E+00
          2   -1    0    0  501    0  0.00000000000E+00  0.00000000000E+00  0.34015111684E+02  0.34015111784E+02  0.26000000000E-02 0. -1.
         -2   -1    0    0    0  501 -0.00000000000E+00 -0.00000000000E+00 -0.59449475232E+02  0.59449475289E+02  0.26000000000E-02 0.  1.
         23    2    1    2    0    0  0.00000000000E+00  0.00000000000E+00 -0.25434363548E+02  0.93464587073E+02  0.89937323662E+02 0.  0.
        -11    1    3    3    0    0  0.38149708897E+02  0.39834760336E+01  0.11674869120E+02  0.40094525056E+02  0.51100000000E-03 0. -1.
         11    1    3    3    0    0 -0.38149708897E+02 -0.39834760336E+01 -0.37109232668E+02  0.53370062017E+02  0.51100000000E-03 0.  1.
<mgrwt>
<rscale>  0 0.89937324E+02</rscale>
<asrwt>0</asrwt>
<pdfrwt beam="1">  1        2 0.52330941E-02 0.89937324E+02</pdfrwt>
<pdfrwt beam="2">  1       -2 0.91460731E-02 0.89937324E+02</pdfrwt>
<totfact> 0.95192284E+04</totfact>
</mgrwt>
</event>
<event>
 5    1  0.2799021E+000  0.9217860E+02  0.7818608E-02  0.1297660E+00
         -2   -1    0    0    0  501 -0.00000000000E+00  0.00000000000E+00  0.24464960695E+02  0.24464960833E+02  0.26000000000E-02 0.  1.
          2   -1    0    0  501    0  0.00000000000E+00 -0.00000000000E+00 -0.86827184559E+02  0.86827184598E+02  0.26000000000E-02 0. -1.
         23    2    1    2    0    0  0.00000000000E+00  0.00000000000E+00 -0.62362223864E+02  0.11129214543E+03  0.92178602015E+02 0.  0.
        -11    1    3    3    0    0 -0.21956857524E+02 -0.28656962695E+02  0.34111646934E+01  0.36262393027E+02  0.51100000000E-03 0.  1.
         11    1    3    3    0    0  0.21956857524E+02  0.28656962695E+02 -0.65773388557E+02  0.75029752404E+02  0.51100000000E-03 0. -1.
<mgrwt>
<rscale>  0 0.92178602E+02</rscale>
<asrwt>0</asrwt>
<pdfrwt beam="2">  1        2 0.13358028E-01 0.92178602E+02</pdfrwt>
<pdfrwt beam="1">  1       -2 0.37638402E-02 0.92178602E+02</pdfrwt>
<totfact> 0.11409824E+05</totfact>
</mgrwt>
</event>
<event>
 5    1  0.2799021E+000  0.9020398E+02  0.7818608E-02  0.1302358E+00
         -2   -1    0    0    0  501 -0.00000000000E+00  0.00000000000E+00  0.18768533863E+03  0.18768533865E+03  0.26000000000E-02 0.  1.
          2   -1    0    0  501    0  0.00000000000E+00 -0.00000000000E+00 -0.10838295986E+02  0.10838296298E+02  0.26000000000E-02 0. -1.
         23    2    1    2    0    0  0.00000000000E+00  0.00000000000E+00  0.17684704265E+03  0.19852363495E+03  0.90203975193E+02 0.  0.
        -11    1    3    3    0    0  0.26817847142E+02  0.30399899760E+02  0.13193313078E+03  0.13802065725E+03  0.51100000000E-03 0. -1.
         11    1    3    3    0    0 -0.26817847142E+02 -0.30399899760E+02  0.44913911868E+02  0.60502977698E+02  0.51100000000E-03 0.  1.
<mgrwt>
<rscale>  0 0.90203975E+02</rscale>
<asrwt>0</asrwt>
<pdfrwt beam="2">  1        2 0.16674303E-02 0.90203975E+02</pdfrwt>
<pdfrwt beam="1">  1       -2 0.28874665E-01 0.90203975E+02</pdfrwt>
<totfact> 0.65797238E+04</totfact>
</mgrwt>
</event>
<event>
 5    1  0.2799021E+000  0.8916005E+02  0.7818608E-02  0.1304899E+00
         -2   -1    0    0    0  501 -0.00000000000E+00  0.00000000000E+00  0.76593597711E+01  0.76593602124E+01  0.26000000000E-02 0. -1.
          2   -1    0    0  501    0  0.00000000000E+00 -0.00000000000E+00 -0.25947059454E+03  0.25947059456E+03  0.26000000000E-02 0.  1.
         23    2    1    2    0    0  0.00000000000E+00  0.00000000000E+00 -0.25181123477E+03  0.26712995477E+03  0.89160051465E+02 0.  0.
        -11    1    3    3    0    0 -0.29251788556E+02  0.22938440029E+02 -0.19963210251E+03  0.20306357506E+03  0.51100000000E-03 0.  1.
         11    1    3    3    0    0  0.29251788556E+02 -0.22938440029E+02 -0.52179132265E+02  0.64066379708E+02  0.51100000000E-03 0. -1.
<mgrwt>
<rscale>  0 0.89160051E+02</rscale>
<asrwt>0</asrwt>
<pdfrwt beam="2">  1        2 0.39918546E-01 0.89160051E+02</pdfrwt>
<pdfrwt beam="1">  1       -2 0.11783633E-02 0.89160051E+02</pdfrwt>
<totfact> 0.18067035E+05</totfact>
</mgrwt>
</event>
<event>
 5    1  0.2799021E+000  0.8813465E+02  0.7818608E-02  0.1307433E+00
         -2   -1    0    0    0  501 -0.00000000000E+00  0.00000000000E+00  0.51885077327E+02  0.51885077393E+02  0.26000000000E-02 0.  1.
          2   -1    0    0  501    0  0.00000000000E+00 -0.00000000000E+00 -0.37427510183E+02  0.37427510274E+02  0.26000000000E-02 0. -1.
         23    2    1    2    0    0  0.00000000000E+00  0.00000000000E+00  0.14457567144E+02  0.89312587666E+02  0.88134653048E+02 0.  0.
        -11    1    3    3    0    0  0.35304402290E+02  0.24751252949E+02 -0.19980675769E+01  0.43162687797E+02  0.51100000000E-03 0. -1.
         11    1    3    3    0    0 -0.35304402290E+02 -0.24751252949E+02  0.16455634721E+02  0.46149899869E+02  0.51100000000E-03 0.  1.
<mgrwt>
<rscale>  0 0.88134653E+02</rscale>
<asrwt>0</asrwt>
<pdfrwt beam="2">  1        2 0.57580785E-02 0.88134653E+02</pdfrwt>
<pdfrwt beam="1">  1       -2 0.79823196E-02 0.88134653E+02</pdfrwt>
<totfact> 0.10344941E+05</totfact>
</mgrwt>
</event>
<event>
 5    1  0.2799021E+000  0.9186230E+02  0.7818608E-02  0.1298404E+00
         -2   -1    0    0    0  501 -0.00000000000E+00  0.00000000000E+00  0.64125322267E+01  0.64125327538E+01  0.26000000000E-02 0.  1.
          2   -1    0    0  501    0  0.00000000000E+00 -0.00000000000E+00 -0.32899175968E+03  0.32899175969E+03  0.26000000000E-02 0. -1.
         23    2    1    2    0    0  0.00000000000E+00  0.00000000000E+00 -0.32257922745E+03  0.33540429244E+03  0.91862295887E+02 0.  0.
        -11    1    3    3    0    0  0.31774059953E+00 -0.41887574042E+02 -0.23008286311E+03  0.23386490484E+03  0.51100000000E-03 0. -1.
         11    1    3    3    0    0 -0.31774059953E+00  0.41887574042E+02 -0.92496364345E+02  0.10153938761E+03  0.51100000000E-03 0.  1.
<mgrwt>
<rscale>  0 0.91862296E+02</rscale>
<asrwt>0</asrwt>
<pdfrwt beam="2">  1        2 0.50614104E-01 0.91862296E+02</pdfrwt>
<pdfrwt beam="1">  1       -2 0.98654371E-03 0.91862296E+02</pdfrwt>
<totfact> 0.18224027E+05</totfact>
</mgrwt>
</event>
<event>
 5    1  0.2799021E+000  0.9063745E+02  0.7818608E-02  0.1301315E+00
         -2   -1    0    0    0  501 -0.00000000000E+00  0.00000000000E+00  0.48401474993E+02  0.48401475063E+02  0.26000000000E-02 0.  1.
          2   -1    0    0  501    0  0.00000000000E+00 -0.00000000000E+00 -0.42432315409E+02  0.42432315489E+02  0.26000000000E-02 0. -1.
         23    2    1    2    0    0  0.00000000000E+00  0.00000000000E+00  0.59691595838E+01  0.90833790551E+02  0.90637446123E+02 0.  0.
        -11    1    3    3    0    0 -0.25573470044E+02  0.27348381807E+02  0.28571246588E+02  0.47098327883E+02  0.51100000000E-03 0.  1.
         11    1    3    3    0    0  0.25573470044E+02 -0.27348381807E+02 -0.22602087004E+02  0.43735462668E+02  0.51100000000E-03 0. -1.
<mgrwt>
<rscale>  0 0.90637446E+02</rscale>
<asrwt>0</asrwt>
<pdfrwt beam="2">  1        2 0.65280486E-02 0.90637446E+02</pdfrwt>
<pdfrwt beam="1">  1       -2 0.74463808E-02 0.90637446E+02</pdfrwt>
<totfact> 0.98526892E+04</totfact>
</mgrwt>
</event>
<event>
 5    1  0.2799021E+000  0.9325768E+02  0.7818608E-02  0.1295149E+00
          2   -1    0    0  501    0  0.00000000000E+00  0.00000000000E+00  0.22885125002E+03  0.22885125004E+03  0.26000000000E-02 0. -1.
         -2   -1    0    0    0  501 -0.00000000000E+00 -0.00000000000E+00 -0.95007067409E+01  0.95007070967E+01  0.26000000000E-02 0.  1.
         23    2    1    2    0    0  0.00000000000E+00  0.00000000000E+00  0.21935054328E+03  0.23835195713E+03  0.93257678674E+02 0.  0.
        -11    1    3    3    0    0  0.27757500624E+02 -0.30234949874E+02  0.53121360928E+02  0.67130544627E+02  0.51100000000E-03 0.  1.
         11    1    3    3    0    0 -0.27757500624E+02  0.30234949874E+02  0.16622918235E+03  0.17122141251E+03  0.51100000000E-03 0. -1.
<mgrwt>
<rscale>  0 0.93257679E+02</rscale>
<asrwt>0</asrwt>
<pdfrwt beam="1">  1        2 0.35207882E-01 0.93257679E+02</pdfrwt>
<pdfrwt beam="2">  1       -2 0.14616473E-02 0.93257679E+02</pdfrwt>
<totfact> 0.15290921E+05</totfact>
</mgrwt>
</event>
<event>
 5    1  0.2799021E+000  0.9250585E+02  0.7818608E-02  0.1296894E+00
          2   -1    0    0  501    0  0.00000000000E+00  0.00000000000E+00  0.26468521107E+02  0.26468521235E+02  0.26000000000E-02 0. -1.
         -2   -1    0    0    0  501 -0.00000000000E+00 -0.00000000000E+00 -0.80825567374E+02  0.80825567415E+02  0.26000000000E-02 0.  1.
         23    2    1    2    0    0  0.00000000000E+00  0.00000000000E+00 -0.54357046267E+02  0.10729408865E+03  0.92505853763E+02 0.  0.
        -11    1    3    3    0    0  0.36915496163E+02  0.16949277077E+02 -0.15221769898E+01  0.40649094374E+02  0.51100000000E-03 0. -1.
         11    1    3    3    0    0 -0.36915496163E+02 -0.16949277077E+02 -0.52834869277E+02  0.66644994277E+02  0.51100000000E-03 0.  1.
<mgrwt>
<rscale>  0 0.92505854E+02</rscale>
<asrwt>0</asrwt>
<pdfrwt beam="1">  1        2 0.40720802E-02 0.92505854E+02</pdfrwt>
<pdfrwt beam="2">  1       -2 0.12434703E-01 0.92505854E+02</pdfrwt>
<totfact> 0.81870139E+04</totfact>
</mgrwt>
</event>
<event>
 5    1  0.2799021E+000  0.8919887E+02  0.7818608E-02  0.1304803E+00
         -2   -1    0    0    0  501 -0.00000000000E+00  0.00000000000E+00  0.15307923774E+03  0.15307923776E+03  0.26000000000E-02 0.  1.
          2   -1    0    0  501    0  0.00000000000E+00 -0.00000000000E+00 -0.12993986440E+02  0.12993986700E+02  0.26000000000E-02 0. -1.
         23    2    1    2    0    0  0.00000000000E+00  0.00000000000E+00  0.14008525130E+03  0.16607322446E+03  0.89198869115E+02 0.  0.
        -11    1    3    3    0    0 -0.34284126736E+01  0.34912806698E+02  0.18767802574E+02  0.39785531274E+02  0.51100000000E-03 0. -1.
         11    1    3    3    0    0  0.34284126736E+01 -0.34912806698E+02  0.12131744873E+03  0.12628769319E+03  0.51100000000E-03 0.  1.
<mgrwt>
<rscale>  0 0.89198869E+02</rscale>
<asrwt>0</asrwt>
<pdfrwt beam="2">  1        2 0.19990748E-02 0.89198869E+02</pdfrwt>
<pdfrwt beam="1">  1       -2 0.23550652E-01 0.89198869E+02</pdfrwt>
<totfact> 0.73296684E+04</totfact>
</mgrwt>
</event>
<event>
 5    1  0.2799021E+000  0.9467685E+02  0.7818608E-02  0.1291906E+00
         -2   -1    0    0    0  501 -0.00000000000E+00  0.00000000000E+00  0.10363917425E+03  0.10363917429E+03  0.26000000000E-02 0.  1.
          2   -1    0    0  501    0  0.00000000000E+00 -0.00000000000E+00 -0.21622389636E+02  0.21622389792E+02  0.26000000000E-02 0. -1.
         23    2    1    2    0    0  0.00000000000E+00  0.00000000000E+00  0.82016784617E+02  0.12526156408E+03  0.94676852906E+02 0.  0.
        -11    1    3    3    0    0 -0.40430115795E+01  0.35539350442E+02  0.82034150985E+02  0.89492979057E+02  0.51100000000E-03 0.  1.
         11    1    3    3    0    0  0.40430115795E+01 -0.35539350442E+02 -0.17366367960E-01  0.35768585020E+02  0.51100000000E-03 0. -1.
<mgrwt>
<rscale>  0 0.94676853E+02</rscale>
<asrwt>0</asrwt>
<pdfrwt beam="2">  1        2 0.33265215E-02 0.94676853E+02</pdfrwt>
<pdfrwt beam="1">  1       -2 0.15944488E-01 0.94676853E+02</pdfrwt>
<totfact> 0.71873494E+04</totfact>
</mgrwt>
</event>
<event>
 5    1  0.2799021E+000  0.9382296E+02  0.7818608E-02  0.1293849E+00
          2   -1    0    0  501    0  0.00000000000E+00  0.00000000000E+00  0.56109773923E+02  0.56109773983E+02  0.26000000000E-02 0. -1.
         -2   -1    0    0    0  501 -0.00000000000E+00 -0.00000000000E+00 -0.39221099328E+02  0.39221099414E+02  0.26000000000E-02 0.  1.
         23    2    1    2    0    0  0.00000000000E+00  0.00000000000E+00  0.16888674595E+02  0.95330873397E+02  0.93822961439E+02 0.  0.
        -11    1    3    3    0    0 -0.20740333504E+02  0.36165382939E+02 -0.13409256568E+02  0.43793886776E+02  0.51100000000E-03 0.  1.
         11    1    3    3    0    0  0.20740333504E+02 -0.36165382939E+02  0.30297931163E+02  0.51536986621E+02  0.51100000000E-03 0. -1.
<mgrwt>
<rscale>  0 0.93822961E+02</rscale>
<asrwt>0</asrwt>
<pdfrwt beam="1">  1        2 0.86322729E-02 0.93822961E+02</pdfrwt>
<pdfrwt beam="2">  1       -2 0.60340153E-02 0.93822961E+02</pdfrwt>
<totfact> 0.96054979E+04</totfact>
</mgrwt>
</event>
<event>
 5    1  0.2799021E+000  0.9084999E+02  0.7818608E-02  0.1300806E+00
         -2   -1    0    0    0  501 -0.00000000000E+00  0.00000000000E+00  0.26921341216E+02  0.26921341341E+02  0.26000000000E-02 0.  1.
          2   -1    0    0  501    0  0.00000000000E+00 -0.00000000000E+00 -0.76646633671E+02  0.76646633715E+02  0.26000000000E-02 0. -1.
         23    2    1    2    0    0  0.00000000000E+00  0.00000000000E+00 -0.49725292455E+02  0.10356797506E+03  0.90849990355E+02 0.  0.
        -11    1    3    3    0    0  0.37249892437E+02 -0.54841804972E+01 -0.53832709235E+02  0.65693160269E+02  0.51100000000E-03 0. -1.
         11    1    3    3    0    0 -0.37249892437E+02  0.54841804972E+01  0.41074167797E+01  0.37874814787E+02  0.51100000000E-03 0.  1.
<mgrwt>
<rscale>  0 0.90849990E+02</rscale>
<asrwt>0</asrwt>
<pdfrwt beam="2">  1        2 0.11791790E-01 0.90849990E+02</pdfrwt>
<pdfrwt beam="1">  1       -2 0.41417449E-02 0.90849990E+02</pdfrwt>
<totfact> 0.11460510E+05</totfact>
</mgrwt>
</event>
<event>
 5    1  0.2799021E+000  0.9508000E+02  0.7818608E-02  0.1290996E+00
         -2   -1    0    0    0  501 -0.00000000000E+00  0.00000000000E+00  0.68967838355E+01  0.68967843256E+01  0.26000000000E-02 0.  1.
          2   -1    0    0  501    0  0.00000000000E+00 -0.00000000000E+00 -0.32769646717E+03  0.32769646718E+03  0.26000000000E-02 0. -1.
         23    2    1    2    0    0  0.00000000000E+00  0.00000000000E+00 -0.32079968333E+03  0.33459325150E+03  0.95080003817E+02 0.  0.
        -11    1    3    3    0    0  0.25378773723E+02 -0.34707998540E+02 -0.89029092343E+02  0.98868127332E+02  0.51100000000E-03 0. -1.
         11    1    3    3    0    0 -0.25378773723E+02  0.34707998540E+02 -0.23177059099E+03  0.23572512417E+03  0.51100000000E-03 0.  1.
<mgrwt>
<rscale>  0 0.95080004E+02</rscale>
<asrwt>0</asrwt>
<pdfrwt beam="2">  1        2 0.50414829E-01 0.95080004E+02</pdfrwt>
<pdfrwt beam="1">  1       -2 0.10610440E-02 0.95080004E+02</pdfrwt>
<totfact> 0.16597887E+05</totfact>
</mgrwt>
</event>
<event>
 5    1  0.2799021E+000  0.9981013E+02  0.7818608E-02  0.1280696E+00
          2   -1    0    0  501    0  0.00000000000E+00  0.00000000000E+00  0.16767397628E+03  0.16767397630E+03  0.26000000000E-02 0. -1.
         -2   -1    0    0    0  501 -0.00000000000E+00 -0.00000000000E+00 -0.14853322124E+02  0.14853322352E+02  0.26000000000E-02 0.  1.
         23    2    1    2    0    0  0.00000000000E+00  0.00000000000E+00  0.15282065416E+03  0.18252729865E+03  0.99810131834E+02 0.  0.
        -11    1    3    3    0    0  0.46856515483E+01  0.38041535248E+02  0.17964767457E+02  0.42330209124E+02  0.51100000000E-03 0.  1.
         11    1    3    3    0    0 -0.46856515483E+01 -0.38041535248E+02  0.13485588670E+03  0.14019708953E+03  0.51100000000E-03 0. -1.
<mgrwt>
<rscale>  0 0.99810132E+02</rscale>
<asrwt>0</asrwt>
<pdfrwt beam="1">  1        2 0.25795996E-01 0.99810132E+02</pdfrwt>
<pdfrwt beam="2">  1       -2 0.22851265E-02 0.99810132E+02</pdfrwt>
<totfact> 0.11356273E+05</totfact>
</mgrwt>
</event>
<event>
 5    1  0.2799021E+000  0.8870548E+02  0.7818608E-02  0.1306017E+00
         -2   -1    0    0    0  501 -0.00000000000E+00  0.00000000000E+00  0.25613746683E+02  0.25613746815E+02  0.26000000000E-02 0.  1.
          2   -1    0    0  501    0  0.00000000000E+00 -0.00000000000E+00 -0.76801158855E+02  0.76801158899E+02  0.26000000000E-02 0. -1.
         23    2    1    2    0    0  0.00000000000E+00  0.00000000000E+00 -0.51187412172E+02  0.10241490571E+03  0.88705477551E+02 0.  0.
        -11    1    3    3    0    0  0.17582014236E+02  0.64906546213E+01  0.20817329995E+02  0.28011016590E+02  0.51100000000E-03 0.  1.
         11    1    3    3    0    0 -0.17582014236E+02 -0.64906546213E+01 -0.72004742167E+02  0.74403889125E+02  0.51100000000E-03 0. -1.
<mgrwt>
<rscale>  0 0.88705478E+02</rscale>
<asrwt>0</asrwt>
<pdfrwt beam="2">  1        2 0.11815563E-01 0.88705478E+02</pdfrwt>
<pdfrwt beam="1">  1       -2 0.39405764E-02 0.88705478E+02</pdfrwt>
<totfact> 0.12252930E+05</totfact>
</mgrwt>
</event>
<event>
 5    1  0.2799021E+000  0.9037175E+02  0.7818608E-02  0.1301954E+00
         -2   -1    0    0    0  501 -0.00000000000E+00  0.00000000000E+00  0.62648519478E+02  0.62648519532E+02  0.26000000000E-02 0.  1.
          2   -1    0    0  501    0  0.00000000000E+00 -0.00000000000E+00 -0.32590769600E+02  0.32590769704E+02  0.26000000000E-02 0. -1.
         23    2    1    2    0    0  0.00000000000E+00  0.00000000000E+00  0.30057749878E+02  0.95239289236E+02  0.90371753808E+02 0.  0.
        -11    1    3    3    0    0 -0.30841258986E+02 -0.85461405193E+01  0.48645953532E+02  0.58229275875E+02  0.51100000000E-03 0.  1.
         11    1    3    3    0    0  0.30841258986E+02  0.85461405193E+01 -0.18588203654E+02  0.37010013361E+02  0.51100000000E-03 0. -1.
<mgrwt>
<rscale>  0 0.90371754E+02</rscale>
<asrwt>0</asrwt>
<pdfrwt beam="2">  1        2 0.50139646E-02 0.90371754E+02</pdfrwt>
<pdfrwt beam="1">  1       -2 0.96382337E-02 0.90371754E+02</pdfrwt>
<totfact> 0.92820121E+04</totfact>
</mgrwt>
</event>
<event>
 5    1  0.2799021E+000  0.9277696E+02  0.7818608E-02  0.1296263E+00
          2   -1    0    0  501    0  0.00000000000E+00  0.00000000000E+00  0.68699283037E+02  0.68699283086E+02  0.26000000000E-02 0. -1.
         -2   -1    0    0    0  501 -0.00000000000E+00 -0.00000000000E+00 -0.31323344258E+02  0.31323344366E+02  0.26000000000E-02 0.  1.
         23    2    1    2    0    0  0.00000000000E+00  0.00000000000E+00  0.37375938778E+02  0.10002262745E+03  0.92776964829E+02 0.  0.
        -11    1    3    3    0    0  0.22425981146E+02  0.24156763887E+02  0.53877866457E+02  0.63160892696E+02  0.51100000000E-03 0. -1.
         11    1    3    3    0    0 -0.22425981146E+02 -0.24156763887E+02 -0.16501927679E+02  0.36861734756E+02  0.51100000000E-03 0.  1.
<mgrwt>
<rscale>  0 0.92776965E+02</rscale>
<asrwt>0</asrwt>
<pdfrwt beam="1">  1        2 0.10569121E-01 0.92776965E+02</pdfrwt>
<pdfrwt beam="2">  1       -2 0.48189760E-02 0.92776965E+02</pdfrwt>
<totfact> 0.10480222E+05</totfact>
</mgrwt>
</event>
<event>
 5    1  0.2799021E+000  0.9144079E+02  0.7818608E-02  0.1299400E+00
          2   -1    0    0  501    0  0.00000000000E+00  0.00000000000E+00  0.16929584989E+03  0.16929584991E+03  0.26000000000E-02 0. -1.
         -2   -1    0    0    0  501 -0.00000000000E+00 -0.00000000000E+00 -0.12347346443E+02  0.12347346717E+02  0.26000000000E-02 0.  1.
         23    2    1    2    0    0  0.00000000000E+00  0.00000000000E+00  0.15694850345E+03  0.18164319663E+03  0.91440790388E+02 0.  0.
        -11    1    3    3    0    0 -0.41839592424E+02  0.10388026091E+02  0.48224486598E+02  0.64684338817E+02  0.51100000000E-03 0.  1.
         11    1    3    3    0    0  0.41839592424E+02 -0.10388026091E+02  0.10872401685E+03  0.11695885781E+03  0.51100000000E-03 0. -1.
<mgrwt>
<rscale>  0 0.91440790E+02</rscale>
<asrwt>0</asrwt>
<pdfrwt beam="1">  1        2 0.26045517E-01 0.91440790E+02</pdfrwt>
<pdfrwt beam="2">  1       -2 0.18995917E-02 0.91440790E+02</pdfrwt>
<totfact> 0.14463066E+05</totfact>
</mgrwt>
</event>
<event>
 5    1  0.2799021E+000  0.1001512E+03  0.7818608E-02  0.1279978E+00
          2   -1    0    0  501    0  0.00000000000E+00  0.00000000000E+00  0.46663808173E+03  0.46663808174E+03  0.26000000000E-02 0. -1.
         -2   -1    0    0    0  501 -0.00000000000E+00 -0.00000000000E+00 -0.53736791267E+01  0.53736797557E+01  0.26000000000E-02 0.  1.
         23    2    1    2    0    0  0.00000000000E+00  0.00000000000E+00  0.46126440260E+03  0.47201176149E+03  0.10015115515E+03 0.  0.
        -11    1    3    3    0    0 -0.48479789879E+01 -0.48662778863E+02  0.17987290434E+03  0.18640233546E+03  0.51100000000E-03 0.  1.
         11    1    3    3    0    0  0.48479789879E+01  0.48662778863E+02  0.28139149826E+03  0.28560942604E+03  0.51100000000E-03 0. -1.
<mgrwt>
<rscale>  0 0.10015116E+03</rscale>
<asrwt>0</asrwt>
<pdfrwt beam="1">  1        2 0.71790517E-01 0.10015116E+03</pdfrwt>
<pdfrwt beam="2">  1       -2 0.82671942E-03 0.10015116E+03</pdfrwt>
<totfact> 0.16403582E+05</totfact>
</mgrwt>
</event>
<event>
 5    1  0.2799021E+000  0.9093240E+02  0.7818608E-02  0.1300609E+00
          2   -1    0    0  501    0  0.00000000000E+00  0.00000000000E+00  0.19798928542E+02  0.19798928713E+02  0.26000000000E-02 0.  1.
         -2   -1    0    0    0  501 -0.00000000000E+00 -0.00000000000E+00 -0.10440843962E+03  0.10440843965E+03  0.26000000000E-02 0. -1.
         23    2    1    2    0    0  0.00000000000E+00  0.00000000000E+00 -0.84609511075E+02  0.12420736836E+03  0.90932397918E+02 0.  0.
        -11    1    3    3    0    0 -0.24998879387E+02  0.21030758488E+02 -0.85497953125E+02  0.91526699722E+02  0.51100000000E-03 0. -1.
         11    1    3    3    0    0  0.24998879387E+02 -0.21030758488E+02  0.88844205063E+00  0.32680668640E+02  0.51100000000E-03 0.  1.
<mgrwt>
<rscale>  0 0.90932398E+02</rscale>
<asrwt>0</asrwt>
<pdfrwt beam="1">  1        2 0.30459891E-02 0.90932398E+02</pdfrwt>
<pdfrwt beam="2">  1       -2 0.16062837E-01 0.90932398E+02</pdfrwt>
<totfact> 0.79306016E+04</totfact>
</mgrwt>
</event>
<event>
 5    1  0.2799021E+000  0.9168306E+02  0.7818608E-02  0.1298826E+00
          2   -1    0    0  501    0  0.00000000000E+00  0.00000000000E+00  0.14966065393E+02  0.14966065619E+02  0.26000000000E-02 0. -1.
         -2   -1    0    0    0  501 -0.00000000000E+00 -0.00000000000E+00 -0.14041404400E+03  0.14041404403E+03  0.26000000000E-02 0.  1.
         23    2    1    2    0    0  0.00000000000E+00  0.00000000000E+00 -0.12544797861E+03  0.15538010965E+03  0.91683058067E+02 0.  0.
        -11    1    3    3    0    0  0.35031777340E+02 -0.59442809430E+01 -0.11181000437E+03  0.11732023259E+03  0.51100000000E-03 0.  1.
         11    1    3    3    0    0 -0.35031777340E+02  0.59442809430E+01 -0.13637974247E+02  0.38059877054E+02  0.51100000000E-03 0. -1.
<mgrwt>
<rscale>  0 0.91683058E+02</rscale>
<asrwt>0</asrwt>
<pdfrwt beam="1">  1        2 0.23024717E-02 0.91683058E+02</pdfrwt>
<pdfrwt beam="2">  1       -2 0.21602160E-01 0.91683058E+02</pdfrwt>
<totfact> 0.70531418E+04</totfact>
</mgrwt>
</event>
<event>
 5    1  0.2799021E+000  0.9061490E+02  0.7818608E-02  0.1301369E+00
         -2   -1    0    0    0  501 -0.00000000000E+00  0.00000000000E+00  0.54052815813E+02  0.54052815875E+02  0.26000000000E-02 0.  1.
          2   -1    0    0  501    0  0.00000000000E+00 -0.00000000000E+00 -0.37977021882E+02  0.37977021971E+02  0.26000000000E-02 0. -1.
         23    2    1    2    0    0  0.00000000000E+00  0.00000000000E+00  0.16075793930E+02  0.92029837847E+02  0.90614898905E+02 0.  0.
        -11    1    3    3    0    0 -0.43267206125E+02 -0.18876279999E+01 -0.54797311889E+01  0.43653656427E+02  0.51100000000E-03 0.  1.
         11    1    3    3    0    0  0.43267206125E+02  0.18876279999E+01  0.21555525119E+02  0.48376181420E+02  0.51100000000E-03 0. -1.
<mgrwt>
<rscale>  0 0.90614899E+02</rscale>
<asrwt>0</asrwt>
<pdfrwt beam="2">  1        2 0.58426188E-02 0.90614899E+02</pdfrwt>
<pdfrwt beam="1">  1       -2 0.83158178E-02 0.90614899E+02</pdfrwt>
<totfact> 0.95820111E+04</totfact>
</mgrwt>
</event>
<event>
 5    1  0.2799021E+000  0.9177743E+02  0.7818608E-02  0.1298604E+00
          2   -1    0    0  501    0  0.00000000000E+00  0.00000000000E+00  0.85454763597E+02  0.85454763636E+02  0.26000000000E-02 0. -1.
         -2   -1    0    0    0  501 -0.00000000000E+00 -0.00000000000E+00 -0.24641973813E+02  0.24641973950E+02  0.26000000000E-02 0.  1.
         23    2    1    2    0    0  0.00000000000E+00  0.00000000000E+00  0.60812789784E+02  0.11009673759E+03  0.91777427649E+02 0.  0.
        -11    1    3    3    0    0 -0.70402869456E+01  0.27186225890E+02 -0.13129836758E+02  0.31000792441E+02  0.51100000000E-03 0.  1.
         11    1    3    3    0    0  0.70402869456E+01 -0.27186225890E+02  0.73942626541E+02  0.79095945146E+02  0.51100000000E-03 0. -1.
<mgrwt>
<rscale>  0 0.91777428E+02</rscale>
<asrwt>0</asrwt>
<pdfrwt beam="1">  1        2 0.13146886E-01 0.91777428E+02</pdfrwt>
<pdfrwt beam="2">  1       -2 0.37910730E-02 0.91777428E+02</pdfrwt>
<totfact> 0.11495002E+05</totfact>
</mgrwt>
</event>
<event>
 5    1  0.2799021E+000  0.8598586E+02  0.7818608E-02  0.1312874E+00
          2   -1    0    0  501    0  0.00000000000E+00  0.00000000000E+00  0.66455055630E+02  0.66455055681E+02  0.26000000000E-02 0. -1.
         -2   -1    0    0    0  501 -0.00000000000E+00 -0.00000000000E+00 -0.27814164658E+02  0.27814164780E+02  0.26000000000E-02 0.  1.
         23    2    1    2    0    0  0.00000000000E+00  0.00000000000E+00  0.38640890972E+02  0.94269220460E+02  0.85985856227E+02 0.  0.
        -11    1    3    3    0    0  0.17144049506E+02  0.33412307620E+02  0.42267403837E+02  0.56540553246E+02  0.51100000000E-03 0. -1.
         11    1    3    3    0    0 -0.17144049506E+02 -0.33412307620E+02 -0.36265128652E+01  0.37728667215E+02  0.51100000000E-03 0.  1.
<mgrwt>
<rscale>  0 0.85985856E+02</rscale>
<asrwt>0</asrwt>
<pdfrwt beam="1">  1        2 0.10223855E-01 0.85985856E+02</pdfrwt>
<pdfrwt beam="2">  1       -2 0.42791023E-02 0.85985856E+02</pdfrwt>
<totfact> 0.12841490E+05</totfact>
</mgrwt>
</event>
<event>
 5    1  0.2799021E+000  0.9100154E+02  0.7818608E-02  0.1300444E+00
         -2   -1    0    0    0  501 -0.00000000000E+00  0.00000000000E+00  0.15225312096E+02  0.15225312318E+02  0.26000000000E-02 0. -1.
          2   -1    0    0  501    0  0.00000000000E+00 -0.00000000000E+00 -0.13597883646E+03  0.13597883649E+03  0.26000000000E-02 0.  1.
         23    2    1    2    0    0  0.00000000000E+00  0.00000000000E+00 -0.12075352437E+03  0.15120414881E+03  0.91001543772E+02 0.  0.
        -11    1    3    3    0    0  0.22615899439E+02  0.39103446378E+02 -0.51312245328E+02  0.68363037871E+02  0.51100000000E-03 0.  1.
         11    1    3    3    0    0 -0.22615899439E+02 -0.39103446378E+02 -0.69441279039E+02  0.82841110934E+02  0.51100000000E-03 0. -1.
<mgrwt>
<rscale>  0 0.91001544E+02</rscale>
<asrwt>0</asrwt>
<pdfrwt beam="2">  1        2 0.20919820E-01 0.91001544E+02</pdfrwt>
<pdfrwt beam="1">  1       -2 0.23423558E-02 0.91001544E+02</pdfrwt>
<totfact> 0.13598428E+05</totfact>
</mgrwt>
</event>
<event>
 5    1  0.2799021E+000  0.9052580E+02  0.7818608E-02  0.1301583E+00
          2   -1    0    0  501    0  0.00000000000E+00  0.00000000000E+00  0.76920507474E+02  0.76920507518E+02  0.26000000000E-02 0. -1.
         -2   -1    0    0    0  501 -0.00000000000E+00 -0.00000000000E+00 -0.26634380950E+02  0.26634381077E+02  0.26000000000E-02 0.  1.
         23    2    1    2    0    0  0.00000000000E+00  0.00000000000E+00  0.50286126525E+02  0.10355488860E+03  0.90525799809E+02 0.  0.
        -11    1    3    3    0    0  0.38150518802E+02 -0.14794344372E+02  0.30088807999E+01  0.41029112520E+02  0.51100000000E-03 0.  1.
         11    1    3    3    0    0 -0.38150518802E+02  0.14794344372E+02  0.47277245725E+02  0.62525776075E+02  0.51100000000E-03 0. -1.
<mgrwt>
<rscale>  0 0.90525800E+02</rscale>
<asrwt>0</asrwt>
<pdfrwt beam="1">  1        2 0.11833924E-01 0.90525800E+02</pdfrwt>
<pdfrwt beam="2">  1       -2 0.40975971E-02 0.90525800E+02</pdfrwt>
<totfact> 0.11586609E+05</totfact>
</mgrwt>
</event>
<event>
 5    1  0.2799021E+000  0.9305174E+02  0.7818608E-02  0.1295625E+00
         -2   -1    0    0    0  501 -0.00000000000E+00  0.00000000000E+00  0.11982559515E+03  0.11982559518E+03  0.26000000000E-02 0.  1.
          2   -1    0    0  501    0  0.00000000000E+00 -0.00000000000E+00 -0.18065060816E+02  0.18065061003E+02  0.26000000000E-02 0. -1.
         23    2    1    2    0    0  0.00000000000E+00  0.00000000000E+00  0.10176053433E+03  0.13789065618E+03  0.93051742132E+02 0.  0.
        -11    1    3    3    0    0 -0.29737550505E+02  0.25726232891E+02  0.14026772596E+02  0.41748189404E+02  0.51100000000E-03 0.  1.
         11    1    3    3    0    0  0.29737550505E+02 -0.25726232891E+02  0.87733761737E+02  0.96142466775E+02  0.51100000000E-03 0. -1.
<mgrwt>
<rscale>  0 0.93051742E+02</rscale>
<asrwt>0</asrwt>
<pdfrwt beam="2">  1        2 0.27792402E-02 0.93051742E+02</pdfrwt>
<pdfrwt beam="1">  1       -2 0.18434707E-01 0.93051742E+02</pdfrwt>
<totfact> 0.71691748E+04</totfact>
</mgrwt>
</event>
<event>
 5    1  0.2799021E+000  0.9147458E+02  0.7818608E-02  0.1299320E+00
         -2   -1    0    0    0  501 -0.00000000000E+00  0.00000000000E+00  0.24464675515E+03  0.24464675516E+03  0.26000000000E-02 0. -1.
          2   -1    0    0  501    0  0.00000000000E+00 -0.00000000000E+00 -0.85506946097E+01  0.85506950050E+01  0.26000000000E-02 0.  1.
         23    2    1    2    0    0  0.00000000000E+00  0.00000000000E+00  0.23609606054E+03  0.25319745016E+03  0.91474581000E+02 0.  0.
        -11    1    3    3    0    0 -0.14388868712E+02  0.42847853615E+02  0.98687849781E+02  0.10854616436E+03  0.51100000000E-03 0.  1.
         11    1    3    3    0    0  0.14388868712E+02 -0.42847853615E+02  0.13740821075E+03  0.14465128581E+03  0.51100000000E-03 0. -1.
<mgrwt>
<rscale>  0 0.91474581E+02</rscale>
<asrwt>0</asrwt>
<pdfrwt beam="2">  1        2 0.13154916E-02 0.91474581E+02</pdfrwt>
<pdfrwt beam="1">  1       -2 0.37637960E-01 0.91474581E+02</pdfrwt>
<totfact> 0.56309513E+04</totfact>
</mgrwt>
</event>
<event>
 5    1  0.2799021E+000  0.9078164E+02  0.7818608E-02  0.1300970E+00
         -2   -1    0    0    0  501 -0.00000000000E+00  0.00000000000E+00  0.13748775717E+02  0.13748775963E+02  0.26000000000E-02 0.  1.
          2   -1    0    0  501    0  0.00000000000E+00 -0.00000000000E+00 -0.14985525986E+03  0.14985525989E+03  0.26000000000E-02 0. -1.
         23    2    1    2    0    0  0.00000000000E+00  0.00000000000E+00 -0.13610648415E+03  0.16360403585E+03  0.90781636465E+02 0.  0.
        -11    1    3    3    0    0 -0.25350939261E+02 -0.33638842234E+02 -0.98535224527E+02  0.10716077781E+03  0.51100000000E-03 0. -1.
         11    1    3    3    0    0  0.25350939261E+02  0.33638842234E+02 -0.37571259621E+02  0.56443258038E+02  0.51100000000E-03 0.  1.
<mgrwt>
<rscale>  0 0.90781636E+02</rscale>
<asrwt>0</asrwt>
<pdfrwt beam="2">  1        2 0.23054654E-01 0.90781636E+02</pdfrwt>
<pdfrwt beam="1">  1       -2 0.21151964E-02 0.90781636E+02</pdfrwt>
<totfact> 0.14142053E+05</totfact>
</mgrwt>
</event>
<event>
 5    1  0.2799021E+000  0.9091594E+02  0.7818608E-02  0.1300649E+00
          2   -1    0    0  501    0  0.00000000000E+00  0.00000000000E+00  0.19302750699E+03  0.19302750701E+03  0.26000000000E-02 0. -1.
         -2   -1    0    0    0  501 -0.00000000000E+00 -0.00000000000E+00 -0.10705349783E+02  0.10705350099E+02  0.26000000000E-02 0.  1.
         23    2    1    2    0    0  0.00000000000E+00  0.00000000000E+00  0.18232215721E+03  0.20373285711E+03  0.90915939506E+02 0.  0.
        -11    1    3    3    0    0  0.12279680898E+02 -0.39419013323E+02  0.48538273803E+02  0.63722940911E+02  0.51100000000E-03 0.  1.
         11    1    3    3    0    0 -0.12279680898E+02  0.39419013323E+02  0.13378388341E+03  0.14000991620E+03  0.51100000000E-03 0. -1.
<mgrwt>
<rscale>  0 0.90915940E+02</rscale>
<asrwt>0</asrwt>
<pdfrwt beam="1">  1        2 0.29696541E-01 0.90915940E+02</pdfrwt>
<pdfrwt beam="2">  1       -2 0.16469768E-02 0.90915940E+02</pdfrwt>
<totfact> 0.15389668E+05</totfact>
</mgrwt>
</event>
<event>
 5    1  0.2799021E+000  0.9311316E+02  0.7818608E-02  0.1295483E+00
          2   -1    0    0  501    0  0.00000000000E+00  0.00000000000E+00  0.41602160076E+02  0.41602160157E+02  0.26000000000E-02 0. -1.
         -2   -1    0    0    0  501 -0.00000000000E+00 -0.00000000000E+00 -0.52101022590E+02  0.52101022655E+02  0.26000000000E-02 0.  1.
         23    2    1    2    0    0  0.00000000000E+00  0.00000000000E+00 -0.10498862514E+02  0.93703182812E+02  0.93113158871E+02 0.  0.
        -11    1    3    3    0    0 -0.27762733568E+02  0.14896234600E+02 -0.39742680485E+02  0.50716346801E+02  0.51100000000E-03 0.  1.
         11    1    3    3    0    0  0.27762733568E+02 -0.14896234600E+02  0.29243817971E+02  0.42986836011E+02  0.51100000000E-03 0. -1.
<mgrwt>
<rscale>  0 0.93113159E+02</rscale>
<asrwt>0</asrwt>
<pdfrwt beam="1">  1        2 0.64003324E-02 0.93113159E+02</pdfrwt>
<pdfrwt beam="2">  1       -2 0.80155419E-02 0.93113159E+02</pdfrwt>
<totfact> 0.90670514E+04</totfact>
</mgrwt>
</event>
<event>
 5    1  0.2799021E+000  0.9172024E+02  0.7818608E-02  0.1298739E+00
          2   -1    0    0  501    0  0.00000000000E+00  0.00000000000E+00  0.18156952330E+02  0.18156952516E+02  0.26000000000E-02 0. -1.
         -2   -1    0    0    0  501 -0.00000000000E+00 -0.00000000000E+00 -0.11583169733E+03  0.11583169736E+03  0.26000000000E-02 0.  1.
         23    2    1    2    0    0  0.00000000000E+00  0.00000000000E+00 -0.97674745002E+02  0.13398864988E+03  0.91720240321E+02 0.  0.
        -11    1    3    3    0    0 -0.24224400088E+02  0.38865682338E+02 -0.52351839709E+02  0.69556293349E+02  0.51100000000E-03 0.  1.
         11    1    3    3    0    0  0.24224400088E+02 -0.38865682338E+02 -0.45322905293E+02  0.64432356528E+02  0.51100000000E-03 0. -1.
<mgrwt>
<rscale>  0 0.91720240E+02</rscale>
<asrwt>0</asrwt>
<pdfrwt beam="1">  1        2 0.27933774E-02 0.91720240E+02</pdfrwt>
<pdfrwt beam="2">  1       -2 0.17820261E-01 0.91720240E+02</pdfrwt>
<totfact> 0.75148145E+04</totfact>
</mgrwt>
</event>
<event>
 5    1  0.2799021E+000  0.8859333E+02  0.7818608E-02  0.1306294E+00
          2   -1    0    0  501    0  0.00000000000E+00  0.00000000000E+00  0.21992538260E+02  0.21992538414E+02  0.26000000000E-02 0. -1.
         -2   -1    0    0    0  501 -0.00000000000E+00 -0.00000000000E+00 -0.89220918461E+02  0.89220918499E+02  0.26000000000E-02 0.  1.
         23    2    1    2    0    0  0.00000000000E+00  0.00000000000E+00 -0.67228380201E+02  0.11121345691E+03  0.88593328722E+02 0.  0.
        -11    1    3    3    0    0  0.31664845194E+01 -0.25366297525E+02 -0.79027116750E+02  0.83058779526E+02  0.51100000000E-03 0.  1.
         11    1    3    3    0    0 -0.31664845194E+01  0.25366297525E+02  0.11798736549E+02  0.28154677387E+02  0.51100000000E-03 0. -1.
<mgrwt>
<rscale>  0 0.88593329E+02</rscale>
<asrwt>0</asrwt>
<pdfrwt beam="1">  1        2 0.33834675E-02 0.88593329E+02</pdfrwt>
<pdfrwt beam="2">  1       -2 0.13726295E-01 0.88593329E+02</pdfrwt>
<totfact> 0.88585298E+04</totfact>
</mgrwt>
</event>
<event>
 5    1  0.2799021E+000  0.9169552E+02  0.7818608E-02  0.1298797E+00
          2   -1    0    0  501    0  0.00000000000E+00  0.00000000000E+00  0.42882817095E+02  0.42882817174E+02  0.26000000000E-02 0. -1.
         -2   -1    0    0    0  501 -0.00000000000E+00 -0.00000000000E+00 -0.49017705553E+02  0.49017705622E+02  0.26000000000E-02 0.  1.
         23    2    1    2    0    0  0.00000000000E+00  0.00000000000E+00 -0.61348884577E+01  0.91900522796E+02  0.91695524612E+02 0.  0.
        -11    1    3    3    0    0  0.36908772684E+02  0.35939527068E+01 -0.30087748889E+02  0.47754022140E+02  0.51100000000E-03 0.  1.
         11    1    3    3    0    0 -0.36908772684E+02 -0.35939527068E+01  0.23952860431E+02  0.44146500656E+02  0.51100000000E-03 0. -1.
<mgrwt>
<rscale>  0 0.91695525E+02</rscale>
<asrwt>0</asrwt>
<pdfrwt beam="1">  1        2 0.65973564E-02 0.91695525E+02</pdfrwt>
<pdfrwt beam="2">  1       -2 0.75411855E-02 0.91695525E+02</pdfrwt>
<totfact> 0.95544757E+04</totfact>
</mgrwt>
</event>
<event>
 5    1  0.2799021E+000  0.9233404E+02  0.7818608E-02  0.1297296E+00
          2   -1    0    0  501    0  0.00000000000E+00  0.00000000000E+00  0.40775045517E+02  0.40775045600E+02  0.26000000000E-02 0. -1.
         -2   -1    0    0    0  501 -0.00000000000E+00 -0.00000000000E+00 -0.52272013968E+02  0.52272014032E+02  0.26000000000E-02 0.  1.
         23    2    1    2    0    0  0.00000000000E+00  0.00000000000E+00 -0.11496968451E+02  0.93047059632E+02  0.92334040433E+02 0.  0.
        -11    1    3    3    0    0  0.34996932081E+02  0.10033460912E+02 -0.34356759353E+02  0.50058390970E+02  0.51100000000E-03 0.  1.
         11    1    3    3    0    0 -0.34996932081E+02 -0.10033460912E+02  0.22859790903E+02  0.42988668662E+02  0.51100000000E-03 0. -1.
<mgrwt>
<rscale>  0 0.92334040E+02</rscale>
<asrwt>0</asrwt>
<pdfrwt beam="1">  1        2 0.62730839E-02 0.92334040E+02</pdfrwt>
<pdfrwt beam="2">  1       -2 0.80418484E-02 0.92334040E+02</pdfrwt>
<totfact> 0.92421466E+04</totfact>
</mgrwt>
</event>
<event>
 5    1  0.2799021E+000  0.9261898E+02  0.7818608E-02  0.1296631E+00
          2   -1    0    0  501    0  0.00000000000E+00  0.00000000000E+00  0.16381578108E+02  0.16381578314E+02  0.26000000000E-02 0. -1.
         -2   -1    0    0    0  501 -0.00000000000E+00 -0.00000000000E+00 -0.13091343319E+03  0.13091343322E+03  0.26000000000E-02 0.  1.
         23    2    1    2    0    0  0.00000000000E+00  0.00000000000E+00 -0.11453185508E+03  0.14729501153E+03  0.92618975341E+02 0.  0.
        -11    1    3    3    0    0 -0.16313616960E+02  0.21221772028E+02 -0.11736433418E+03  0.12037809038E+03  0.51100000000E-03 0.  1.
         11    1    3    3    0    0  0.16313616960E+02 -0.21221772028E+02  0.28324790916E+01  0.26916921154E+02  0.51100000000E-03 0. -1.
<mgrwt>
<rscale>  0 0.92618975E+02</rscale>
<asrwt>0</asrwt>
<pdfrwt beam="1">  1        2 0.25202429E-02 0.92618975E+02</pdfrwt>
<pdfrwt beam="2">  1       -2 0.20140528E-01 0.92618975E+02</pdfrwt>
<totfact> 0.70431828E+04</totfact>
</mgrwt>
</event>
<event>
 5    1  0.2799021E+000  0.9025349E+02  0.7818608E-02  0.1302239E+00
          2   -1    0    0  501    0  0.00000000000E+00  0.00000000000E+00  0.31566842193E+02  0.31566842300E+02  0.26000000000E-02 0. -1.
         -2   -1    0    0    0  501 -0.00000000000E+00 -0.00000000000E+00 -0.64511455353E+02  0.64511455406E+02  0.26000000000E-02 0.  1.
         23    2    1    2    0    0  0.00000000000E+00  0.00000000000E+00 -0.32944613160E+02  0.96078297706E+02  0.90253486103E+02 0.  0.
        -11    1    3    3    0    0  0.29867961436E+02  0.33176218722E+02 -0.23506829613E+02  0.50451240300E+02  0.51100000000E-03 0.  1.
         11    1    3    3    0    0 -0.29867961436E+02 -0.33176218722E+02 -0.94377835471E+01  0.45627057406E+02  0.51100000000E-03 0. -1.
<mgrwt>
<rscale>  0 0.90253486E+02</rscale>
<asrwt>0</asrwt>
<pdfrwt beam="1">  1        2 0.48564373E-02 0.90253486E+02</pdfrwt>
<pdfrwt beam="2">  1       -2 0.99248393E-02 0.90253486E+02</pdfrwt>
<totfact> 0.92403371E+04</totfact>
</mgrwt>
</event>
<event>
 5    1  0.2799021E+000  0.9338164E+02  0.7818608E-02  0.1294863E+00
          2   -1    0    0  501    0  0.00000000000E+00  0.00000000000E+00  0.38742671572E+02  0.38742671660E+02  0.26000000000E-02 0. -1.
         -2   -1    0    0    0  501 -0.00000000000E+00 -0.00000000000E+00 -0.56269546740E+02  0.56269546800E+02  0.26000000000E-02 0.  1.
         23    2    1    2    0    0  0.00000000000E+00  0.00000000000E+00 -0.17526875168E+02  0.95012218460E+02  0.93381637935E+02 0.  0.
        -11    1    3    3    0    0  0.21792019020E+02 -0.38211531051E+02  0.71629832537E+01  0.44568167201E+02  0.51100000000E-03 0. -1.
         11    1    3    3    0    0 -0.21792019020E+02  0.38211531051E+02 -0.24689858421E+02  0.50444051259E+02  0.51100000000E-03 0.  1.
<mgrwt>
<rscale>  0 0.93381638E+02</rscale>
<asrwt>0</asrwt>
<pdfrwt beam="1">  1        2 0.59604110E-02 0.93381638E+02</pdfrwt>
<pdfrwt beam="2">  1       -2 0.86568534E-02 0.93381638E+02</pdfrwt>
<totfact> 0.88239996E+04</totfact>
</mgrwt>
</event>
<event>
 5    1  0.2799021E+000  0.9171001E+02  0.7818608E-02  0.1298763E+00
          2   -1    0    0  501    0  0.00000000000E+00  0.00000000000E+00  0.11360874888E+02  0.11360875186E+02  0.26000000000E-02 0. -1.
         -2   -1    0    0    0  501 -0.00000000000E+00 -0.00000000000E+00 -0.18508094055E+03  0.18508094057E+03  0.26000000000E-02 0.  1.
         23    2    1    2    0    0  0.00000000000E+00  0.00000000000E+00 -0.17372006566E+03  0.19644181576E+03  0.91710009069E+02 0.  0.
        -11    1    3    3    0    0  0.41076495290E+02 -0.15638261904E+01 -0.43331919677E+02  0.59727542062E+02  0.51100000000E-03 0. -1.
         11    1    3    3    0    0 -0.41076495290E+02  0.15638261904E+01 -0.13038814599E+03  0.13671427369E+03  0.51100000000E-03 0.  1.
<mgrwt>
<rscale>  0 0.91710009E+02</rscale>
<asrwt>0</asrwt>
<pdfrwt beam="1">  1        2 0.17478271E-02 0.91710009E+02</pdfrwt>
<pdfrwt beam="2">  1       -2 0.28473989E-01 0.91710009E+02</pdfrwt>
<totfact> 0.63445021E+04</totfact>
</mgrwt>
</event>
<event>
 5    1  0.2799021E+000  0.9130569E+02  0.7818608E-02  0.1299720E+00
          2   -1    0    0  501    0  0.00000000000E+00  0.00000000000E+00  0.65469199152E+02  0.65469199204E+02  0.26000000000E-02 0. -1.
         -2   -1    0    0    0  501 -0.00000000000E+00 -0.00000000000E+00 -0.31834544607E+02  0.31834544713E+02  0.26000000000E-02 0.  1.
         23    2    1    2    0    0  0.00000000000E+00  0.00000000000E+00  0.33634654545E+02  0.97303743917E+02  0.91305687631E+02 0.  0.
        -11    1    3    3    0    0 -0.41071451780E+02  0.12034023220E+02  0.33751448053E+02  0.54505431950E+02  0.51100000000E-03 0. -1.
         11    1    3    3    0    0  0.41071451780E+02 -0.12034023220E+02 -0.11679350752E+00  0.42798311966E+02  0.51100000000E-03 0.  1.
<mgrwt>
<rscale>  0 0.91305688E+02</rscale>
<asrwt>0</asrwt>
<pdfrwt beam="1">  1        2 0.10072184E-01 0.91305688E+02</pdfrwt>
<pdfrwt beam="2">  1       -2 0.48976223E-02 0.91305688E+02</pdfrwt>
<totfact> 0.10817257E+05</totfact>
</mgrwt>
</event>
<event>
 5    1  0.2799021E+000  0.9077645E+02  0.7818608E-02  0.1300982E+00
         -2   -1    0    0    0  501 -0.00000000000E+00  0.00000000000E+00  0.24022435250E+02  0.24022435391E+02  0.26000000000E-02 0.  1.
          2   -1    0    0  501    0  0.00000000000E+00 -0.00000000000E+00 -0.85756951378E+02  0.85756951417E+02  0.26000000000E-02 0. -1.
         23    2    1    2    0    0  0.00000000000E+00  0.00000000000E+00 -0.61734516128E+02  0.10977938681E+03  0.90776446761E+02 0.  0.
        -11    1    3    3    0    0  0.13266511147E+02 -0.24348521470E+02  0.12588877981E+02  0.30452104441E+02  0.51100000000E-03 0.  1.
         11    1    3    3    0    0 -0.13266511147E+02  0.24348521470E+02 -0.74323394108E+02  0.79327282368E+02  0.51100000000E-03 0. -1.
<mgrwt>
<rscale>  0 0.90776447E+02</rscale>
<asrwt>0</asrwt>
<pdfrwt beam="2">  1        2 0.13193377E-01 0.90776447E+02</pdfrwt>
<pdfrwt beam="1">  1       -2 0.36957593E-02 0.90776447E+02</pdfrwt>
<totfact> 0.11862092E+05</totfact>
</mgrwt>
</event>
<event>
 5    1  0.2799021E+000  0.8711008E+02  0.7818608E-02  0.1310005E+00
         -2   -1    0    0    0  501 -0.00000000000E+00  0.00000000000E+00  0.22992053551E+02  0.22992053698E+02  0.26000000000E-02 0.  1.
          2   -1    0    0  501    0  0.00000000000E+00 -0.00000000000E+00 -0.82508578387E+02  0.82508578428E+02  0.26000000000E-02 0. -1.
         23    2    1    2    0    0  0.00000000000E+00  0.00000000000E+00 -0.59516524836E+02  0.10550063213E+03  0.87110083517E+02 0.  0.
        -11    1    3    3    0    0  0.29084894597E+02 -0.29588309512E+02 -0.13707286338E+02  0.43695409971E+02  0.51100000000E-03 0.  1.
         11    1    3    3    0    0 -0.29084894597E+02  0.29588309512E+02 -0.45809238498E+02  0.61805222154E+02  0.51100000000E-03 0. -1.
<mgrwt>
<rscale>  0 0.87110084E+02</rscale>
<asrwt>0</asrwt>
<pdfrwt beam="2">  1        2 0.12693627E-01 0.87110084E+02</pdfrwt>
<pdfrwt beam="1">  1       -2 0.35372390E-02 0.87110084E+02</pdfrwt>
<totfact> 0.13144999E+05</totfact>
</mgrwt>
</event>
<event>
 5    1  0.2799021E+000  0.1149330E+03  0.7818608E-02  0.1251698E+00
         -2   -1    0    0    0  501 -0.00000000000E+00  0.00000000000E+00  0.43107753784E+02  0.43107753863E+02  0.26000000000E-02 0.  1.
          2   -1    0    0  501    0  0.00000000000E+00 -0.00000000000E+00 -0.76607956058E+02  0.76607956102E+02  0.26000000000E-02 0. -1.
         23    2    1    2    0    0  0.00000000000E+00  0.00000000000E+00 -0.33500202274E+02  0.11971570996E+03  0.11493297029E+03 0.  0.
        -11    1    3    3    0    0 -0.93701092294E+01  0.18332755179E+02  0.39134253422E+02  0.44219663619E+02  0.51100000000E-03 0.  1.
         11    1    3    3    0    0  0.93701092294E+01 -0.18332755179E+02 -0.72634455696E+02  0.75496046346E+02  0.51100000000E-03 0. -1.
<mgrwt>
<rscale>  0 0.11493297E+03</rscale>
<asrwt>0</asrwt>
<pdfrwt beam="2">  1        2 0.11785839E-01 0.11493297E+03</pdfrwt>
<pdfrwt beam="1">  1       -2 0.66319621E-02 0.11493297E+03</pdfrwt>
<totfact> 0.58734137E+04</totfact>
</mgrwt>
</event>
<event>
 5    1  0.2799021E+000  0.9376307E+02  0.7818608E-02  0.1293987E+00
          2   -1    0    0  501    0  0.00000000000E+00  0.00000000000E+00  0.69801132102E+02  0.69801132151E+02  0.26000000000E-02 0. -1.
         -2   -1    0    0    0  501 -0.00000000000E+00 -0.00000000000E+00 -0.31487714566E+02  0.31487714673E+02  0.26000000000E-02 0.  1.
         23    2    1    2    0    0  0.00000000000E+00  0.00000000000E+00  0.38313417537E+02  0.10128884682E+03  0.93763065903E+02 0.  0.
        -11    1    3    3    0    0 -0.46429747735E+02 -0.56314373685E+01  0.15665672828E+02  0.49323907661E+02  0.51100000000E-03 0.  1.
         11    1    3    3    0    0  0.46429747735E+02  0.56314373685E+01  0.22647744709E+02  0.51964939163E+02  0.51100000000E-03 0. -1.
<mgrwt>
<rscale>  0 0.93763066E+02</rscale>
<asrwt>0</asrwt>
<pdfrwt beam="1">  1        2 0.10738636E-01 0.93763066E+02</pdfrwt>
<pdfrwt beam="2">  1       -2 0.48442638E-02 0.93763066E+02</pdfrwt>
<totfact> 0.10218550E+05</totfact>
</mgrwt>
</event>
<event>
 5    1  0.2799021E+000  0.9031741E+02  0.7818608E-02  0.1302085E+00
          2   -1    0    0  501    0  0.00000000000E+00  0.00000000000E+00  0.36242317389E+03  0.36242317390E+03  0.26000000000E-02 0.  1.
         -2   -1    0    0    0  501 -0.00000000000E+00 -0.00000000000E+00 -0.56268706028E+01  0.56268712035E+01  0.26000000000E-02 0. -1.
         23    2    1    2    0    0  0.00000000000E+00  0.00000000000E+00  0.35679630328E+03  0.36805004510E+03  0.90317405082E+02 0.  0.
        -11    1    3    3    0    0  0.65117228224E+01  0.44107285691E+02  0.20762902184E+03  0.21236211031E+03  0.51100000000E-03 0.  1.
         11    1    3    3    0    0 -0.65117228224E+01 -0.44107285691E+02  0.14916728144E+03  0.15568793479E+03  0.51100000000E-03 0. -1.
<mgrwt>
<rscale>  0 0.90317405E+02</rscale>
<asrwt>0</asrwt>
<pdfrwt beam="1">  1        2 0.55757422E-01 0.90317405E+02</pdfrwt>
<pdfrwt beam="2">  1       -2 0.86567228E-03 0.90317405E+02</pdfrwt>
<totfact> 0.19754102E+05</totfact>
</mgrwt>
</event>
<event>
 5    1  0.2799021E+000  0.9697804E+02  0.7818608E-02  0.1286782E+00
          2   -1    0    0  501    0  0.00000000000E+00  0.00000000000E+00  0.28038531894E+03  0.28038531895E+03  0.26000000000E-02 0.  1.
         -2   -1    0    0    0  501 -0.00000000000E+00 -0.00000000000E+00 -0.83855489477E+01  0.83855493508E+01  0.26000000000E-02 0. -1.
         23    2    1    2    0    0  0.00000000000E+00  0.00000000000E+00  0.27199976999E+03  0.28877086830E+03  0.96978036196E+02 0.  0.
        -11    1    3    3    0    0 -0.25007387160E+01  0.39007367911E+02  0.50557387536E+02  0.63905225766E+02  0.51100000000E-03 0. -1.
         11    1    3    3    0    0  0.25007387160E+01 -0.39007367911E+02  0.22144238245E+03  0.22486564253E+03  0.51100000000E-03 0.  1.
<mgrwt>
<rscale>  0 0.96978036E+02</rscale>
<asrwt>0</asrwt>
<pdfrwt beam="1">  1        2 0.43136198E-01 0.96978036E+02</pdfrwt>
<pdfrwt beam="2">  1       -2 0.12900846E-02 0.96978036E+02</pdfrwt>
<totfact> 0.14847156E+05</totfact>
</mgrwt>
</event>
<event>
 5    1  0.2799021E+000  0.8787871E+02  0.7818608E-02  0.1308072E+00
          2   -1    0    0  501    0  0.00000000000E+00  0.00000000000E+00  0.19423318243E+03  0.19423318245E+03  0.26000000000E-02 0. -1.
         -2   -1    0    0    0  501 -0.00000000000E+00 -0.00000000000E+00 -0.99399436221E+01  0.99399439622E+01  0.26000000000E-02 0.  1.
         23    2    1    2    0    0  0.00000000000E+00  0.00000000000E+00  0.18429323881E+03  0.20417312641E+03  0.87878710036E+02 0.  0.
        -11    1    3    3    0    0 -0.13103316392E+02 -0.28467807246E+02  0.20590640310E+02  0.37497832184E+02  0.51100000000E-03 0.  1.
         11    1    3    3    0    0  0.13103316392E+02  0.28467807246E+02  0.16370259850E+03  0.16667529422E+03  0.51100000000E-03 0. -1.
<mgrwt>
<rscale>  0 0.87878710E+02</rscale>
<asrwt>0</asrwt>
<pdfrwt beam="1">  1        2 0.29882028E-01 0.87878710E+02</pdfrwt>
<pdfrwt beam="2">  1       -2 0.15292221E-02 0.87878710E+02</pdfrwt>
<totfact> 0.16898052E+05</totfact>
</mgrwt>
</event>
<event>
 5    1  0.2799021E+000  0.9277614E+02  0.7818608E-02  0.1296265E+00
          2   -1    0    0  501    0  0.00000000000E+00  0.00000000000E+00  0.13266423012E+03  0.13266423014E+03  0.26000000000E-02 0. -1.
         -2   -1    0    0    0  501 -0.00000000000E+00 -0.00000000000E+00 -0.16220296321E+02  0.16220296530E+02  0.26000000000E-02 0.  1.
         23    2    1    2    0    0  0.00000000000E+00  0.00000000000E+00  0.11644393380E+03  0.14888452667E+03  0.92776142217E+02 0.  0.
        -11    1    3    3    0    0 -0.40140547984E+02  0.20511286102E+02  0.75792325598E+02  0.88184199660E+02  0.51100000000E-03 0.  1.
         11    1    3    3    0    0  0.40140547984E+02 -0.20511286102E+02  0.40651608199E+02  0.60700327012E+02  0.51100000000E-03 0. -1.
<mgrwt>
<rscale>  0 0.92776142E+02</rscale>
<asrwt>0</asrwt>
<pdfrwt beam="1">  1        2 0.20409881E-01 0.92776142E+02</pdfrwt>
<pdfrwt beam="2">  1       -2 0.24954303E-02 0.92776142E+02</pdfrwt>
<totfact> 0.12795217E+05</totfact>
</mgrwt>
</event>
<event>
 5    1  0.2799021E+000  0.9192483E+02  0.7818608E-02  0.1298256E+00
         -2   -1    0    0    0  501 -0.00000000000E+00  0.00000000000E+00  0.75489601317E+01  0.75489605795E+01  0.26000000000E-02 0.  1.
          2   -1    0    0  501    0  0.00000000000E+00 -0.00000000000E+00 -0.27984562292E+03  0.27984562293E+03  0.26000000000E-02 0. -1.
         23    2    1    2    0    0  0.00000000000E+00  0.00000000000E+00 -0.27229666279E+03  0.28739458351E+03  0.91924828344E+02 0.  0.
        -11    1    3    3    0    0  0.34854150841E+02 -0.29694399117E+02 -0.14864393678E+03  0.15553645589E+03  0.51100000000E-03 0. -1.
         11    1    3    3    0    0 -0.34854150841E+02  0.29694399117E+02 -0.12365272601E+03  0.13185812762E+03  0.51100000000E-03 0.  1.
<mgrwt>
<rscale>  0 0.91924828E+02</rscale>
<asrwt>0</asrwt>
<pdfrwt beam="2">  1        2 0.43053165E-01 0.91924828E+02</pdfrwt>
<pdfrwt beam="1">  1       -2 0.11613787E-02 0.91924828E+02</pdfrwt>
<totfact> 0.17127673E+05</totfact>
</mgrwt>
</event>
<event>
 5    1  0.2799021E+000  0.9132450E+02  0.7818608E-02  0.1299676E+00
         -2   -1    0    0    0  501 -0.00000000000E+00  0.00000000000E+00  0.55558755919E+01  0.55558762003E+01  0.26000000000E-02 0.  1.
          2   -1    0    0  501    0  0.00000000000E+00 -0.00000000000E+00 -0.37528574781E+03  0.37528574782E+03  0.26000000000E-02 0. -1.
         23    2    1    2    0    0  0.00000000000E+00  0.00000000000E+00 -0.36972987221E+03  0.38084162402E+03  0.91324499315E+02 0.  0.
        -11    1    3    3    0    0 -0.31264426156E+02 -0.33255802423E+02 -0.19018632631E+03  0.19558694091E+03  0.51100000000E-03 0. -1.
         11    1    3    3    0    0  0.31264426156E+02  0.33255802423E+02 -0.17954354590E+03  0.18525468311E+03  0.51100000000E-03 0.  1.
<mgrwt>
<rscale>  0 0.91324499E+02</rscale>
<asrwt>0</asrwt>
<pdfrwt beam="2">  1        2 0.57736249E-01 0.91324499E+02</pdfrwt>
<pdfrwt beam="1">  1       -2 0.85475043E-03 0.91324499E+02</pdfrwt>
<totfact> 0.19424949E+05</totfact>
</mgrwt>
</event>
<event>
 5    1  0.2799021E+000  0.8997133E+02  0.7818608E-02  0.1302921E+00
         -2   -1    0    0    0  501 -0.00000000000E+00  0.00000000000E+00  0.10716492207E+03  0.10716492211E+03  0.26000000000E-02 0.  1.
          2   -1    0    0  501    0  0.00000000000E+00 -0.00000000000E+00 -0.18884070444E+02  0.18884070623E+02  0.26000000000E-02 0. -1.
         23    2    1    2    0    0  0.00000000000E+00  0.00000000000E+00  0.88280851630E+02  0.12604899273E+03  0.89971327673E+02 0.  0.
        -11    1    3    3    0    0 -0.20522835080E+02 -0.23830894184E+02 -0.92297226781E+00  0.31463473352E+02  0.51100000000E-03 0. -1.
         11    1    3    3    0    0  0.20522835080E+02  0.23830894184E+02  0.89203823898E+02  0.94585519376E+02  0.51100000000E-03 0.  1.
<mgrwt>
<rscale>  0 0.89971328E+02</rscale>
<asrwt>0</asrwt>
<pdfrwt beam="2">  1        2 0.29052417E-02 0.89971328E+02</pdfrwt>
<pdfrwt beam="1">  1       -2 0.16486911E-01 0.89971328E+02</pdfrwt>
<totfact> 0.80791481E+04</totfact>
</mgrwt>
</event>
<event>
 5    1  0.2799021E+000  0.9098570E+02  0.7818608E-02  0.1300482E+00
         -2   -1    0    0    0  501 -0.00000000000E+00  0.00000000000E+00  0.27273555224E+02  0.27273555348E+02  0.26000000000E-02 0.  1.
          2   -1    0    0  501    0  0.00000000000E+00 -0.00000000000E+00 -0.75883001462E+02  0.75883001506E+02  0.26000000000E-02 0. -1.
         23    2    1    2    0    0  0.00000000000E+00  0.00000000000E+00 -0.48609446238E+02  0.10315655685E+03  0.90985696449E+02 0.  0.
        -11    1    3    3    0    0 -0.46336424187E+01  0.26147142854E+02 -0.66184407990E+02  0.71312829020E+02  0.51100000000E-03 0. -1.
         11    1    3    3    0    0  0.46336424187E+01 -0.26147142854E+02  0.17574961753E+02  0.31843727834E+02  0.51100000000E-03 0.  1.
<mgrwt>
<rscale>  0 0.90985696E+02</rscale>
<asrwt>0</asrwt>
<pdfrwt beam="2">  1        2 0.11674308E-01 0.90985696E+02</pdfrwt>
<pdfrwt beam="1">  1       -2 0.41959316E-02 0.90985696E+02</pdfrwt>
<totfact> 0.11380828E+05</totfact>
</mgrwt>
</event>
<event>
 5    1  0.2799021E+000  0.8938901E+02  0.7818608E-02  0.1304338E+00
         -2   -1    0    0    0  501 -0.00000000000E+00  0.00000000000E+00  0.27805474185E+02  0.27805474306E+02  0.26000000000E-02 0.  1.
          2   -1    0    0  501    0  0.00000000000E+00 -0.00000000000E+00 -0.71841925946E+02  0.71841925993E+02  0.26000000000E-02 0. -1.
         23    2    1    2    0    0  0.00000000000E+00  0.00000000000E+00 -0.44036451761E+02  0.99647400299E+02  0.89389011084E+02 0.  0.
        -11    1    3    3    0    0  0.56662646415E+01 -0.33269735572E+02 -0.54683143927E+02  0.64259070099E+02  0.51100000000E-03 0. -1.
         11    1    3    3    0    0 -0.56662646415E+01  0.33269735572E+02  0.10646692166E+02  0.35388330200E+02  0.51100000000E-03 0.  1.
<mgrwt>
<rscale>  0 0.89389011E+02</rscale>
<asrwt>0</asrwt>
<pdfrwt beam="2">  1        2 0.11052604E-01 0.89389011E+02</pdfrwt>
<pdfrwt beam="1">  1       -2 0.42777653E-02 0.89389011E+02</pdfrwt>
<totfact> 0.11774355E+05</totfact>
</mgrwt>
</event>
<event>
 5    1  0.2799021E+000  0.9679792E+02  0.7818608E-02  0.1287177E+00
         -2   -1    0    0    0  501 -0.00000000000E+00  0.00000000000E+00  0.30703084937E+02  0.30703085047E+02  0.26000000000E-02 0. -1.
          2   -1    0    0  501    0  0.00000000000E+00 -0.00000000000E+00 -0.76293946934E+02  0.76293946978E+02  0.26000000000E-02 0.  1.
         23    2    1    2    0    0  0.00000000000E+00  0.00000000000E+00 -0.45590861997E+02  0.10699703202E+03  0.96797924381E+02 0.  0.
        -11    1    3    3    0    0  0.35105190728E+02  0.32574047233E+02 -0.30534293888E+02  0.56796004020E+02  0.51100000000E-03 0. -1.
         11    1    3    3    0    0 -0.35105190728E+02 -0.32574047233E+02 -0.15056568109E+02  0.50201028004E+02  0.51100000000E-03 0.  1.
<mgrwt>
<rscale>  0 0.96797924E+02</rscale>
<asrwt>0</asrwt>
<pdfrwt beam="2">  1        2 0.11737530E-01 0.96797924E+02</pdfrwt>
<pdfrwt beam="1">  1       -2 0.47235516E-02 0.96797924E+02</pdfrwt>
<totfact> 0.95829578E+04</totfact>
</mgrwt>
</event>
<event>
 5    1  0.2799021E+000  0.8648056E+02  0.7818608E-02  0.1311606E+00
         -2   -1    0    0    0  501 -0.00000000000E+00  0.00000000000E+00  0.12875397435E+03  0.12875397438E+03  0.26000000000E-02 0.  1.
          2   -1    0    0  501    0  0.00000000000E+00 -0.00000000000E+00 -0.14521662205E+02  0.14521662438E+02  0.26000000000E-02 0. -1.
         23    2    1    2    0    0  0.00000000000E+00  0.00000000000E+00  0.11423231214E+03  0.14327563681E+03  0.86480558314E+02 0.  0.
        -11    1    3    3    0    0  0.36845824290E+02  0.42298156713E+00  0.19631085719E+02  0.41751325820E+02  0.51100000000E-03 0.  1.
         11    1    3    3    0    0 -0.36845824290E+02 -0.42298156713E+00  0.94601226425E+02  0.10152431099E+03  0.51100000000E-03 0. -1.
<mgrwt>
<rscale>  0 0.86480558E+02</rscale>
<asrwt>0</asrwt>
<pdfrwt beam="2">  1        2 0.22341018E-02 0.86480558E+02</pdfrwt>
<pdfrwt beam="1">  1       -2 0.19808304E-01 0.86480558E+02</pdfrwt>
<totfact> 0.84167049E+04</totfact>
</mgrwt>
</event>
<event>
 5    1  0.2799021E+000  0.8981294E+02  0.7818608E-02  0.1303305E+00
         -2   -1    0    0    0  501 -0.00000000000E+00  0.00000000000E+00  0.20394456324E+02  0.20394456489E+02  0.26000000000E-02 0. -1.
          2   -1    0    0  501    0  0.00000000000E+00 -0.00000000000E+00 -0.98879370377E+02  0.98879370411E+02  0.26000000000E-02 0.  1.
         23    2    1    2    0    0  0.00000000000E+00  0.00000000000E+00 -0.78484914053E+02  0.11927382690E+03  0.89812939210E+02 0.  0.
        -11    1    3    3    0    0 -0.37316440947E+02  0.11398696037E+02 -0.68763588376E+02  0.79062495046E+02  0.51100000000E-03 0.  1.
         11    1    3    3    0    0  0.37316440947E+02 -0.11398696037E+02 -0.97213256771E+01  0.40211331854E+02  0.51100000000E-03 0. -1.
<mgrwt>
<rscale>  0 0.89812939E+02</rscale>
<asrwt>0</asrwt>
<pdfrwt beam="2">  1        2 0.15212211E-01 0.89812939E+02</pdfrwt>
<pdfrwt beam="1">  1       -2 0.31376087E-02 0.89812939E+02</pdfrwt>
<totfact> 0.12742865E+05</totfact>
</mgrwt>
</event>
<event>
 5    1  0.2799021E+000  0.8396903E+02  0.7818608E-02  0.1318151E+00
          2   -1    0    0  501    0  0.00000000000E+00  0.00000000000E+00  0.16762667601E+03  0.16762667603E+03  0.26000000000E-02 0.  1.
         -2   -1    0    0    0  501 -0.00000000000E+00 -0.00000000000E+00 -0.10515627164E+02  0.10515627485E+02  0.26000000000E-02 0. -1.
         23    2    1    2    0    0  0.00000000000E+00  0.00000000000E+00  0.15711104885E+03  0.17814230352E+03  0.83969033770E+02 0.  0.
        -11    1    3    3    0    0 -0.51921426619E+01  0.32207013134E+02  0.13462357415E+03  0.13851987857E+03  0.51100000000E-03 0.  1.
         11    1    3    3    0    0  0.51921426619E+01 -0.32207013134E+02  0.22487474694E+02  0.39622424949E+02  0.51100000000E-03 0. -1.
<mgrwt>
<rscale>  0 0.83969034E+02</rscale>
<asrwt>0</asrwt>
<pdfrwt beam="1">  1        2 0.25788719E-01 0.83969034E+02</pdfrwt>
<pdfrwt beam="2">  1       -2 0.16177889E-02 0.83969034E+02</pdfrwt>
<totfact> 0.18128058E+05</totfact>
</mgrwt>
</event>
<event>
 5    1  0.2799021E+000  0.9239576E+02  0.7818608E-02  0.1297152E+00
         -2   -1    0    0    0  501 -0.00000000000E+00  0.00000000000E+00  0.18453079147E+03  0.18453079149E+03  0.26000000000E-02 0. -1.
          2   -1    0    0  501    0  0.00000000000E+00 -0.00000000000E+00 -0.11565788460E+02  0.11565788752E+02  0.26000000000E-02 0.  1.
         23    2    1    2    0    0  0.00000000000E+00  0.00000000000E+00  0.17296500301E+03  0.19609658024E+03  0.92395760270E+02 0.  0.
        -11    1    3    3    0    0 -0.19396150274E+02 -0.41344404764E+02  0.71675570295E+02  0.84987986375E+02  0.51100000000E-03 0. -1.
         11    1    3    3    0    0  0.19396150274E+02  0.41344404764E+02  0.10128943271E+03  0.11110859386E+03  0.51100000000E-03 0.  1.
<mgrwt>
<rscale>  0 0.92395760E+02</rscale>
<asrwt>0</asrwt>
<pdfrwt beam="2">  1        2 0.17793523E-02 0.92395760E+02</pdfrwt>
<pdfrwt beam="1">  1       -2 0.28389349E-01 0.92395760E+02</pdfrwt>
<totfact> 0.62327372E+04</totfact>
</mgrwt>
</event>
