<event>
 5    1  0.8303392E-059  0.1249975E+03  0.7818608E-02  0.1235073E+00
         -1   -1    0    0    0  501 -0.00000000000E+00  0.00000000000E+00  0.11633997423E+03  0.11633997432E+03  0.46700000000E-02 0. -1.
          1   -1    0    0  501    0  0.00000000000E+00 -0.00000000000E+00 -0.33574835125E+02  0.33574835450E+02  0.46700000000E-02 0.  1.
         25    2    1    2    0    0  0.00000000000E+00  0.00000000000E+00  0.82765139101E+02  0.14991480977E+03  0.12499752773E+03 0.  0.
        -11    1    3    3    0    0 -0.16761366056E+02 -0.34425274856E+02  0.10062634182E+03  0.10766477422E+03  0.51100000000E-03 0. -1.
         11    1    3    3    0    0  0.16761366056E+02  0.34425274856E+02 -0.17861202715E+02  0.42250035547E+02  0.51100000000E-03 0.  1.
<mgrwt>
<rscale>  0 0.12499753E+03</rscale>
<asrwt>0</asrwt>
<pdfrwt beam="2">  1        1 0.51653593E-02 0.12499753E+03</pdfrwt>
<pdfrwt beam="1">  1       -1 0.17898457E-01 0.12499753E+03</pdfrwt>
<totfact> 0.34835464E+04</totfact>
</mgrwt>
</event>
<event>
 5    1  0.8303392E-059  0.1250035E+03  0.7818608E-02  0.1235064E+00
          1   -1    0    0  501    0  0.00000000000E+00  0.00000000000E+00  0.39596441277E+03  0.39596441279E+03  0.46700000000E-02 0. -1.
         -1   -1    0    0    0  501 -0.00000000000E+00 -0.00000000000E+00 -0.98657127604E+01  0.98657138657E+01  0.46700000000E-02 0.  1.
         25    2    1    2    0    0  0.00000000000E+00  0.00000000000E+00  0.38609870001E+03  0.40583012666E+03  0.12500354218E+03 0.  0.
        -11    1    3    3    0    0 -0.17032806882E+02  0.57574168001E+02  0.24942818192E+03  0.25655276118E+03  0.51100000000E-03 0. -1.
         11    1    3    3    0    0  0.17032806882E+02 -0.57574168001E+02  0.13667051809E+03  0.14927736548E+03  0.51100000000E-03 0.  1.
<mgrwt>
<rscale>  0 0.12500354E+03</rscale>
<asrwt>0</asrwt>
<pdfrwt beam="1">  1        1 0.60917596E-01 0.12500354E+03</pdfrwt>
<pdfrwt beam="2">  1       -1 0.15178022E-02 0.12500354E+03</pdfrwt>
<totfact> 0.57465158E+04</totfact>
</mgrwt>
</event>
<event>
 5    1  0.8303392E-059  0.1249997E+03  0.7818608E-02  0.1235070E+00
         -1   -1    0    0    0  501 -0.00000000000E+00  0.00000000000E+00  0.11203938417E+02  0.11203939390E+02  0.46700000000E-02 0.  1.
          1   -1    0    0  501    0  0.00000000000E+00 -0.00000000000E+00 -0.34864791166E+03  0.34864791169E+03  0.46700000000E-02 0. -1.
         25    2    1    2    0    0  0.00000000000E+00  0.00000000000E+00 -0.33744397324E+03  0.35985185108E+03  0.12499967859E+03 0.  0.
        -11    1    3    3    0    0  0.49459295415E+02  0.37289428869E+02 -0.19272288876E+03  0.20243229797E+03  0.51100000000E-03 0. -1.
         11    1    3    3    0    0 -0.49459295415E+02 -0.37289428869E+02 -0.14472108448E+03  0.15741955311E+03  0.51100000000E-03 0.  1.
<mgrwt>
<rscale>  0 0.12499968E+03</rscale>
<asrwt>0</asrwt>
<pdfrwt beam="2">  1        1 0.53638132E-01 0.12499968E+03</pdfrwt>
<pdfrwt beam="1">  1       -1 0.17236832E-02 0.12499968E+03</pdfrwt>
<totfact> 0.56137097E+04</totfact>
</mgrwt>
</event>
<event>
 5    1  0.8303392E-059  0.1250036E+03  0.7818608E-02  0.1235064E+00
          1   -1    0    0  501    0  0.00000000000E+00  0.00000000000E+00  0.29459106460E+03  0.29459106463E+03  0.46700000000E-02 0. -1.
         -1   -1    0    0    0  501 -0.00000000000E+00 -0.00000000000E+00 -0.13260666923E+02  0.13260667746E+02  0.46700000000E-02 0.  1.
         25    2    1    2    0    0  0.00000000000E+00  0.00000000000E+00  0.28133039767E+03  0.30785173238E+03  0.12500358584E+03 0.  0.
        -11    1    3    3    0    0 -0.55803048054E+02  0.24101401880E+02  0.17649082290E+03  0.18666512345E+03  0.51100000000E-03 0.  1.
         11    1    3    3    0    0  0.55803048054E+02 -0.24101401880E+02  0.10483957478E+03  0.12118660893E+03  0.51100000000E-03 0. -1.
<mgrwt>
<rscale>  0 0.12500359E+03</rscale>
<asrwt>0</asrwt>
<pdfrwt beam="1">  1        1 0.45321699E-01 0.12500359E+03</pdfrwt>
<pdfrwt beam="2">  1       -1 0.20401028E-02 0.12500359E+03</pdfrwt>
<totfact> 0.54277140E+04</totfact>
</mgrwt>
</event>
<event>
 5    1  0.8303392E-059  0.1250017E+03  0.7818608E-02  0.1235067E+00
          1   -1    0    0  501    0  0.00000000000E+00  0.00000000000E+00  0.16658644958E+03  0.16658644964E+03  0.46700000000E-02 0. -1.
         -1   -1    0    0    0  501 -0.00000000000E+00 -0.00000000000E+00 -0.23449435077E+02  0.23449435542E+02  0.46700000000E-02 0.  1.
         25    2    1    2    0    0  0.00000000000E+00  0.00000000000E+00  0.14313701450E+03  0.19003588518E+03  0.12500173094E+03 0.  0.
        -11    1    3    3    0    0  0.45659076377E+02 -0.40433585176E+02  0.92342936612E+02  0.11066545987E+03  0.51100000000E-03 0.  1.
         11    1    3    3    0    0 -0.45659076377E+02  0.40433585176E+02  0.50794077887E+02  0.79370425313E+02  0.51100000000E-03 0. -1.
<mgrwt>
<rscale>  0 0.12500173E+03</rscale>
<asrwt>0</asrwt>
<pdfrwt beam="1">  1        1 0.25628684E-01 0.12500173E+03</pdfrwt>
<pdfrwt beam="2">  1       -1 0.36076055E-02 0.12500173E+03</pdfrwt>
<totfact> 0.48103303E+04</totfact>
</mgrwt>
</event>
<event>
 5    1  0.8303392E-059  0.1250002E+03  0.7818608E-02  0.1235069E+00
         -1   -1    0    0    0  501 -0.00000000000E+00  0.00000000000E+00  0.78697397220E+02  0.78697397358E+02  0.46700000000E-02 0.  1.
          1   -1    0    0  501    0  0.00000000000E+00 -0.00000000000E+00 -0.49636508903E+02  0.49636509122E+02  0.46700000000E-02 0. -1.
         25    2    1    2    0    0  0.00000000000E+00  0.00000000000E+00  0.29060888317E+02  0.12833390648E+03  0.12500022529E+03 0.  0.
        -11    1    3    3    0    0 -0.57280206027E+02  0.48185795900E+01  0.39720973487E+02  0.69871284851E+02  0.51100000000E-03 0.  1.
         11    1    3    3    0    0  0.57280206027E+02 -0.48185795900E+01 -0.10660085170E+02  0.58462621630E+02  0.51100000000E-03 0. -1.
<mgrwt>
<rscale>  0 0.12500023E+03</rscale>
<asrwt>0</asrwt>
<pdfrwt beam="2">  1        1 0.76363861E-02 0.12500023E+03</pdfrwt>
<pdfrwt beam="1">  1       -1 0.12107292E-01 0.12500023E+03</pdfrwt>
<totfact> 0.37816123E+04</totfact>
</mgrwt>
</event>
<event>
 5    1  0.8303392E-059  0.1250000E+03  0.7818608E-02  0.1235069E+00
          1   -1    0    0  501    0  0.00000000000E+00  0.00000000000E+00  0.11727616612E+03  0.11727616621E+03  0.46700000000E-02 0.  1.
         -1   -1    0    0    0  501 -0.00000000000E+00 -0.00000000000E+00 -0.33308144283E+02  0.33308144610E+02  0.46700000000E-02 0. -1.
         25    2    1    2    0    0  0.00000000000E+00  0.00000000000E+00  0.83968021834E+02  0.15058431082E+03  0.12500002390E+03 0.  0.
        -11    1    3    3    0    0  0.29686851494E+02 -0.54546091254E+02  0.33494153340E+02  0.70558086219E+02  0.51100000000E-03 0. -1.
         11    1    3    3    0    0 -0.29686851494E+02  0.54546091254E+02  0.50473868494E+02  0.80026224600E+02  0.51100000000E-03 0.  1.
<mgrwt>
<rscale>  0 0.12500002E+03</rscale>
<asrwt>0</asrwt>
<pdfrwt beam="1">  1        1 0.18042487E-01 0.12500002E+03</pdfrwt>
<pdfrwt beam="2">  1       -1 0.51243300E-02 0.12500002E+03</pdfrwt>
<totfact> 0.44751728E+04</totfact>
</mgrwt>
</event>
<event>
 4    1  0.8303392E-059  0.1250598E+03  0.7818608E-02  0.1234976E+00
         -1   -1    0    0    0  501 -0.00000000000E+00  0.00000000000E+00  0.42753103427E+02  0.42753103682E+02  0.46700000000E-02 0.  1.
          1   -1    0    0  501    0  0.00000000000E+00 -0.00000000000E+00 -0.91455056602E+02  0.91455056721E+02  0.46700000000E-02 0. -1.
        -11    1    1    2    0    0 -0.31683674973E+02  0.42773604212E+02 -0.59561992457E+02  0.79881583753E+02  0.51100000000E-03 0. -1.
         11    1    1    2    0    0  0.31683674973E+02 -0.42773604212E+02  0.10860039282E+02  0.54326576651E+02  0.51100000000E-03 0.  1.
<mgrwt>
<rscale>  0 0.12505979E+03</rscale>
<asrwt>0</asrwt>
<pdfrwt beam="2">  1        1 0.14070009E-01 0.12505979E+03</pdfrwt>
<pdfrwt beam="1">  1       -1 0.65774005E-02 0.12505979E+03</pdfrwt>
<totfact> 0.42542381E+04</totfact>
</mgrwt>
</event>
<event>
 5    1  0.8303392E-059  0.1249991E+03  0.7818608E-02  0.1235071E+00
          1   -1    0    0  501    0  0.00000000000E+00  0.00000000000E+00  0.16460815392E+03  0.16460815398E+03  0.46700000000E-02 0. -1.
         -1   -1    0    0    0  501 -0.00000000000E+00 -0.00000000000E+00 -0.23730274123E+02  0.23730274583E+02  0.46700000000E-02 0.  1.
         25    2    1    2    0    0  0.00000000000E+00  0.00000000000E+00  0.14087787979E+03  0.18833842857E+03  0.12499914663E+03 0.  0.
        -11    1    3    3    0    0 -0.39100631247E+02  0.43472482498E+02  0.37172176622E+02  0.69285545488E+02  0.51100000000E-03 0.  1.
         11    1    3    3    0    0  0.39100631247E+02 -0.43472482498E+02  0.10370570317E+03  0.11905288308E+03  0.51100000000E-03 0. -1.
<mgrwt>
<rscale>  0 0.12499915E+03</rscale>
<asrwt>0</asrwt>
<pdfrwt beam="1">  1        1 0.25324331E-01 0.12499915E+03</pdfrwt>
<pdfrwt beam="2">  1       -1 0.36508114E-02 0.12499915E+03</pdfrwt>
<totfact> 0.47985622E+04</totfact>
</mgrwt>
</event>
<event>
 5    1  0.8303392E-059  0.1250000E+03  0.7818608E-02  0.1235069E+00
          1   -1    0    0  501    0  0.00000000000E+00  0.00000000000E+00  0.38783691638E+02  0.38783691919E+02  0.46700000000E-02 0. -1.
         -1   -1    0    0    0  501 -0.00000000000E+00 -0.00000000000E+00 -0.10071894626E+03  0.10071894637E+03  0.46700000000E-02 0.  1.
         25    2    1    2    0    0  0.00000000000E+00  0.00000000000E+00 -0.61935254625E+02  0.13950263829E+03  0.12500004130E+03 0.  0.
        -11    1    3    3    0    0 -0.38410776414E+02  0.48576774860E+02 -0.40382092784E+02  0.73931077487E+02  0.51100000000E-03 0.  1.
         11    1    3    3    0    0  0.38410776414E+02 -0.48576774860E+02 -0.21553161841E+02  0.65571560803E+02  0.51100000000E-03 0. -1.
<mgrwt>
<rscale>  0 0.12500004E+03</rscale>
<asrwt>0</asrwt>
<pdfrwt beam="1">  1        1 0.59667219E-02 0.12500004E+03</pdfrwt>
<pdfrwt beam="2">  1       -1 0.15495222E-01 0.12500004E+03</pdfrwt>
<totfact> 0.35946116E+04</totfact>
</mgrwt>
</event>
<event>
 5    1  0.8303392E-059  0.1249994E+03  0.7818608E-02  0.1235070E+00
         -1   -1    0    0    0  501 -0.00000000000E+00  0.00000000000E+00  0.42314253690E+02  0.42314253948E+02  0.46700000000E-02 0. -1.
          1   -1    0    0  501    0  0.00000000000E+00 -0.00000000000E+00 -0.92314268449E+02  0.92314268567E+02  0.46700000000E-02 0.  1.
         25    2    1    2    0    0  0.00000000000E+00  0.00000000000E+00 -0.50000014759E+02  0.13462852252E+03  0.12499935039E+03 0.  0.
        -11    1    3    3    0    0  0.48338381693E+02  0.31766678172E+02  0.49837577872E+00  0.57844354655E+02  0.51100000000E-03 0. -1.
         11    1    3    3    0    0 -0.48338381693E+02 -0.31766678172E+02 -0.50498390538E+02  0.76784167860E+02  0.51100000000E-03 0.  1.
<mgrwt>
<rscale>  0 0.12499935E+03</rscale>
<asrwt>0</asrwt>
<pdfrwt beam="2">  1        1 0.14202195E-01 0.12499935E+03</pdfrwt>
<pdfrwt beam="1">  1       -1 0.65098852E-02 0.12499935E+03</pdfrwt>
<totfact> 0.42679332E+04</totfact>
</mgrwt>
</event>
<event>
 5    1  0.8303392E-059  0.1249984E+03  0.7818608E-02  0.1235072E+00
          1   -1    0    0  501    0  0.00000000000E+00  0.00000000000E+00  0.10113446836E+02  0.10113447914E+02  0.46700000000E-02 0. -1.
         -1   -1    0    0    0  501 -0.00000000000E+00 -0.00000000000E+00 -0.38623346426E+03  0.38623346429E+03  0.46700000000E-02 0.  1.
         25    2    1    2    0    0  0.00000000000E+00  0.00000000000E+00 -0.37612001743E+03  0.39634691221E+03  0.12499842921E+03 0.  0.
        -11    1    3    3    0    0  0.48048353256E+02  0.31025869758E+02 -0.26795592959E+03  0.27399202369E+03  0.51100000000E-03 0.  1.
         11    1    3    3    0    0 -0.48048353256E+02 -0.31025869758E+02 -0.10816408784E+03  0.12235488851E+03  0.51100000000E-03 0. -1.
<mgrwt>
<rscale>  0 0.12499843E+03</rscale>
<asrwt>0</asrwt>
<pdfrwt beam="1">  1        1 0.15559153E-02 0.12499843E+03</pdfrwt>
<pdfrwt beam="2">  1       -1 0.59420522E-01 0.12499843E+03</pdfrwt>
<totfact> 0.23516411E+04</totfact>
</mgrwt>
</event>
<event>
 4    1  0.8303392E-059  0.1251038E+03  0.7818608E-02  0.1234907E+00
          1   -1    0    0  501    0  0.00000000000E+00  0.00000000000E+00  0.20334269108E+03  0.20334269113E+03  0.46700000000E-02 0. -1.
         -1   -1    0    0    0  501 -0.00000000000E+00 -0.00000000000E+00 -0.19242093581E+02  0.19242094148E+02  0.46700000000E-02 0.  1.
        -11    1    1    2    0    0  0.59168905841E+02  0.24911337873E+01  0.56219203749E+02  0.81656377805E+02  0.51100000000E-03 0.  1.
         11    1    1    2    0    0 -0.59168905841E+02 -0.24911337873E+01  0.12788139375E+03  0.14092840748E+03  0.51100000000E-03 0. -1.
<mgrwt>
<rscale>  0 0.12510378E+03</rscale>
<asrwt>0</asrwt>
<pdfrwt beam="1">  1        1 0.31283490E-01 0.12510378E+03</pdfrwt>
<pdfrwt beam="2">  1       -1 0.29603223E-02 0.12510378E+03</pdfrwt>
<totfact> 0.50070212E+04</totfact>
</mgrwt>
</event>
<event>
 5    1  0.8303392E-059  0.1249995E+03  0.7818608E-02  0.1235070E+00
          1   -1    0    0  501    0  0.00000000000E+00  0.00000000000E+00  0.16226799465E+02  0.16226800137E+02  0.46700000000E-02 0. -1.
         -1   -1    0    0    0  501 -0.00000000000E+00 -0.00000000000E+00 -0.24072652624E+03  0.24072652629E+03  0.46700000000E-02 0.  1.
         25    2    1    2    0    0  0.00000000000E+00  0.00000000000E+00 -0.22449972678E+03  0.25695332642E+03  0.12499953855E+03 0.  0.
        -11    1    3    3    0    0  0.21916481624E+02 -0.58488287242E+02 -0.10764907679E+03  0.12445696303E+03  0.51100000000E-03 0.  1.
         11    1    3    3    0    0 -0.21916481624E+02  0.58488287242E+02 -0.11685064998E+03  0.13249636340E+03  0.51100000000E-03 0. -1.
<mgrwt>
<rscale>  0 0.12499954E+03</rscale>
<asrwt>0</asrwt>
<pdfrwt beam="1">  1        1 0.24964309E-02 0.12499954E+03</pdfrwt>
<pdfrwt beam="2">  1       -1 0.37034848E-01 0.12499954E+03</pdfrwt>
<totfact> 0.28564301E+04</totfact>
</mgrwt>
</event>
<event>
 5    1  0.8303392E-059  0.1249998E+03  0.7818608E-02  0.1235070E+00
         -1   -1    0    0    0  501 -0.00000000000E+00  0.00000000000E+00  0.65713545423E+02  0.65713545589E+02  0.46700000000E-02 0.  1.
          1   -1    0    0  501    0  0.00000000000E+00 -0.00000000000E+00 -0.59443412327E+02  0.59443412510E+02  0.46700000000E-02 0. -1.
         25    2    1    2    0    0  0.00000000000E+00  0.00000000000E+00  0.62701330964E+01  0.12515695810E+03  0.12499979837E+03 0.  0.
        -11    1    3    3    0    0 -0.22465575284E+01  0.61901599839E+02  0.11475143881E+02  0.62996301564E+02  0.51100000000E-03 0.  1.
         11    1    3    3    0    0  0.22465575284E+01 -0.61901599839E+02 -0.52050107846E+01  0.62160656535E+02  0.51100000000E-03 0. -1.
<mgrwt>
<rscale>  0 0.12499980E+03</rscale>
<asrwt>0</asrwt>
<pdfrwt beam="2">  1        1 0.91451404E-02 0.12499980E+03</pdfrwt>
<pdfrwt beam="1">  1       -1 0.10109776E-01 0.12499980E+03</pdfrwt>
<totfact> 0.39184119E+04</totfact>
</mgrwt>
</event>
<event>
 5    1  0.8303392E-059  0.1250015E+03  0.7818608E-02  0.1235067E+00
          1   -1    0    0  501    0  0.00000000000E+00  0.00000000000E+00  0.11127073776E+02  0.11127074756E+02  0.46700000000E-02 0. -1.
         -1   -1    0    0    0  501 -0.00000000000E+00 -0.00000000000E+00 -0.35106681183E+03  0.35106681186E+03  0.46700000000E-02 0.  1.
         25    2    1    2    0    0  0.00000000000E+00  0.00000000000E+00 -0.33993973805E+03  0.36219388662E+03  0.12500154397E+03 0.  0.
        -11    1    3    3    0    0 -0.29794689399E+02 -0.43363710294E+02 -0.26772447833E+03  0.27284525135E+03  0.51100000000E-03 0.  1.
         11    1    3    3    0    0  0.29794689399E+02  0.43363710294E+02 -0.72215259719E+02  0.89348635263E+02  0.51100000000E-03 0. -1.
<mgrwt>
<rscale>  0 0.12500154E+03</rscale>
<asrwt>0</asrwt>
<pdfrwt beam="1">  1        1 0.17118578E-02 0.12500154E+03</pdfrwt>
<pdfrwt beam="2">  1       -1 0.54010270E-01 0.12500154E+03</pdfrwt>
<totfact> 0.24609036E+04</totfact>
</mgrwt>
</event>
<event>
 5    1  0.8303392E-059  0.1250135E+03  0.7818608E-02  0.1235048E+00
         -1   -1    0    0    0  501 -0.00000000000E+00  0.00000000000E+00  0.20864426995E+02  0.20864427518E+02  0.46700000000E-02 0.  1.
          1   -1    0    0  501    0  0.00000000000E+00 -0.00000000000E+00 -0.18726092082E+03  0.18726092088E+03  0.46700000000E-02 0. -1.
         25    2    1    2    0    0  0.00000000000E+00  0.00000000000E+00 -0.16639649382E+03  0.20812534839E+03  0.12501346922E+03 0.  0.
        -11    1    3    3    0    0  0.49469320190E+02 -0.26538561961E+02 -0.12896069489E+03  0.14064981243E+03  0.51100000000E-03 0.  1.
         11    1    3    3    0    0 -0.49469320190E+02  0.26538561961E+02 -0.37435798932E+02  0.67475535959E+02  0.51100000000E-03 0. -1.
<mgrwt>
<rscale>  0 0.12501347E+03</rscale>
<asrwt>0</asrwt>
<pdfrwt beam="2">  1        1 0.28809371E-01 0.12501347E+03</pdfrwt>
<pdfrwt beam="1">  1       -1 0.32099120E-02 0.12501347E+03</pdfrwt>
<totfact> 0.49296132E+04</totfact>
</mgrwt>
</event>
<event>
 5    1  0.8303392E-059  0.1250002E+03  0.7818608E-02  0.1235069E+00
          1   -1    0    0  501    0  0.00000000000E+00  0.00000000000E+00  0.13590633573E+03  0.13590633582E+03  0.46700000000E-02 0.  1.
         -1   -1    0    0    0  501 -0.00000000000E+00 -0.00000000000E+00 -0.28742314144E+02  0.28742314523E+02  0.46700000000E-02 0. -1.
         25    2    1    2    0    0  0.00000000000E+00  0.00000000000E+00  0.10716402159E+03  0.16464865034E+03  0.12500020214E+03 0.  0.
        -11    1    3    3    0    0 -0.51986134374E+02  0.23012373587E+02  0.87781603886E+02  0.10458363871E+03  0.51100000000E-03 0. -1.
         11    1    3    3    0    0  0.51986134374E+02 -0.23012373587E+02  0.19382417704E+02  0.60065011626E+02  0.51100000000E-03 0.  1.
<mgrwt>
<rscale>  0 0.12500020E+03</rscale>
<asrwt>0</asrwt>
<pdfrwt beam="1">  1        1 0.20908667E-01 0.12500020E+03</pdfrwt>
<pdfrwt beam="2">  1       -1 0.44218945E-02 0.12500020E+03</pdfrwt>
<totfact> 0.46113361E+04</totfact>
</mgrwt>
</event>
<event>
 5    1  0.8303392E-059  0.1249961E+03  0.7818608E-02  0.1235075E+00
          1   -1    0    0  501    0  0.00000000000E+00  0.00000000000E+00  0.86324334552E+02  0.86324334678E+02  0.46700000000E-02 0. -1.
         -1   -1    0    0    0  501 -0.00000000000E+00 -0.00000000000E+00 -0.45248033869E+02  0.45248034110E+02  0.46700000000E-02 0.  1.
         25    2    1    2    0    0  0.00000000000E+00  0.00000000000E+00  0.41076300683E+02  0.13157236879E+03  0.12499610294E+03 0.  0.
        -11    1    3    3    0    0 -0.49391311284E+02 -0.96246283286E+01 -0.18477715754E+02  0.53605606801E+02  0.51100000000E-03 0.  1.
         11    1    3    3    0    0  0.49391311284E+02  0.96246283286E+01  0.59554016437E+02  0.77966761987E+02  0.51100000000E-03 0. -1.
<mgrwt>
<rscale>  0 0.12499610E+03</rscale>
<asrwt>0</asrwt>
<pdfrwt beam="1">  1        1 0.13280667E-01 0.12499610E+03</pdfrwt>
<pdfrwt beam="2">  1       -1 0.69612359E-02 0.12499610E+03</pdfrwt>
<totfact> 0.42126758E+04</totfact>
</mgrwt>
</event>
<event>
 5    1  0.8303392E-059  0.1250022E+03  0.7818608E-02  0.1235066E+00
         -1   -1    0    0    0  501 -0.00000000000E+00  0.00000000000E+00  0.49245014577E+02  0.49245014798E+02  0.46700000000E-02 0.  1.
          1   -1    0    0  501    0  0.00000000000E+00 -0.00000000000E+00 -0.79325479632E+02  0.79325479769E+02  0.46700000000E-02 0. -1.
         25    2    1    2    0    0  0.00000000000E+00  0.00000000000E+00 -0.30080465055E+02  0.12857049457E+03  0.12500215076E+03 0.  0.
        -11    1    3    3    0    0 -0.59613801162E+02  0.18746784576E+02 -0.16137071254E+02  0.64541864629E+02  0.51100000000E-03 0. -1.
         11    1    3    3    0    0  0.59613801162E+02 -0.18746784576E+02 -0.13943393801E+02  0.64028629939E+02  0.51100000000E-03 0.  1.
<mgrwt>
<rscale>  0 0.12500215E+03</rscale>
<asrwt>0</asrwt>
<pdfrwt beam="2">  1        1 0.12203920E-01 0.12500215E+03</pdfrwt>
<pdfrwt beam="1">  1       -1 0.75761561E-02 0.12500215E+03</pdfrwt>
<totfact> 0.41434871E+04</totfact>
</mgrwt>
</event>
<event>
 5    1  0.8303392E-059  0.1250042E+03  0.7818608E-02  0.1235063E+00
         -1   -1    0    0    0  501 -0.00000000000E+00  0.00000000000E+00  0.10661290759E+02  0.10661291781E+02  0.46700000000E-02 0.  1.
          1   -1    0    0  501    0  0.00000000000E+00 -0.00000000000E+00 -0.36642039020E+03  0.36642039023E+03  0.46700000000E-02 0. -1.
         25    2    1    2    0    0  0.00000000000E+00  0.00000000000E+00 -0.35575909944E+03  0.37708168201E+03  0.12500423222E+03 0.  0.
        -11    1    3    3    0    0  0.31077378000E+02 -0.45957350201E+02 -0.26471395737E+03  0.27046508219E+03  0.51100000000E-03 0.  1.
         11    1    3    3    0    0 -0.31077378000E+02  0.45957350201E+02 -0.91045142072E+02  0.10661659981E+03  0.51100000000E-03 0. -1.
<mgrwt>
<rscale>  0 0.12500423E+03</rscale>
<asrwt>0</asrwt>
<pdfrwt beam="2">  1        1 0.56372358E-01 0.12500423E+03</pdfrwt>
<pdfrwt beam="1">  1       -1 0.16401989E-02 0.12500423E+03</pdfrwt>
<totfact> 0.56660508E+04</totfact>
</mgrwt>
</event>
<event>
 5    1  0.8303392E-059  0.1250137E+03  0.7818608E-02  0.1235048E+00
          1   -1    0    0  501    0  0.00000000000E+00  0.00000000000E+00  0.61269201230E+02  0.61269201408E+02  0.46700000000E-02 0. -1.
         -1   -1    0    0    0  501 -0.00000000000E+00 -0.00000000000E+00 -0.63769461504E+02  0.63769461675E+02  0.46700000000E-02 0.  1.
         25    2    1    2    0    0  0.00000000000E+00  0.00000000000E+00 -0.25002602734E+01  0.12503866308E+03  0.12501366311E+03 0.  0.
        -11    1    3    3    0    0  0.56899187468E+02  0.25672839184E+02  0.19896200324E+01  0.62454549830E+02  0.51100000000E-03 0.  1.
         11    1    3    3    0    0 -0.56899187468E+02 -0.25672839184E+02 -0.44898803058E+01  0.62584113253E+02  0.51100000000E-03 0. -1.
<mgrwt>
<rscale>  0 0.12501366E+03</rscale>
<asrwt>0</asrwt>
<pdfrwt beam="1">  1        1 0.94260311E-02 0.12501366E+03</pdfrwt>
<pdfrwt beam="2">  1       -1 0.98106863E-02 0.12501366E+03</pdfrwt>
<totfact> 0.39402932E+04</totfact>
</mgrwt>
</event>
<event>
 5    1  0.8303392E-059  0.1250025E+03  0.7818608E-02  0.1235065E+00
         -1   -1    0    0    0  501 -0.00000000000E+00  0.00000000000E+00  0.15348125391E+03  0.15348125398E+03  0.46700000000E-02 0.  1.
          1   -1    0    0  501    0  0.00000000000E+00 -0.00000000000E+00 -0.25452016902E+02  0.25452017330E+02  0.46700000000E-02 0. -1.
         25    2    1    2    0    0  0.00000000000E+00  0.00000000000E+00  0.12802923700E+03  0.17893327131E+03  0.12500252019E+03 0.  0.
        -11    1    3    3    0    0 -0.41374266951E+02 -0.25357777373E+02  0.12039872655E+03  0.12981024688E+03  0.51100000000E-03 0.  1.
         11    1    3    3    0    0  0.41374266951E+02  0.25357777373E+02  0.76305104517E+01  0.49123024429E+02  0.51100000000E-03 0. -1.
<mgrwt>
<rscale>  0 0.12500252E+03</rscale>
<asrwt>0</asrwt>
<pdfrwt beam="2">  1        1 0.39156950E-02 0.12500252E+03</pdfrwt>
<pdfrwt beam="1">  1       -1 0.23612501E-01 0.12500252E+03</pdfrwt>
<totfact> 0.32602946E+04</totfact>
</mgrwt>
</event>
<event>
 5    1  0.8303392E-059  0.1249988E+03  0.7818608E-02  0.1235071E+00
          1   -1    0    0  501    0  0.00000000000E+00  0.00000000000E+00  0.16909179694E+02  0.16909180339E+02  0.46700000000E-02 0. -1.
         -1   -1    0    0    0  501 -0.00000000000E+00 -0.00000000000E+00 -0.23100906482E+03  0.23100906487E+03  0.46700000000E-02 0.  1.
         25    2    1    2    0    0  0.00000000000E+00  0.00000000000E+00 -0.21409988513E+03  0.24791824521E+03  0.12499878197E+03 0.  0.
        -11    1    3    3    0    0 -0.48714113200E+02 -0.38929281200E+02 -0.11537538004E+03  0.13114889279E+03  0.51100000000E-03 0.  1.
         11    1    3    3    0    0  0.48714113200E+02  0.38929281200E+02 -0.98724505086E+02  0.11676935242E+03  0.51100000000E-03 0. -1.
<mgrwt>
<rscale>  0 0.12499878E+03</rscale>
<asrwt>0</asrwt>
<pdfrwt beam="1">  1        1 0.26014125E-02 0.12499878E+03</pdfrwt>
<pdfrwt beam="2">  1       -1 0.35539854E-01 0.12499878E+03</pdfrwt>
<totfact> 0.28962159E+04</totfact>
</mgrwt>
</event>
<event>
 5    1  0.8303392E-059  0.1250024E+03  0.7818608E-02  0.1235066E+00
         -1   -1    0    0    0  501 -0.00000000000E+00  0.00000000000E+00  0.32327423736E+02  0.32327424074E+02  0.46700000000E-02 0.  1.
          1   -1    0    0  501    0  0.00000000000E+00 -0.00000000000E+00 -0.12083860307E+03  0.12083860316E+03  0.46700000000E-02 0. -1.
         25    2    1    2    0    0  0.00000000000E+00  0.00000000000E+00 -0.88511179336E+02  0.15316602724E+03  0.12500241210E+03 0.  0.
        -11    1    3    3    0    0  0.21259646569E+02  0.58582664520E+02 -0.38443511007E+02  0.73224344950E+02  0.51100000000E-03 0.  1.
         11    1    3    3    0    0 -0.21259646569E+02 -0.58582664520E+02 -0.50067668328E+02  0.79941682286E+02  0.51100000000E-03 0. -1.
<mgrwt>
<rscale>  0 0.12500241E+03</rscale>
<asrwt>0</asrwt>
<pdfrwt beam="2">  1        1 0.18590554E-01 0.12500241E+03</pdfrwt>
<pdfrwt beam="1">  1       -1 0.49734499E-02 0.12500241E+03</pdfrwt>
<totfact> 0.45019735E+04</totfact>
</mgrwt>
</event>
<event>
 5    1  0.8303392E-059  0.1249998E+03  0.7818608E-02  0.1235070E+00
          1   -1    0    0  501    0  0.00000000000E+00  0.00000000000E+00  0.40044628624E+02  0.40044628897E+02  0.46700000000E-02 0. -1.
         -1   -1    0    0    0  501 -0.00000000000E+00 -0.00000000000E+00 -0.97547093702E+02  0.97547093814E+02  0.46700000000E-02 0.  1.
         25    2    1    2    0    0  0.00000000000E+00  0.00000000000E+00 -0.57502465078E+02  0.13759172271E+03  0.12499979467E+03 0.  0.
        -11    1    3    3    0    0 -0.60419403314E+01  0.57837683371E+02 -0.53961069690E+02  0.79331580742E+02  0.51100000000E-03 0.  1.
         11    1    3    3    0    0  0.60419403314E+01 -0.57837683371E+02 -0.35413953881E+01  0.58260141969E+02  0.51100000000E-03 0. -1.
<mgrwt>
<rscale>  0 0.12499979E+03</rscale>
<asrwt>0</asrwt>
<pdfrwt beam="1">  1        1 0.61607121E-02 0.12499979E+03</pdfrwt>
<pdfrwt beam="2">  1       -1 0.15007245E-01 0.12499979E+03</pdfrwt>
<totfact> 0.36190548E+04</totfact>
</mgrwt>
</event>
<event>
 5    1  0.9615477E-059  0.1249954E+03  0.7818608E-02  0.1235076E+00
          1   -1    0    0  501    0  0.00000000000E+00  0.00000000000E+00  0.52314148662E+03  0.52314148664E+03  0.46700000000E-02 0. -1.
         -1   -1    0    0    0  501 -0.00000000000E+00 -0.00000000000E+00 -0.74663573341E+01  0.74663587946E+01  0.46700000000E-02 0.  1.
         25    2    1    2    0    0  0.00000000000E+00  0.00000000000E+00  0.51567512928E+03  0.53060784543E+03  0.12499538661E+03 0.  0.
        -11    1    3    3    0    0 -0.51888434231E+02 -0.27578066270E+02  0.16748720263E+03  0.17749626022E+03  0.51100000000E-03 0.  1.
         11    1    3    3    0    0  0.51888434231E+02  0.27578066270E+02  0.34818792665E+03  0.35311158521E+03  0.51100000000E-03 0. -1.
<mgrwt>
<rscale>  0 0.12499539E+03</rscale>
<asrwt>0</asrwt>
<pdfrwt beam="1">  1        1 0.80483331E-01 0.12499539E+03</pdfrwt>
<pdfrwt beam="2">  1       -1 0.11486701E-02 0.12499539E+03</pdfrwt>
<totfact> 0.59895916E+04</totfact>
</mgrwt>
</event>
<event>
 5    1  0.8303392E-059  0.1250008E+03  0.7818608E-02  0.1235068E+00
          1   -1    0    0  501    0  0.00000000000E+00  0.00000000000E+00  0.81522665878E+02  0.81522666011E+02  0.46700000000E-02 0. -1.
         -1   -1    0    0    0  501 -0.00000000000E+00 -0.00000000000E+00 -0.47916735049E+02  0.47916735277E+02  0.46700000000E-02 0.  1.
         25    2    1    2    0    0  0.00000000000E+00  0.00000000000E+00  0.33605930828E+02  0.12943940129E+03  0.12500080007E+03 0.  0.
        -11    1    3    3    0    0  0.51482757948E+02 -0.31472772304E+02  0.33669052591E+02  0.69098588011E+02  0.51100000000E-03 0. -1.
         11    1    3    3    0    0 -0.51482757948E+02  0.31472772304E+02 -0.63121763021E-01  0.60340813278E+02  0.51100000000E-03 0.  1.
<mgrwt>
<rscale>  0 0.12500080E+03</rscale>
<asrwt>0</asrwt>
<pdfrwt beam="1">  1        1 0.12541949E-01 0.12500080E+03</pdfrwt>
<pdfrwt beam="2">  1       -1 0.73718055E-02 0.12500080E+03</pdfrwt>
<totfact> 0.41656189E+04</totfact>
</mgrwt>
</event>
<event>
 5    1  0.8303392E-059  0.1249977E+03  0.7818608E-02  0.1235073E+00
          1   -1    0    0  501    0  0.00000000000E+00  0.00000000000E+00  0.61137647438E+02  0.61137647617E+02  0.46700000000E-02 0. -1.
         -1   -1    0    0    0  501 -0.00000000000E+00 -0.00000000000E+00 -0.63890369722E+02  0.63890369893E+02  0.46700000000E-02 0.  1.
         25    2    1    2    0    0  0.00000000000E+00  0.00000000000E+00 -0.27527222837E+01  0.12502801751E+03  0.12499771071E+03 0.  0.
        -11    1    3    3    0    0 -0.33148127450E+02  0.47255847814E+02 -0.25344504259E+02  0.63041711609E+02  0.51100000000E-03 0.  1.
         11    1    3    3    0    0  0.33148127450E+02 -0.47255847814E+02  0.22591781976E+02  0.61986305901E+02  0.51100000000E-03 0. -1.
<mgrwt>
<rscale>  0 0.12499771E+03</rscale>
<asrwt>0</asrwt>
<pdfrwt beam="1">  1        1 0.94057919E-02 0.12499771E+03</pdfrwt>
<pdfrwt beam="2">  1       -1 0.98292877E-02 0.12499771E+03</pdfrwt>
<totfact> 0.39401135E+04</totfact>
</mgrwt>
</event>
<event>
 5    1  0.8303392E-059  0.1249990E+03  0.7818608E-02  0.1235071E+00
          1   -1    0    0  501    0  0.00000000000E+00  0.00000000000E+00  0.13352401974E+03  0.13352401983E+03  0.46700000000E-02 0. -1.
         -1   -1    0    0    0  501 -0.00000000000E+00 -0.00000000000E+00 -0.29254583452E+02  0.29254583825E+02  0.46700000000E-02 0.  1.
         25    2    1    2    0    0  0.00000000000E+00  0.00000000000E+00  0.10426943629E+03  0.16277860365E+03  0.12499903384E+03 0.  0.
        -11    1    3    3    0    0  0.60910583291E+02 -0.11249120063E+02  0.62994778125E+02  0.88345820106E+02  0.51100000000E-03 0. -1.
         11    1    3    3    0    0 -0.60910583291E+02  0.11249120063E+02  0.41274658167E+02  0.74432783544E+02  0.51100000000E-03 0.  1.
<mgrwt>
<rscale>  0 0.12499903E+03</rscale>
<asrwt>0</asrwt>
<pdfrwt beam="1">  1        1 0.20542157E-01 0.12499903E+03</pdfrwt>
<pdfrwt beam="2">  1       -1 0.45007052E-02 0.12499903E+03</pdfrwt>
<totfact> 0.45947540E+04</totfact>
</mgrwt>
</event>
<event>
 5    1  0.8303392E-059  0.1250026E+03  0.7818608E-02  0.1235065E+00
          1   -1    0    0  501    0  0.00000000000E+00  0.00000000000E+00  0.19886603361E+03  0.19886603367E+03  0.46700000000E-02 0. -1.
         -1   -1    0    0    0  501 -0.00000000000E+00 -0.00000000000E+00 -0.19643439089E+02  0.19643439644E+02  0.46700000000E-02 0.  1.
         25    2    1    2    0    0  0.00000000000E+00  0.00000000000E+00  0.17922259452E+03  0.21850947331E+03  0.12500260613E+03 0.  0.
        -11    1    3    3    0    0  0.50049460206E+02 -0.35887415167E+02  0.10823902080E+03  0.12453329137E+03  0.51100000000E-03 0. -1.
         11    1    3    3    0    0 -0.50049460206E+02  0.35887415167E+02  0.70983573718E+02  0.93976181941E+02  0.51100000000E-03 0.  1.
<mgrwt>
<rscale>  0 0.12500261E+03</rscale>
<asrwt>0</asrwt>
<pdfrwt beam="1">  1        1 0.30594775E-01 0.12500261E+03</pdfrwt>
<pdfrwt beam="2">  1       -1 0.30220675E-02 0.12500261E+03</pdfrwt>
<totfact> 0.49944854E+04</totfact>
</mgrwt>
</event>
<event>
 5    1  0.8303392E-059  0.1249969E+03  0.7818608E-02  0.1235074E+00
         -1   -1    0    0    0  501 -0.00000000000E+00  0.00000000000E+00  0.26881622309E+02  0.26881622715E+02  0.46700000000E-02 0.  1.
          1   -1    0    0  501    0  0.00000000000E+00 -0.00000000000E+00 -0.14530587898E+03  0.14530587905E+03  0.46700000000E-02 0. -1.
         25    2    1    2    0    0  0.00000000000E+00  0.00000000000E+00 -0.11842425667E+03  0.17218750177E+03  0.12499692475E+03 0.  0.
        -11    1    3    3    0    0  0.56925021609E+02  0.23119961677E+02 -0.43441495579E+02  0.75247287336E+02  0.51100000000E-03 0.  1.
         11    1    3    3    0    0 -0.56925021609E+02 -0.23119961677E+02 -0.74982761090E+02  0.96940214431E+02  0.51100000000E-03 0. -1.
<mgrwt>
<rscale>  0 0.12499692E+03</rscale>
<asrwt>0</asrwt>
<pdfrwt beam="2">  1        1 0.22354750E-01 0.12499692E+03</pdfrwt>
<pdfrwt beam="1">  1       -1 0.41356343E-02 0.12499692E+03</pdfrwt>
<totfact> 0.46757070E+04</totfact>
</mgrwt>
</event>
<event>
 5    1  0.8303392E-059  0.1250001E+03  0.7818608E-02  0.1235069E+00
          1   -1    0    0  501    0  0.00000000000E+00  0.00000000000E+00  0.22666540757E+02  0.22666541238E+02  0.46700000000E-02 0. -1.
         -1   -1    0    0    0  501 -0.00000000000E+00 -0.00000000000E+00 -0.17233566273E+03  0.17233566279E+03  0.46700000000E-02 0.  1.
         25    2    1    2    0    0  0.00000000000E+00  0.00000000000E+00 -0.14966912197E+03  0.19500220403E+03  0.12500005402E+03 0.  0.
        -11    1    3    3    0    0  0.41303209483E+02 -0.46656868756E+02 -0.67282586681E+02  0.91704770794E+02  0.51100000000E-03 0.  1.
         11    1    3    3    0    0 -0.41303209483E+02  0.46656868756E+02 -0.82386535294E+02  0.10329743324E+03  0.51100000000E-03 0. -1.
<mgrwt>
<rscale>  0 0.12500005E+03</rscale>
<asrwt>0</asrwt>
<pdfrwt beam="1">  1        1 0.34871603E-02 0.12500005E+03</pdfrwt>
<pdfrwt beam="2">  1       -1 0.26513178E-01 0.12500005E+03</pdfrwt>
<totfact> 0.31623118E+04</totfact>
</mgrwt>
</event>
<event>
 5    1  0.8303392E-059  0.1250001E+03  0.7818608E-02  0.1235069E+00
         -1   -1    0    0    0  501 -0.00000000000E+00  0.00000000000E+00  0.36253181837E+02  0.36253182137E+02  0.46700000000E-02 0.  1.
          1   -1    0    0  501    0  0.00000000000E+00 -0.00000000000E+00 -0.10774926393E+03  0.10774926403E+03  0.46700000000E-02 0. -1.
         25    2    1    2    0    0  0.00000000000E+00  0.00000000000E+00 -0.71496082095E+02  0.14400244617E+03  0.12500005899E+03 0.  0.
        -11    1    3    3    0    0 -0.40900584465E+02 -0.28329235456E+02 -0.79324983033E+02  0.93636832094E+02  0.51100000000E-03 0. -1.
         11    1    3    3    0    0  0.40900584465E+02  0.28329235456E+02  0.78289009378E+01  0.50365614076E+02  0.51100000000E-03 0.  1.
<mgrwt>
<rscale>  0 0.12500006E+03</rscale>
<asrwt>0</asrwt>
<pdfrwt beam="2">  1        1 0.16576810E-01 0.12500006E+03</pdfrwt>
<pdfrwt beam="1">  1       -1 0.55774127E-02 0.12500006E+03</pdfrwt>
<totfact> 0.44000247E+04</totfact>
</mgrwt>
</event>
<event>
 5    1  0.8303392E-059  0.1249993E+03  0.7818608E-02  0.1235070E+00
         -1   -1    0    0    0  501 -0.00000000000E+00  0.00000000000E+00  0.23624966823E+03  0.23624966827E+03  0.46700000000E-02 0. -1.
          1   -1    0    0  501    0  0.00000000000E+00 -0.00000000000E+00 -0.16534239248E+02  0.16534239908E+02  0.46700000000E-02 0.  1.
         25    2    1    2    0    0  0.00000000000E+00  0.00000000000E+00  0.21971542898E+03  0.25278390818E+03  0.12499933801E+03 0.  0.
        -11    1    3    3    0    0  0.42326356601E+02  0.45767461353E+02  0.11890788252E+03  0.13425820462E+03  0.51100000000E-03 0. -1.
         11    1    3    3    0    0 -0.42326356601E+02 -0.45767461353E+02  0.10080754646E+03  0.11852570356E+03  0.51100000000E-03 0.  1.
<mgrwt>
<rscale>  0 0.12499934E+03</rscale>
<asrwt>0</asrwt>
<pdfrwt beam="2">  1        1 0.25437294E-02 0.12499934E+03</pdfrwt>
<pdfrwt beam="1">  1       -1 0.36346100E-01 0.12499934E+03</pdfrwt>
<totfact> 0.28746229E+04</totfact>
</mgrwt>
</event>
<event>
 5    1  0.8303392E-059  0.1250001E+03  0.7818608E-02  0.1235069E+00
          1   -1    0    0  501    0  0.00000000000E+00  0.00000000000E+00  0.50613523662E+02  0.50613523878E+02  0.46700000000E-02 0. -1.
         -1   -1    0    0    0  501 -0.00000000000E+00 -0.00000000000E+00 -0.77178157095E+02  0.77178157237E+02  0.46700000000E-02 0.  1.
         25    2    1    2    0    0  0.00000000000E+00  0.00000000000E+00 -0.26564633433E+02  0.12779168111E+03  0.12500013605E+03 0.  0.
        -11    1    3    3    0    0  0.56837636331E+02 -0.11255728568E+02 -0.37237423674E+02  0.68875496741E+02  0.51100000000E-03 0.  1.
         11    1    3    3    0    0 -0.56837636331E+02  0.11255728568E+02  0.10672790241E+02  0.58916184373E+02  0.51100000000E-03 0. -1.
<mgrwt>
<rscale>  0 0.12500014E+03</rscale>
<asrwt>0</asrwt>
<pdfrwt beam="1">  1        1 0.77866960E-02 0.12500014E+03</pdfrwt>
<pdfrwt beam="2">  1       -1 0.11873563E-01 0.12500014E+03</pdfrwt>
<totfact> 0.37963412E+04</totfact>
</mgrwt>
</event>
<event>
 5    1  0.8303392E-059  0.1250049E+03  0.7818608E-02  0.1235062E+00
         -1   -1    0    0    0  501 -0.00000000000E+00  0.00000000000E+00  0.25094143781E+02  0.25094144215E+02  0.46700000000E-02 0. -1.
          1   -1    0    0  501    0  0.00000000000E+00 -0.00000000000E+00 -0.15567599060E+03  0.15567599067E+03  0.46700000000E-02 0.  1.
         25    2    1    2    0    0  0.00000000000E+00  0.00000000000E+00 -0.13058184682E+03  0.18077013488E+03  0.12500489169E+03 0.  0.
        -11    1    3    3    0    0 -0.32962660513E+02  0.20954934518E+02  0.52711144555E+01  0.39413587969E+02  0.51100000000E-03 0. -1.
         11    1    3    3    0    0  0.32962660513E+02 -0.20954934518E+02 -0.13585296127E+03  0.14135654692E+03  0.51100000000E-03 0.  1.
<mgrwt>
<rscale>  0 0.12500489E+03</rscale>
<asrwt>0</asrwt>
<pdfrwt beam="2">  1        1 0.23950152E-01 0.12500489E+03</pdfrwt>
<pdfrwt beam="1">  1       -1 0.38606376E-02 0.12500489E+03</pdfrwt>
<totfact> 0.47422865E+04</totfact>
</mgrwt>
</event>
<event>
 5    1  0.8303392E-059  0.1250007E+03  0.7818608E-02  0.1235068E+00
         -1   -1    0    0    0  501 -0.00000000000E+00  0.00000000000E+00  0.41209512573E+02  0.41209512838E+02  0.46700000000E-02 0.  1.
          1   -1    0    0  501    0  0.00000000000E+00 -0.00000000000E+00 -0.94791039629E+02  0.94791039744E+02  0.46700000000E-02 0. -1.
         25    2    1    2    0    0  0.00000000000E+00  0.00000000000E+00 -0.53581527056E+02  0.13600055258E+03  0.12500068104E+03 0.  0.
        -11    1    3    3    0    0  0.25537539068E+02  0.37236712486E+02  0.20227313920E+02  0.49476083991E+02  0.51100000000E-03 0.  1.
         11    1    3    3    0    0 -0.25537539068E+02 -0.37236712486E+02 -0.73808840976E+02  0.86524468591E+02  0.51100000000E-03 0. -1.
<mgrwt>
<rscale>  0 0.12500068E+03</rscale>
<asrwt>0</asrwt>
<pdfrwt beam="2">  1        1 0.14583237E-01 0.12500068E+03</pdfrwt>
<pdfrwt beam="1">  1       -1 0.63399251E-02 0.12500068E+03</pdfrwt>
<totfact> 0.42900221E+04</totfact>
</mgrwt>
</event>
<event>
 5    1  0.8303392E-059  0.1249917E+03  0.7818608E-02  0.1235082E+00
          1   -1    0    0  501    0  0.00000000000E+00  0.00000000000E+00  0.60747555287E+02  0.60747555467E+02  0.46700000000E-02 0. -1.
         -1   -1    0    0    0  501 -0.00000000000E+00 -0.00000000000E+00 -0.64294438075E+02  0.64294438245E+02  0.46700000000E-02 0.  1.
         25    2    1    2    0    0  0.00000000000E+00  0.00000000000E+00 -0.35468827877E+01  0.12504199371E+03  0.12499167898E+03 0.  0.
        -11    1    3    3    0    0  0.50444674326E+02 -0.36585194006E+02 -0.65280764171E+01  0.62655864612E+02  0.51100000000E-03 0.  1.
         11    1    3    3    0    0 -0.50444674326E+02  0.36585194006E+02  0.29811936294E+01  0.62386129099E+02  0.51100000000E-03 0. -1.
<mgrwt>
<rscale>  0 0.12499168E+03</rscale>
<asrwt>0</asrwt>
<pdfrwt beam="1">  1        1 0.93457778E-02 0.12499168E+03</pdfrwt>
<pdfrwt beam="2">  1       -1 0.98914520E-02 0.12499168E+03</pdfrwt>
<totfact> 0.39357626E+04</totfact>
</mgrwt>
</event>
<event>
 5    1  0.8303392E-059  0.1249972E+03  0.7818608E-02  0.1235074E+00
         -1   -1    0    0    0  501 -0.00000000000E+00  0.00000000000E+00  0.10154365723E+03  0.10154365734E+03  0.46700000000E-02 0.  1.
          1   -1    0    0  501    0  0.00000000000E+00 -0.00000000000E+00 -0.38466963355E+02  0.38466963638E+02  0.46700000000E-02 0. -1.
         25    2    1    2    0    0  0.00000000000E+00  0.00000000000E+00  0.63076693878E+02  0.14001062098E+03  0.12499721867E+03 0.  0.
        -11    1    3    3    0    0 -0.31343134369E+02  0.53745071104E+02  0.24897367687E+02  0.67013458783E+02  0.51100000000E-03 0. -1.
         11    1    3    3    0    0  0.31343134369E+02 -0.53745071104E+02  0.38179326191E+02  0.72997162196E+02  0.51100000000E-03 0.  1.
<mgrwt>
<rscale>  0 0.12499722E+03</rscale>
<asrwt>0</asrwt>
<pdfrwt beam="2">  1        1 0.59179945E-02 0.12499722E+03</pdfrwt>
<pdfrwt beam="1">  1       -1 0.15622101E-01 0.12499722E+03</pdfrwt>
<totfact> 0.35885839E+04</totfact>
</mgrwt>
</event>
<event>
 5    1  0.8303392E-059  0.1249930E+03  0.7818608E-02  0.1235080E+00
          1   -1    0    0  501    0  0.00000000000E+00  0.00000000000E+00  0.53272674862E+03  0.53272674864E+03  0.46700000000E-02 0. -1.
         -1   -1    0    0    0  501 -0.00000000000E+00 -0.00000000000E+00 -0.73317408579E+01  0.73317423452E+01  0.46700000000E-02 0.  1.
         25    2    1    2    0    0  0.00000000000E+00  0.00000000000E+00  0.52539500777E+03  0.54005849099E+03  0.12499303782E+03 0.  0.
        -11    1    3    3    0    0  0.38748995754E+02 -0.47615023996E+02  0.21209912963E+03  0.22080470098E+03  0.51100000000E-03 0.  1.
         11    1    3    3    0    0 -0.38748995754E+02  0.47615023996E+02  0.31329587813E+03  0.31925379001E+03  0.51100000000E-03 0. -1.
<mgrwt>
<rscale>  0 0.12499304E+03</rscale>
<asrwt>0</asrwt>
<pdfrwt beam="1">  1        1 0.81957965E-01 0.12499304E+03</pdfrwt>
<pdfrwt beam="2">  1       -1 0.11279602E-02 0.12499304E+03</pdfrwt>
<totfact> 0.60019376E+04</totfact>
</mgrwt>
</event>
<event>
 5    1  0.8303392E-059  0.1249998E+03  0.7818608E-02  0.1235070E+00
          1   -1    0    0  501    0  0.00000000000E+00  0.00000000000E+00  0.22472181656E+03  0.22472181661E+03  0.46700000000E-02 0. -1.
         -1   -1    0    0    0  501 -0.00000000000E+00 -0.00000000000E+00 -0.17382559148E+02  0.17382559775E+02  0.46700000000E-02 0.  1.
         25    2    1    2    0    0  0.00000000000E+00  0.00000000000E+00  0.20733925741E+03  0.24210437639E+03  0.12499984560E+03 0.  0.
        -11    1    3    3    0    0 -0.10196090364E+02  0.56219471755E+02  0.54607924418E+02  0.79035527914E+02  0.51100000000E-03 0.  1.
         11    1    3    3    0    0  0.10196090364E+02 -0.56219471755E+02  0.15273133300E+03  0.16306884847E+03  0.51100000000E-03 0. -1.
<mgrwt>
<rscale>  0 0.12499985E+03</rscale>
<asrwt>0</asrwt>
<pdfrwt beam="1">  1        1 0.34572587E-01 0.12499985E+03</pdfrwt>
<pdfrwt beam="2">  1       -1 0.26742399E-02 0.12499985E+03</pdfrwt>
<totfact> 0.51268747E+04</totfact>
</mgrwt>
</event>
<event>
 5    1  0.8303392E-059  0.1249991E+03  0.7818608E-02  0.1235071E+00
         -1   -1    0    0    0  501 -0.00000000000E+00  0.00000000000E+00  0.32628724811E+02  0.32628725146E+02  0.46700000000E-02 0.  1.
          1   -1    0    0  501    0  0.00000000000E+00 -0.00000000000E+00 -0.11971636594E+03  0.11971636603E+03  0.46700000000E-02 0. -1.
         25    2    1    2    0    0  0.00000000000E+00  0.00000000000E+00 -0.87087641127E+02  0.15234509118E+03  0.12499907827E+03 0.  0.
        -11    1    3    3    0    0 -0.48757688628E+02  0.34548594919E+02 -0.21227525348E+02  0.63415498452E+02  0.51100000000E-03 0.  1.
         11    1    3    3    0    0  0.48757688628E+02 -0.34548594919E+02 -0.65860115780E+02  0.88929592724E+02  0.51100000000E-03 0. -1.
<mgrwt>
<rscale>  0 0.12499908E+03</rscale>
<asrwt>0</asrwt>
<pdfrwt beam="2">  1        1 0.18417902E-01 0.12499908E+03</pdfrwt>
<pdfrwt beam="1">  1       -1 0.50198039E-02 0.12499908E+03</pdfrwt>
<totfact> 0.44938517E+04</totfact>
</mgrwt>
</event>
<event>
 5    1  0.8303392E-059  0.1250013E+03  0.7818608E-02  0.1235067E+00
         -1   -1    0    0    0  501 -0.00000000000E+00  0.00000000000E+00  0.13793470845E+03  0.13793470853E+03  0.46700000000E-02 0.  1.
          1   -1    0    0  501    0  0.00000000000E+00 -0.00000000000E+00 -0.28320159225E+02  0.28320159610E+02  0.46700000000E-02 0. -1.
         25    2    1    2    0    0  0.00000000000E+00  0.00000000000E+00  0.10961454923E+03  0.16625486814E+03  0.12500132710E+03 0.  0.
        -11    1    3    3    0    0 -0.10165536201E+02  0.61549720244E+02  0.59893946833E+02  0.86481160121E+02  0.51100000000E-03 0.  1.
         11    1    3    3    0    0  0.10165536201E+02 -0.61549720244E+02  0.49720602393E+02  0.79773708018E+02  0.51100000000E-03 0. -1.
<mgrwt>
<rscale>  0 0.12500133E+03</rscale>
<asrwt>0</asrwt>
<pdfrwt beam="2">  1        1 0.43569475E-02 0.12500133E+03</pdfrwt>
<pdfrwt beam="1">  1       -1 0.21220725E-01 0.12500133E+03</pdfrwt>
<totfact> 0.33480559E+04</totfact>
</mgrwt>
</event>
<event>
 5    1  0.8303392E-059  0.1250004E+03  0.7818608E-02  0.1235069E+00
         -1   -1    0    0    0  501 -0.00000000000E+00  0.00000000000E+00  0.73703940874E+01  0.73703955668E+01  0.46700000000E-02 0.  1.
          1   -1    0    0  501    0  0.00000000000E+00 -0.00000000000E+00 -0.52999567532E+03  0.52999567534E+03  0.46700000000E-02 0. -1.
         25    2    1    2    0    0  0.00000000000E+00  0.00000000000E+00 -0.52262528124E+03  0.53736607091E+03  0.12500043832E+03 0.  0.
        -11    1    3    3    0    0 -0.23777187116E+02  0.57730726189E+02 -0.27353700084E+03  0.28057206241E+03  0.51100000000E-03 0.  1.
         11    1    3    3    0    0  0.23777187116E+02 -0.57730726189E+02 -0.24908828040E+03  0.25679400851E+03  0.51100000000E-03 0. -1.
<mgrwt>
<rscale>  0 0.12500044E+03</rscale>
<asrwt>0</asrwt>
<pdfrwt beam="2">  1        1 0.81537766E-01 0.12500044E+03</pdfrwt>
<pdfrwt beam="1">  1       -1 0.11339073E-02 0.12500044E+03</pdfrwt>
<totfact> 0.59976187E+04</totfact>
</mgrwt>
</event>
<event>
 5    1  0.8303392E-059  0.1249985E+03  0.7818608E-02  0.1235072E+00
         -1   -1    0    0    0  501 -0.00000000000E+00  0.00000000000E+00  0.27917273404E+02  0.27917273794E+02  0.46700000000E-02 0.  1.
          1   -1    0    0  501    0  0.00000000000E+00 -0.00000000000E+00 -0.13991889492E+03  0.13991889500E+03  0.46700000000E-02 0. -1.
         25    2    1    2    0    0  0.00000000000E+00  0.00000000000E+00 -0.11200162152E+03  0.16783616880E+03  0.12499846532E+03 0.  0.
        -11    1    3    3    0    0  0.31427842146E+02  0.15818948849E+02  0.13356225761E+02  0.37634255293E+02  0.51100000000E-03 0.  1.
         11    1    3    3    0    0 -0.31427842146E+02 -0.15818948849E+02 -0.12535784728E+03  0.13020191350E+03  0.51100000000E-03 0. -1.
<mgrwt>
<rscale>  0 0.12499847E+03</rscale>
<asrwt>0</asrwt>
<pdfrwt beam="2">  1        1 0.21525984E-01 0.12499847E+03</pdfrwt>
<pdfrwt beam="1">  1       -1 0.42949652E-02 0.12499847E+03</pdfrwt>
<totfact> 0.46392135E+04</totfact>
</mgrwt>
</event>
<event>
 5    1  0.8303392E-059  0.1249996E+03  0.7818608E-02  0.1235070E+00
          1   -1    0    0  501    0  0.00000000000E+00  0.00000000000E+00  0.76611168551E+02  0.76611168693E+02  0.46700000000E-02 0.  1.
         -1   -1    0    0    0  501 -0.00000000000E+00 -0.00000000000E+00 -0.50987682688E+02  0.50987682902E+02  0.46700000000E-02 0. -1.
         25    2    1    2    0    0  0.00000000000E+00  0.00000000000E+00  0.25623485863E+02  0.12759885160E+03  0.12499961560E+03 0.  0.
        -11    1    3    3    0    0 -0.75762269516E+01  0.55173189524E+02 -0.16146184766E+02  0.57984302529E+02  0.51100000000E-03 0. -1.
         11    1    3    3    0    0  0.75762269516E+01 -0.55173189524E+02  0.41769670629E+02  0.69614549066E+02  0.51100000000E-03 0.  1.
<mgrwt>
<rscale>  0 0.12499962E+03</rscale>
<asrwt>0</asrwt>
<pdfrwt beam="1">  1        1 0.11786334E-01 0.12499962E+03</pdfrwt>
<pdfrwt beam="2">  1       -1 0.78442590E-02 0.12499962E+03</pdfrwt>
<totfact> 0.41158933E+04</totfact>
</mgrwt>
</event>
<event>
 5    1  0.1364244E-058  0.1250005E+03  0.7818608E-02  0.1235068E+00
         -1   -1    0    0    0  501 -0.00000000000E+00  0.00000000000E+00  0.73223261566E+01  0.73223276458E+01  0.46700000000E-02 0.  1.
          1   -1    0    0  501    0  0.00000000000E+00 -0.00000000000E+00 -0.53347542643E+03  0.53347542645E+03  0.46700000000E-02 0. -1.
         25    2    1    2    0    0  0.00000000000E+00  0.00000000000E+00 -0.52615310028E+03  0.54079775410E+03  0.12500050363E+03 0.  0.
        -11    1    3    3    0    0 -0.26913500212E+02 -0.56217949709E+02 -0.24302203543E+03  0.25088743306E+03  0.51100000000E-03 0.  1.
         11    1    3    3    0    0  0.26913500212E+02  0.56217949709E+02 -0.28313106484E+03  0.28991032103E+03  0.51100000000E-03 0. -1.
<mgrwt>
<rscale>  0 0.12500050E+03</rscale>
<asrwt>0</asrwt>
<pdfrwt beam="2">  1        1 0.82073112E-01 0.12500050E+03</pdfrwt>
<pdfrwt beam="1">  1       -1 0.11265123E-02 0.12500050E+03</pdfrwt>
<totfact> 0.60018648E+04</totfact>
</mgrwt>
</event>
<event>
 5    1  0.8303392E-059  0.1250020E+03  0.7818608E-02  0.1235066E+00
         -1   -1    0    0    0  501 -0.00000000000E+00  0.00000000000E+00  0.67962567650E+02  0.67962567810E+02  0.46700000000E-02 0.  1.
          1   -1    0    0  501    0  0.00000000000E+00 -0.00000000000E+00 -0.57478349629E+02  0.57478349818E+02  0.46700000000E-02 0. -1.
         25    2    1    2    0    0  0.00000000000E+00  0.00000000000E+00  0.10484218021E+02  0.12544091763E+03  0.12500201994E+03 0.  0.
        -11    1    3    3    0    0  0.13185305632E+02 -0.60857137606E+02 -0.15569556798E+00  0.62269316068E+02  0.51100000000E-03 0.  1.
         11    1    3    3    0    0 -0.13185305632E+02  0.60857137606E+02  0.10639913589E+02  0.63171601560E+02  0.51100000000E-03 0. -1.
<mgrwt>
<rscale>  0 0.12500202E+03</rscale>
<asrwt>0</asrwt>
<pdfrwt beam="2">  1        1 0.88428231E-02 0.12500202E+03</pdfrwt>
<pdfrwt beam="1">  1       -1 0.10455780E-01 0.12500202E+03</pdfrwt>
<totfact> 0.38925669E+04</totfact>
</mgrwt>
</event>
<event>
 5    1  0.8303392E-059  0.1249999E+03  0.7818608E-02  0.1235069E+00
          1   -1    0    0  501    0  0.00000000000E+00  0.00000000000E+00  0.10382587239E+03  0.10382587250E+03  0.46700000000E-02 0. -1.
         -1   -1    0    0    0  501 -0.00000000000E+00 -0.00000000000E+00 -0.37623011095E+02  0.37623011385E+02  0.46700000000E-02 0.  1.
         25    2    1    2    0    0  0.00000000000E+00  0.00000000000E+00  0.66202861299E+02  0.14144888388E+03  0.12499987163E+03 0.  0.
        -11    1    3    3    0    0 -0.23477903573E+02 -0.55866352224E+02  0.50410749776E+02  0.78825788675E+02  0.51100000000E-03 0. -1.
         11    1    3    3    0    0  0.23477903573E+02  0.55866352224E+02  0.15792111523E+02  0.62623095209E+02  0.51100000000E-03 0.  1.
<mgrwt>
<rscale>  0 0.12499987E+03</rscale>
<asrwt>0</asrwt>
<pdfrwt beam="1">  1        1 0.15973211E-01 0.12499987E+03</pdfrwt>
<pdfrwt beam="2">  1       -1 0.57881556E-02 0.12499987E+03</pdfrwt>
<totfact> 0.43677817E+04</totfact>
</mgrwt>
</event>
<event>
 5    1  0.8303392E-059  0.1249993E+03  0.7818608E-02  0.1235070E+00
         -1   -1    0    0    0  501 -0.00000000000E+00  0.00000000000E+00  0.47014564623E+02  0.47014564855E+02  0.46700000000E-02 0.  1.
          1   -1    0    0  501    0  0.00000000000E+00 -0.00000000000E+00 -0.83085041063E+02  0.83085041194E+02  0.46700000000E-02 0. -1.
         25    2    1    2    0    0  0.00000000000E+00  0.00000000000E+00 -0.36070476440E+02  0.13009960605E+03  0.12499931289E+03 0.  0.
        -11    1    3    3    0    0 -0.31983342852E+02 -0.36820165617E+02  0.22643345387E+02  0.53771552950E+02  0.51100000000E-03 0.  1.
         11    1    3    3    0    0  0.31983342852E+02  0.36820165617E+02 -0.58713821827E+02  0.76328053099E+02  0.51100000000E-03 0. -1.
<mgrwt>
<rscale>  0 0.12499931E+03</rscale>
<asrwt>0</asrwt>
<pdfrwt beam="2">  1        1 0.12782314E-01 0.12499931E+03</pdfrwt>
<pdfrwt beam="1">  1       -1 0.72330100E-02 0.12499931E+03</pdfrwt>
<totfact> 0.41811367E+04</totfact>
</mgrwt>
</event>
<event>
 5    1  0.8303392E-059  0.1249981E+03  0.7818608E-02  0.1235072E+00
          1   -1    0    0  501    0  0.00000000000E+00  0.00000000000E+00  0.99602233914E+02  0.99602234024E+02  0.46700000000E-02 0. -1.
         -1   -1    0    0    0  501 -0.00000000000E+00 -0.00000000000E+00 -0.39217288141E+02  0.39217288419E+02  0.46700000000E-02 0.  1.
         25    2    1    2    0    0  0.00000000000E+00  0.00000000000E+00  0.60384945773E+02  0.13881952244E+03  0.12499807253E+03 0.  0.
        -11    1    3    3    0    0  0.35258994841E+01 -0.62305056111E+02  0.34003786598E+02  0.71067640227E+02  0.51100000000E-03 0.  1.
         11    1    3    3    0    0 -0.35258994841E+01  0.62305056111E+02  0.26381159175E+02  0.67751882216E+02  0.51100000000E-03 0. -1.
<mgrwt>
<rscale>  0 0.12499807E+03</rscale>
<asrwt>0</asrwt>
<pdfrwt beam="1">  1        1 0.15323420E-01 0.12499807E+03</pdfrwt>
<pdfrwt beam="2">  1       -1 0.60334290E-02 0.12499807E+03</pdfrwt>
<totfact> 0.43322740E+04</totfact>
</mgrwt>
</event>
<event>
 5    1  0.8303392E-059  0.1249996E+03  0.7818608E-02  0.1235070E+00
         -1   -1    0    0    0  501 -0.00000000000E+00  0.00000000000E+00  0.39488208582E+03  0.39488208585E+03  0.46700000000E-02 0.  1.
          1   -1    0    0  501    0  0.00000000000E+00 -0.00000000000E+00 -0.98921315504E+01  0.98921326527E+01  0.46700000000E-02 0. -1.
         25    2    1    2    0    0  0.00000000000E+00  0.00000000000E+00  0.38498995427E+03  0.40477421850E+03  0.12499961230E+03 0.  0.
        -11    1    3    3    0    0  0.18629488261E+02  0.57544999698E+02  0.14152633401E+03  0.15390967494E+03  0.51100000000E-03 0. -1.
         11    1    3    3    0    0 -0.18629488261E+02 -0.57544999698E+02  0.24346362027E+03  0.25086454356E+03  0.51100000000E-03 0.  1.
<mgrwt>
<rscale>  0 0.12499961E+03</rscale>
<asrwt>0</asrwt>
<pdfrwt beam="2">  1        1 0.15218666E-02 0.12499961E+03</pdfrwt>
<pdfrwt beam="1">  1       -1 0.60751086E-01 0.12499961E+03</pdfrwt>
<totfact> 0.23256010E+04</totfact>
</mgrwt>
</event>
<event>
 5    1  0.8303392E-059  0.1250041E+03  0.7818608E-02  0.1235063E+00
         -1   -1    0    0    0  501 -0.00000000000E+00  0.00000000000E+00  0.51363516833E+02  0.51363517046E+02  0.46700000000E-02 0.  1.
          1   -1    0    0  501    0  0.00000000000E+00 -0.00000000000E+00 -0.76056007206E+02  0.76056007350E+02  0.46700000000E-02 0. -1.
         25    2    1    2    0    0  0.00000000000E+00  0.00000000000E+00 -0.24692490373E+02  0.12741952440E+03  0.12500406440E+03 0.  0.
        -11    1    3    3    0    0  0.93776677635E+01  0.46573170863E+02  0.29052618233E+02  0.55687121701E+02  0.51100000000E-03 0.  1.
         11    1    3    3    0    0 -0.93776677635E+01 -0.46573170863E+02 -0.53745108606E+02  0.71732402694E+02  0.51100000000E-03 0. -1.
<mgrwt>
<rscale>  0 0.12500406E+03</rscale>
<asrwt>0</asrwt>
<pdfrwt beam="2">  1        1 0.11700924E-01 0.12500406E+03</pdfrwt>
<pdfrwt beam="1">  1       -1 0.79020795E-02 0.12500406E+03</pdfrwt>
<totfact> 0.41096842E+04</totfact>
</mgrwt>
</event>
<event>
 5    1  0.8303392E-059  0.1250006E+03  0.7818608E-02  0.1235068E+00
         -1   -1    0    0    0  501 -0.00000000000E+00  0.00000000000E+00  0.12279050115E+03  0.12279050124E+03  0.46700000000E-02 0.  1.
          1   -1    0    0  501    0  0.00000000000E+00 -0.00000000000E+00 -0.31812621027E+02  0.31812621370E+02  0.46700000000E-02 0. -1.
         25    2    1    2    0    0  0.00000000000E+00  0.00000000000E+00  0.90977880123E+02  0.15460312261E+03  0.12500060339E+03 0.  0.
        -11    1    3    3    0    0  0.50580573949E+02  0.26616155131E+02  0.76765389153E+02  0.95706526146E+02  0.51100000000E-03 0.  1.
         11    1    3    3    0    0 -0.50580573949E+02 -0.26616155131E+02  0.14212490970E+02  0.58896596462E+02  0.51100000000E-03 0. -1.
<mgrwt>
<rscale>  0 0.12500060E+03</rscale>
<asrwt>0</asrwt>
<pdfrwt beam="2">  1        1 0.48942495E-02 0.12500060E+03</pdfrwt>
<pdfrwt beam="1">  1       -1 0.18890846E-01 0.12500060E+03</pdfrwt>
<totfact> 0.34410206E+04</totfact>
</mgrwt>
</event>
<event>
 5    1  0.8303392E-059  0.1249958E+03  0.7818608E-02  0.1235076E+00
         -1   -1    0    0    0  501 -0.00000000000E+00  0.00000000000E+00  0.18505605114E+03  0.18505605120E+03  0.46700000000E-02 0.  1.
          1   -1    0    0  501    0  0.00000000000E+00 -0.00000000000E+00 -0.21107063359E+02  0.21107063876E+02  0.46700000000E-02 0. -1.
         25    2    1    2    0    0  0.00000000000E+00  0.00000000000E+00  0.16394898778E+03  0.20616311507E+03  0.12499583762E+03 0.  0.
        -11    1    3    3    0    0  0.60879483351E+02 -0.25708144461E+01  0.59056742709E+02  0.84856463746E+02  0.51100000000E-03 0.  1.
         11    1    3    3    0    0 -0.60879483351E+02  0.25708144461E+01  0.10489224507E+03  0.12130665133E+03  0.51100000000E-03 0. -1.
<mgrwt>
<rscale>  0 0.12499584E+03</rscale>
<asrwt>0</asrwt>
<pdfrwt beam="2">  1        1 0.32472406E-02 0.12499584E+03</pdfrwt>
<pdfrwt beam="1">  1       -1 0.28470161E-01 0.12499584E+03</pdfrwt>
<totfact> 0.31003894E+04</totfact>
</mgrwt>
</event>
<event>
 5    1  0.8303392E-059  0.1250034E+03  0.7818608E-02  0.1235064E+00
         -1   -1    0    0    0  501 -0.00000000000E+00  0.00000000000E+00  0.15440156750E+03  0.15440156757E+03  0.46700000000E-02 0.  1.
          1   -1    0    0  501    0  0.00000000000E+00 -0.00000000000E+00 -0.25300660507E+02  0.25300660938E+02  0.46700000000E-02 0. -1.
         25    2    1    2    0    0  0.00000000000E+00  0.00000000000E+00  0.12910090699E+03  0.17970222851E+03  0.12500338693E+03 0.  0.
        -11    1    3    3    0    0  0.15408929789E+02  0.60572489723E+02  0.64539570596E+02  0.89843295807E+02  0.51100000000E-03 0.  1.
         11    1    3    3    0    0 -0.15408929789E+02 -0.60572489723E+02  0.64561336393E+02  0.89858932698E+02  0.51100000000E-03 0. -1.
<mgrwt>
<rscale>  0 0.12500339E+03</rscale>
<asrwt>0</asrwt>
<pdfrwt beam="2">  1        1 0.38924093E-02 0.12500339E+03</pdfrwt>
<pdfrwt beam="1">  1       -1 0.23754087E-01 0.12500339E+03</pdfrwt>
<totfact> 0.32552521E+04</totfact>
</mgrwt>
</event>
<event>
 5    1  0.8303392E-059  0.1250015E+03  0.7818608E-02  0.1235067E+00
         -1   -1    0    0    0  501 -0.00000000000E+00  0.00000000000E+00  0.32218696677E+03  0.32218696681E+03  0.46700000000E-02 0.  1.
          1   -1    0    0  501    0  0.00000000000E+00 -0.00000000000E+00 -0.12124471317E+02  0.12124472216E+02  0.46700000000E-02 0. -1.
         25    2    1    2    0    0  0.00000000000E+00  0.00000000000E+00  0.31006249546E+03  0.33431143902E+03  0.12500154868E+03 0.  0.
        -11    1    3    3    0    0  0.56660118732E+02  0.23797058766E+02  0.12457555045E+03  0.13890909557E+03  0.51100000000E-03 0. -1.
         11    1    3    3    0    0 -0.56660118732E+02 -0.23797058766E+02  0.18548694500E+03  0.19540234346E+03  0.51100000000E-03 0.  1.
<mgrwt>
<rscale>  0 0.12500155E+03</rscale>
<asrwt>0</asrwt>
<pdfrwt beam="2">  1        1 0.18653033E-02 0.12500155E+03</pdfrwt>
<pdfrwt beam="1">  1       -1 0.49567228E-01 0.12500155E+03</pdfrwt>
<totfact> 0.25559406E+04</totfact>
</mgrwt>
</event>
<event>
 5    1  0.8303392E-059  0.1249938E+03  0.7818608E-02  0.1235079E+00
          1   -1    0    0  501    0  0.00000000000E+00  0.00000000000E+00  0.16727251132E+03  0.16727251138E+03  0.46700000000E-02 0. -1.
         -1   -1    0    0    0  501 -0.00000000000E+00 -0.00000000000E+00 -0.23350298889E+02  0.23350299356E+02  0.46700000000E-02 0.  1.
         25    2    1    2    0    0  0.00000000000E+00  0.00000000000E+00  0.14392221243E+03  0.19062281074E+03  0.12499381082E+03 0.  0.
        -11    1    3    3    0    0 -0.26797602563E+02  0.54969624387E+02  0.91615552722E+02  0.11015071770E+03  0.51100000000E-03 0. -1.
         11    1    3    3    0    0  0.26797602563E+02 -0.54969624387E+02  0.52306659706E+02  0.80472093040E+02  0.51100000000E-03 0.  1.
<mgrwt>
<rscale>  0 0.12499381E+03</rscale>
<asrwt>0</asrwt>
<pdfrwt beam="1">  1        1 0.25734234E-01 0.12499381E+03</pdfrwt>
<pdfrwt beam="2">  1       -1 0.35923535E-02 0.12499381E+03</pdfrwt>
<totfact> 0.48153379E+04</totfact>
</mgrwt>
</event>
<event>
 5    1  0.8303392E-059  0.1249965E+03  0.7818608E-02  0.1235075E+00
         -1   -1    0    0    0  501 -0.00000000000E+00  0.00000000000E+00  0.15190544716E+02  0.15190545434E+02  0.46700000000E-02 0.  1.
          1   -1    0    0  501    0  0.00000000000E+00 -0.00000000000E+00 -0.25713554963E+03  0.25713554968E+03  0.46700000000E-02 0. -1.
         25    2    1    2    0    0  0.00000000000E+00  0.00000000000E+00 -0.24194500492E+03  0.27232609511E+03  0.12499646664E+03 0.  0.
        -11    1    3    3    0    0  0.62291356978E+02 -0.17738679247E+01 -0.11059933003E+03  0.12694712114E+03  0.51100000000E-03 0. -1.
         11    1    3    3    0    0 -0.62291356978E+02  0.17738679247E+01 -0.13134567488E+03  0.14537897397E+03  0.51100000000E-03 0.  1.
<mgrwt>
<rscale>  0 0.12499647E+03</rscale>
<asrwt>0</asrwt>
<pdfrwt beam="2">  1        1 0.39559312E-01 0.12499647E+03</pdfrwt>
<pdfrwt beam="1">  1       -1 0.23370071E-02 0.12499647E+03</pdfrwt>
<totfact> 0.52759874E+04</totfact>
</mgrwt>
</event>
<event>
 5    1  0.8303392E-059  0.1250002E+03  0.7818608E-02  0.1235069E+00
          1   -1    0    0  501    0  0.00000000000E+00  0.00000000000E+00  0.17070476258E+03  0.17070476265E+03  0.46700000000E-02 0. -1.
         -1   -1    0    0    0  501 -0.00000000000E+00 -0.00000000000E+00 -0.22883154838E+02  0.22883155314E+02  0.46700000000E-02 0.  1.
         25    2    1    2    0    0  0.00000000000E+00  0.00000000000E+00  0.14782160774E+03  0.19358791796E+03  0.12500021706E+03 0.  0.
        -11    1    3    3    0    0 -0.46231577210E+02 -0.23643812235E+02  0.20041950772E+02  0.55660294460E+02  0.51100000000E-03 0.  1.
         11    1    3    3    0    0  0.46231577210E+02  0.23643812235E+02  0.12777965697E+03  0.13792762350E+03  0.51100000000E-03 0. -1.
<mgrwt>
<rscale>  0 0.12500022E+03</rscale>
<asrwt>0</asrwt>
<pdfrwt beam="1">  1        1 0.26262271E-01 0.12500022E+03</pdfrwt>
<pdfrwt beam="2">  1       -1 0.35204854E-02 0.12500022E+03</pdfrwt>
<totfact> 0.48352558E+04</totfact>
</mgrwt>
</event>
<event>
 5    1  0.8303392E-059  0.1249977E+03  0.7818608E-02  0.1235073E+00
         -1   -1    0    0    0  501 -0.00000000000E+00  0.00000000000E+00  0.36634745199E+02  0.36634745496E+02  0.46700000000E-02 0.  1.
          1   -1    0    0  501    0  0.00000000000E+00 -0.00000000000E+00 -0.10662305486E+03  0.10662305497E+03  0.46700000000E-02 0. -1.
         25    2    1    2    0    0  0.00000000000E+00  0.00000000000E+00 -0.69988309666E+02  0.14325780046E+03  0.12499773559E+03 0.  0.
        -11    1    3    3    0    0 -0.13041996635E+02 -0.54791802747E+02 -0.66041654629E+02  0.86797093678E+02  0.51100000000E-03 0.  1.
         11    1    3    3    0    0  0.13041996635E+02  0.54791802747E+02 -0.39466550377E+01  0.56460706786E+02  0.51100000000E-03 0. -1.
<mgrwt>
<rscale>  0 0.12499774E+03</rscale>
<asrwt>0</asrwt>
<pdfrwt beam="2">  1        1 0.16403547E-01 0.12499774E+03</pdfrwt>
<pdfrwt beam="1">  1       -1 0.56361147E-02 0.12499774E+03</pdfrwt>
<totfact> 0.43910795E+04</totfact>
</mgrwt>
</event>
<event>
 5    1  0.8303392E-059  0.1249985E+03  0.7818608E-02  0.1235072E+00
          1   -1    0    0  501    0  0.00000000000E+00  0.00000000000E+00  0.54035128056E+02  0.54035128258E+02  0.46700000000E-02 0.  1.
         -1   -1    0    0    0  501 -0.00000000000E+00 -0.00000000000E+00 -0.72289197950E+02  0.72289198101E+02  0.46700000000E-02 0. -1.
         25    2    1    2    0    0  0.00000000000E+00  0.00000000000E+00 -0.18254069894E+02  0.12632432636E+03  0.12499849744E+03 0.  0.
        -11    1    3    3    0    0 -0.28783812314E+02  0.51499232248E+02 -0.29972923151E+02  0.66174427810E+02  0.51100000000E-03 0. -1.
         11    1    3    3    0    0  0.28783812314E+02 -0.51499232248E+02  0.11718853257E+02  0.60149898549E+02  0.51100000000E-03 0.  1.
<mgrwt>
<rscale>  0 0.12499850E+03</rscale>
<asrwt>0</asrwt>
<pdfrwt beam="1">  1        1 0.83130966E-02 0.12499850E+03</pdfrwt>
<pdfrwt beam="2">  1       -1 0.11121415E-01 0.12499850E+03</pdfrwt>
<totfact> 0.38459722E+04</totfact>
</mgrwt>
</event>
<event>
 5    1  0.8303392E-059  0.1250039E+03  0.7818608E-02  0.1235063E+00
          1   -1    0    0  501    0  0.00000000000E+00  0.00000000000E+00  0.93543514876E+01  0.93543526533E+01  0.46700000000E-02 0. -1.
         -1   -1    0    0    0  501 -0.00000000000E+00 -0.00000000000E+00 -0.41761224869E+03  0.41761224871E+03  0.46700000000E-02 0.  1.
         25    2    1    2    0    0  0.00000000000E+00  0.00000000000E+00 -0.40825789720E+03  0.42696660137E+03  0.12500387217E+03 0.  0.
        -11    1    3    3    0    0 -0.49599073573E+02 -0.36806697437E+02 -0.17142248058E+03  0.18220995561E+03  0.51100000000E-03 0.  1.
         11    1    3    3    0    0  0.49599073573E+02  0.36806697437E+02 -0.23683541662E+03  0.24475664576E+03  0.51100000000E-03 0. -1.
<mgrwt>
<rscale>  0 0.12500387E+03</rscale>
<asrwt>0</asrwt>
<pdfrwt beam="1">  1        1 0.14391314E-02 0.12500387E+03</pdfrwt>
<pdfrwt beam="2">  1       -1 0.64248024E-01 0.12500387E+03</pdfrwt>
<totfact> 0.22588476E+04</totfact>
</mgrwt>
</event>
<event>
 5    1  0.8303392E-059  0.1249993E+03  0.7818608E-02  0.1235070E+00
         -1   -1    0    0    0  501 -0.00000000000E+00  0.00000000000E+00  0.13073504028E+02  0.13073504862E+02  0.46700000000E-02 0.  1.
          1   -1    0    0  501    0  0.00000000000E+00 -0.00000000000E+00 -0.29878780061E+03  0.29878780065E+03  0.46700000000E-02 0. -1.
         25    2    1    2    0    0  0.00000000000E+00  0.00000000000E+00 -0.28571429658E+03  0.31186130551E+03  0.12499925841E+03 0.  0.
        -11    1    3    3    0    0 -0.40844388205E+02  0.47256289642E+02 -0.13740094862E+03  0.15093191061E+03  0.51100000000E-03 0. -1.
         11    1    3    3    0    0  0.40844388205E+02 -0.47256289642E+02 -0.14831334797E+03  0.16092939490E+03  0.51100000000E-03 0.  1.
<mgrwt>
<rscale>  0 0.12499926E+03</rscale>
<asrwt>0</asrwt>
<pdfrwt beam="2">  1        1 0.45967349E-01 0.12499926E+03</pdfrwt>
<pdfrwt beam="1">  1       -1 0.20113086E-02 0.12499926E+03</pdfrwt>
<totfact> 0.54440544E+04</totfact>
</mgrwt>
</event>
<event>
 5    1  0.8303392E-059  0.1250000E+03  0.7818608E-02  0.1235069E+00
          1   -1    0    0  501    0  0.00000000000E+00  0.00000000000E+00  0.15557333572E+03  0.15557333580E+03  0.46700000000E-02 0. -1.
         -1   -1    0    0    0  501 -0.00000000000E+00 -0.00000000000E+00 -0.25108729799E+02  0.25108730234E+02  0.46700000000E-02 0.  1.
         25    2    1    2    0    0  0.00000000000E+00  0.00000000000E+00  0.13046460593E+03  0.18068206603E+03  0.12499998234E+03 0.  0.
        -11    1    3    3    0    0  0.36331530971E+02 -0.50683756033E+02  0.71266219681E+02  0.94697926779E+02  0.51100000000E-03 0.  1.
         11    1    3    3    0    0 -0.36331530971E+02  0.50683756033E+02  0.59198386244E+02  0.85984139250E+02  0.51100000000E-03 0. -1.
<mgrwt>
<rscale>  0 0.12499998E+03</rscale>
<asrwt>0</asrwt>
<pdfrwt beam="1">  1        1 0.23934359E-01 0.12499998E+03</pdfrwt>
<pdfrwt beam="2">  1       -1 0.38628815E-02 0.12499998E+03</pdfrwt>
<totfact> 0.47421564E+04</totfact>
</mgrwt>
</event>
<event>
 5    1  0.8303392E-059  0.1249994E+03  0.7818608E-02  0.1235070E+00
          1   -1    0    0  501    0  0.00000000000E+00  0.00000000000E+00  0.53441892805E+03  0.53441892807E+03  0.46700000000E-02 0. -1.
         -1   -1    0    0    0  501 -0.00000000000E+00 -0.00000000000E+00 -0.73092648003E+01  0.73092662922E+01  0.46700000000E-02 0.  1.
         25    2    1    2    0    0  0.00000000000E+00  0.00000000000E+00  0.52710966325E+03  0.54172819436E+03  0.12499935790E+03 0.  0.
        -11    1    3    3    0    0  0.61168537707E+02  0.12051844185E+02  0.24447954173E+03  0.25230355383E+03  0.51100000000E-03 0. -1.
         11    1    3    3    0    0 -0.61168537707E+02 -0.12051844185E+02  0.28263012152E+03  0.28942464053E+03  0.51100000000E-03 0.  1.
<mgrwt>
<rscale>  0 0.12499936E+03</rscale>
<asrwt>0</asrwt>
<pdfrwt beam="1">  1        1 0.82218301E-01 0.12499936E+03</pdfrwt>
<pdfrwt beam="2">  1       -1 0.11245023E-02 0.12499936E+03</pdfrwt>
<totfact> 0.60031509E+04</totfact>
</mgrwt>
</event>
<event>
 5    1  0.8303392E-059  0.1250002E+03  0.7818608E-02  0.1235069E+00
         -1   -1    0    0    0  501 -0.00000000000E+00  0.00000000000E+00  0.27666270698E+02  0.27666271092E+02  0.46700000000E-02 0.  1.
          1   -1    0    0  501    0  0.00000000000E+00 -0.00000000000E+00 -0.14119232334E+03  0.14119232342E+03  0.46700000000E-02 0. -1.
         25    2    1    2    0    0  0.00000000000E+00  0.00000000000E+00 -0.11352605264E+03  0.16885859451E+03  0.12500024124E+03 0.  0.
        -11    1    3    3    0    0  0.23397034293E+02  0.57092866543E+02 -0.43305222490E+02  0.75381422904E+02  0.51100000000E-03 0. -1.
         11    1    3    3    0    0 -0.23397034293E+02 -0.57092866543E+02 -0.70220830152E+02  0.93477171605E+02  0.51100000000E-03 0.  1.
<mgrwt>
<rscale>  0 0.12500024E+03</rscale>
<asrwt>0</asrwt>
<pdfrwt beam="2">  1        1 0.21721896E-01 0.12500024E+03</pdfrwt>
<pdfrwt beam="1">  1       -1 0.42563495E-02 0.12500024E+03</pdfrwt>
<totfact> 0.46477062E+04</totfact>
</mgrwt>
</event>
<event>
 5    1  0.8303392E-059  0.1250019E+03  0.7818608E-02  0.1235066E+00
         -1   -1    0    0    0  501 -0.00000000000E+00  0.00000000000E+00  0.19270235201E+03  0.19270235207E+03  0.46700000000E-02 0.  1.
          1   -1    0    0  501    0  0.00000000000E+00 -0.00000000000E+00 -0.20271517318E+02  0.20271517856E+02  0.46700000000E-02 0. -1.
         25    2    1    2    0    0  0.00000000000E+00  0.00000000000E+00  0.17243083469E+03  0.21297386992E+03  0.12500190606E+03 0.  0.
        -11    1    3    3    0    0  0.38431450272E+02  0.40728957014E+02  0.13350969969E+03  0.14477798251E+03  0.51100000000E-03 0.  1.
         11    1    3    3    0    0 -0.38431450272E+02 -0.40728957014E+02  0.38921135004E+02  0.68195887410E+02  0.51100000000E-03 0. -1.
<mgrwt>
<rscale>  0 0.12500191E+03</rscale>
<asrwt>0</asrwt>
<pdfrwt beam="2">  1        1 0.31186950E-02 0.12500191E+03</pdfrwt>
<pdfrwt beam="1">  1       -1 0.29646516E-01 0.12500191E+03</pdfrwt>
<totfact> 0.30639419E+04</totfact>
</mgrwt>
</event>
<event>
 5    1  0.8303392E-059  0.1249709E+03  0.7818608E-02  0.1235115E+00
          1   -1    0    0  501    0  0.00000000000E+00  0.00000000000E+00  0.96553811035E+02  0.96553811147E+02  0.46700000000E-02 0. -1.
         -1   -1    0    0    0  501 -0.00000000000E+00 -0.00000000000E+00 -0.40437894116E+02  0.40437894386E+02  0.46700000000E-02 0.  1.
         25    2    1    2    0    0  0.00000000000E+00  0.00000000000E+00  0.56115916918E+02  0.13699170553E+03  0.12497092163E+03 0.  0.
        -11    1    3    3    0    0 -0.21933205052E+02 -0.50893273351E+02 -0.35845489995E+01  0.55534131378E+02  0.51100000000E-03 0.  1.
         11    1    3    3    0    0  0.21933205052E+02  0.50893273351E+02  0.59700465918E+02  0.81457574155E+02  0.51100000000E-03 0. -1.
<mgrwt>
<rscale>  0 0.12497092E+03</rscale>
<asrwt>0</asrwt>
<pdfrwt beam="1">  1        1 0.14854432E-01 0.12497092E+03</pdfrwt>
<pdfrwt beam="2">  1       -1 0.62212146E-02 0.12497092E+03</pdfrwt>
<totfact> 0.43085121E+04</totfact>
</mgrwt>
</event>
<event>
 5    1  0.8303392E-059  0.1250003E+03  0.7818608E-02  0.1235069E+00
          1   -1    0    0  501    0  0.00000000000E+00  0.00000000000E+00  0.39305122490E+02  0.39305122768E+02  0.46700000000E-02 0. -1.
         -1   -1    0    0    0  501 -0.00000000000E+00 -0.00000000000E+00 -0.99383194792E+02  0.99383194902E+02  0.46700000000E-02 0.  1.
         25    2    1    2    0    0  0.00000000000E+00  0.00000000000E+00 -0.60078072302E+02  0.13868831767E+03  0.12500029875E+03 0.  0.
        -11    1    3    3    0    0 -0.60866839364E+02 -0.58622561610E+01 -0.44382586829E+02  0.75557608455E+02  0.51100000000E-03 0.  1.
         11    1    3    3    0    0  0.60866839364E+02  0.58622561610E+01 -0.15695485473E+02  0.63130709215E+02  0.51100000000E-03 0. -1.
<mgrwt>
<rscale>  0 0.12500030E+03</rscale>
<asrwt>0</asrwt>
<pdfrwt beam="1">  1        1 0.60469420E-02 0.12500030E+03</pdfrwt>
<pdfrwt beam="2">  1       -1 0.15289722E-01 0.12500030E+03</pdfrwt>
<totfact> 0.36047929E+04</totfact>
</mgrwt>
</event>
<event>
 5    1  0.8303392E-059  0.1250002E+03  0.7818608E-02  0.1235069E+00
          1   -1    0    0  501    0  0.00000000000E+00  0.00000000000E+00  0.93635371041E+02  0.93635371157E+02  0.46700000000E-02 0. -1.
         -1   -1    0    0    0  501 -0.00000000000E+00 -0.00000000000E+00 -0.41717820526E+02  0.41717820788E+02  0.46700000000E-02 0.  1.
         25    2    1    2    0    0  0.00000000000E+00  0.00000000000E+00  0.51917550514E+02  0.13535319194E+03  0.12500021807E+03 0.  0.
        -11    1    3    3    0    0 -0.17858790516E+02  0.52776880099E+02 -0.47049886661E+01  0.55914867345E+02  0.51100000000E-03 0.  1.
         11    1    3    3    0    0  0.17858790516E+02 -0.52776880099E+02  0.56622539180E+02  0.79438324599E+02  0.51100000000E-03 0. -1.
<mgrwt>
<rscale>  0 0.12500022E+03</rscale>
<asrwt>0</asrwt>
<pdfrwt beam="1">  1        1 0.14405442E-01 0.12500022E+03</pdfrwt>
<pdfrwt beam="2">  1       -1 0.64181263E-02 0.12500022E+03</pdfrwt>
<totfact> 0.42797523E+04</totfact>
</mgrwt>
</event>
<event>
 5    1  0.8303392E-059  0.1249991E+03  0.7818608E-02  0.1235071E+00
         -1   -1    0    0    0  501 -0.00000000000E+00  0.00000000000E+00  0.10190453523E+03  0.10190453534E+03  0.46700000000E-02 0.  1.
          1   -1    0    0  501    0  0.00000000000E+00 -0.00000000000E+00 -0.38331914682E+02  0.38331914966E+02  0.46700000000E-02 0. -1.
         25    2    1    2    0    0  0.00000000000E+00  0.00000000000E+00  0.63572620548E+02  0.14023645030E+03  0.12499913564E+03 0.  0.
        -11    1    3    3    0    0  0.20200735844E+02  0.59117700946E+02  0.29771982686E+02  0.69205081079E+02  0.51100000000E-03 0.  1.
         11    1    3    3    0    0 -0.20200735844E+02 -0.59117700946E+02  0.33800637862E+02  0.71031369225E+02  0.51100000000E-03 0. -1.
<mgrwt>
<rscale>  0 0.12499914E+03</rscale>
<asrwt>0</asrwt>
<pdfrwt beam="2">  1        1 0.58972178E-02 0.12499914E+03</pdfrwt>
<pdfrwt beam="1">  1       -1 0.15677621E-01 0.12499914E+03</pdfrwt>
<totfact> 0.35857262E+04</totfact>
</mgrwt>
</event>
<event>
 5    1  0.8303392E-059  0.1249993E+03  0.7818608E-02  0.1235070E+00
          1   -1    0    0  501    0  0.00000000000E+00  0.00000000000E+00  0.21389693135E+03  0.21389693140E+03  0.46700000000E-02 0. -1.
         -1   -1    0    0    0  501 -0.00000000000E+00 -0.00000000000E+00 -0.18262092958E+02  0.18262093555E+02  0.46700000000E-02 0.  1.
         25    2    1    2    0    0  0.00000000000E+00  0.00000000000E+00  0.19563483839E+03  0.23215902496E+03  0.12499929150E+03 0.  0.
        -11    1    3    3    0    0  0.52056390741E+02 -0.34458189317E+02  0.10338031141E+03  0.12076722823E+03  0.51100000000E-03 0. -1.
         11    1    3    3    0    0 -0.52056390741E+02  0.34458189317E+02  0.92254526987E+02  0.11139179673E+03  0.51100000000E-03 0.  1.
<mgrwt>
<rscale>  0 0.12499929E+03</rscale>
<asrwt>0</asrwt>
<pdfrwt beam="1">  1        1 0.32907221E-01 0.12499929E+03</pdfrwt>
<pdfrwt beam="2">  1       -1 0.28095527E-02 0.12499929E+03</pdfrwt>
<totfact> 0.50732096E+04</totfact>
</mgrwt>
</event>
<event>
 5    1  0.8303392E-059  0.1250007E+03  0.7818608E-02  0.1235068E+00
          1   -1    0    0  501    0  0.00000000000E+00  0.00000000000E+00  0.10997305973E+02  0.10997306965E+02  0.46700000000E-02 0. -1.
         -1   -1    0    0    0  501 -0.00000000000E+00 -0.00000000000E+00 -0.35520440488E+03  0.35520440491E+03  0.46700000000E-02 0.  1.
         25    2    1    2    0    0  0.00000000000E+00  0.00000000000E+00 -0.34420709891E+03  0.36620171188E+03  0.12500066737E+03 0.  0.
        -11    1    3    3    0    0  0.79154215492E+01 -0.59836431518E+02 -0.12457184569E+03  0.13842397615E+03  0.51100000000E-03 0.  1.
         11    1    3    3    0    0 -0.79154215492E+01  0.59836431518E+02 -0.21963525322E+03  0.22777773573E+03  0.51100000000E-03 0. -1.
<mgrwt>
<rscale>  0 0.12500067E+03</rscale>
<asrwt>0</asrwt>
<pdfrwt beam="1">  1        1 0.16918936E-02 0.12500067E+03</pdfrwt>
<pdfrwt beam="2">  1       -1 0.54646823E-01 0.12500067E+03</pdfrwt>
<totfact> 0.24477431E+04</totfact>
</mgrwt>
</event>
<event>
 5    1  0.8303392E-059  0.1250007E+03  0.7818608E-02  0.1235068E+00
         -1   -1    0    0    0  501 -0.00000000000E+00  0.00000000000E+00  0.10103376330E+03  0.10103376341E+03  0.46700000000E-02 0.  1.
          1   -1    0    0  501    0  0.00000000000E+00 -0.00000000000E+00 -0.38663221159E+02  0.38663221441E+02  0.46700000000E-02 0. -1.
         25    2    1    2    0    0  0.00000000000E+00  0.00000000000E+00  0.62370542143E+02  0.13969698485E+03  0.12500065220E+03 0.  0.
        -11    1    3    3    0    0  0.35708803895E+02 -0.47368648970E+02  0.53181343156E+02  0.79669083345E+02  0.51100000000E-03 0.  1.
         11    1    3    3    0    0 -0.35708803895E+02  0.47368648970E+02  0.91891989862E+01  0.60027901506E+02  0.51100000000E-03 0. -1.
<mgrwt>
<rscale>  0 0.12500065E+03</rscale>
<asrwt>0</asrwt>
<pdfrwt beam="2">  1        1 0.59481880E-02 0.12500065E+03</pdfrwt>
<pdfrwt beam="1">  1       -1 0.15543656E-01 0.12500065E+03</pdfrwt>
<totfact> 0.35921798E+04</totfact>
</mgrwt>
</event>
<event>
 5    1  0.8303392E-059  0.1249953E+03  0.7818608E-02  0.1235077E+00
          1   -1    0    0  501    0  0.00000000000E+00  0.00000000000E+00  0.25473387168E+03  0.25473387172E+03  0.46700000000E-02 0. -1.
         -1   -1    0    0    0  501 -0.00000000000E+00 -0.00000000000E+00 -0.15333477693E+02  0.15333478404E+02  0.46700000000E-02 0.  1.
         25    2    1    2    0    0  0.00000000000E+00  0.00000000000E+00  0.23940039399E+03  0.27006735013E+03  0.12499529977E+03 0.  0.
        -11    1    3    3    0    0  0.61922881856E+02  0.65420046964E+01  0.10812219279E+03  0.12477038790E+03  0.51100000000E-03 0.  1.
         11    1    3    3    0    0 -0.61922881856E+02 -0.65420046964E+01  0.13127820120E+03  0.14529696223E+03  0.51100000000E-03 0. -1.
<mgrwt>
<rscale>  0 0.12499530E+03</rscale>
<asrwt>0</asrwt>
<pdfrwt beam="1">  1        1 0.39189822E-01 0.12499530E+03</pdfrwt>
<pdfrwt beam="2">  1       -1 0.23589969E-02 0.12499530E+03</pdfrwt>
<totfact> 0.52656698E+04</totfact>
</mgrwt>
</event>
<event>
 5    1  0.8303392E-059  0.1250307E+03  0.7818608E-02  0.1235021E+00
          1   -1    0    0  501    0  0.00000000000E+00  0.00000000000E+00  0.13147116398E+03  0.13147116406E+03  0.46700000000E-02 0. -1.
         -1   -1    0    0    0  501 -0.00000000000E+00 -0.00000000000E+00 -0.29726435619E+02  0.29726435986E+02  0.46700000000E-02 0.  1.
         25    2    1    2    0    0  0.00000000000E+00  0.00000000000E+00  0.10174472836E+03  0.16119760005E+03  0.12503070228E+03 0.  0.
        -11    1    3    3    0    0  0.37005228203E+02  0.49731773190E+02  0.61309269797E+02  0.87186367869E+02  0.51100000000E-03 0.  1.
         11    1    3    3    0    0 -0.37005228203E+02 -0.49731773190E+02  0.40435458562E+02  0.74011232177E+02  0.51100000000E-03 0. -1.
<mgrwt>
<rscale>  0 0.12503070E+03</rscale>
<asrwt>0</asrwt>
<pdfrwt beam="1">  1        1 0.20226333E-01 0.12503070E+03</pdfrwt>
<pdfrwt beam="2">  1       -1 0.45732979E-02 0.12503070E+03</pdfrwt>
<totfact> 0.45769300E+04</totfact>
</mgrwt>
</event>
<event>
 5    1  0.8303392E-059  0.1250003E+03  0.7818608E-02  0.1235069E+00
          1   -1    0    0  501    0  0.00000000000E+00  0.00000000000E+00  0.31755799962E+02  0.31755800306E+02  0.46700000000E-02 0.  1.
         -1   -1    0    0    0  501 -0.00000000000E+00 -0.00000000000E+00 -0.12300959618E+03  0.12300959626E+03  0.46700000000E-02 0. -1.
         25    2    1    2    0    0  0.00000000000E+00  0.00000000000E+00 -0.91253796214E+02  0.15476539657E+03  0.12500029061E+03 0.  0.
        -11    1    3    3    0    0 -0.51501741951E+02  0.12231369452E+02 -0.86769625050E+02  0.10164154492E+03  0.51100000000E-03 0. -1.
         11    1    3    3    0    0  0.51501741951E+02 -0.12231369452E+02 -0.44841711639E+01  0.53123851648E+02  0.51100000000E-03 0.  1.
<mgrwt>
<rscale>  0 0.12500029E+03</rscale>
<asrwt>0</asrwt>
<pdfrwt beam="1">  1        1 0.48855078E-02 0.12500029E+03</pdfrwt>
<pdfrwt beam="2">  1       -1 0.18924553E-01 0.12500029E+03</pdfrwt>
<totfact> 0.34396362E+04</totfact>
</mgrwt>
</event>
<event>
 5    1  0.8303392E-059  0.1250015E+03  0.7818608E-02  0.1235067E+00
          1   -1    0    0  501    0  0.00000000000E+00  0.00000000000E+00  0.22750834730E+03  0.22750834735E+03  0.46700000000E-02 0. -1.
         -1   -1    0    0    0  501 -0.00000000000E+00 -0.00000000000E+00 -0.17170121436E+02  0.17170122072E+02  0.46700000000E-02 0.  1.
         25    2    1    2    0    0  0.00000000000E+00  0.00000000000E+00  0.21033822587E+03  0.24467846942E+03  0.12500153654E+03 0.  0.
        -11    1    3    3    0    0  0.32481979329E+01 -0.34717453754E+02  0.20669958122E+03  0.20962005930E+03  0.51100000000E-03 0. -1.
         11    1    3    3    0    0 -0.32481979329E+01  0.34717453754E+02  0.36386446456E+01  0.35058410120E+02  0.51100000000E-03 0.  1.
<mgrwt>
<rscale>  0 0.12500154E+03</rscale>
<asrwt>0</asrwt>
<pdfrwt beam="1">  1        1 0.35001282E-01 0.12500154E+03</pdfrwt>
<pdfrwt beam="2">  1       -1 0.26415574E-02 0.12500154E+03</pdfrwt>
<totfact> 0.51401675E+04</totfact>
</mgrwt>
</event>
<event>
 5    1  0.8303392E-059  0.1249995E+03  0.7818608E-02  0.1235070E+00
          1   -1    0    0  501    0  0.00000000000E+00  0.00000000000E+00  0.41020845151E+03  0.41020845153E+03  0.46700000000E-02 0. -1.
         -1   -1    0    0    0  501 -0.00000000000E+00 -0.00000000000E+00 -0.95225224294E+01  0.95225235745E+01  0.46700000000E-02 0.  1.
         25    2    1    2    0    0  0.00000000000E+00  0.00000000000E+00  0.40068592908E+03  0.41973097511E+03  0.12499951082E+03 0.  0.
        -11    1    3    3    0    0 -0.41594360171E+01 -0.62075889380E+02  0.18033550140E+03  0.19076585128E+03  0.51100000000E-03 0.  1.
         11    1    3    3    0    0  0.41594360171E+01  0.62075889380E+02  0.22035042768E+03  0.22896512383E+03  0.51100000000E-03 0. -1.
<mgrwt>
<rscale>  0 0.12499951E+03</rscale>
<asrwt>0</asrwt>
<pdfrwt beam="1">  1        1 0.63108994E-01 0.12499951E+03</pdfrwt>
<pdfrwt beam="2">  1       -1 0.14650035E-02 0.12499951E+03</pdfrwt>
<totfact> 0.57823512E+04</totfact>
</mgrwt>
</event>
<event>
 5    1  0.8303392E-059  0.1250006E+03  0.7818608E-02  0.1235068E+00
         -1   -1    0    0    0  501 -0.00000000000E+00  0.00000000000E+00  0.24433694132E+02  0.24433694578E+02  0.46700000000E-02 0.  1.
          1   -1    0    0  501    0  0.00000000000E+00 -0.00000000000E+00 -0.15987304618E+03  0.15987304624E+03  0.46700000000E-02 0. -1.
         25    2    1    2    0    0  0.00000000000E+00  0.00000000000E+00 -0.13543935204E+03  0.18430674082E+03  0.12500062652E+03 0.  0.
        -11    1    3    3    0    0 -0.96192918812E+01  0.57711863717E+02 -0.35312053315E+02  0.68338357454E+02  0.51100000000E-03 0.  1.
         11    1    3    3    0    0  0.96192918812E+01 -0.57711863717E+02 -0.10012729873E+03  0.11596838337E+03  0.51100000000E-03 0. -1.
<mgrwt>
<rscale>  0 0.12500063E+03</rscale>
<asrwt>0</asrwt>
<pdfrwt beam="2">  1        1 0.24595853E-01 0.12500063E+03</pdfrwt>
<pdfrwt beam="1">  1       -1 0.37590300E-02 0.12500063E+03</pdfrwt>
<totfact> 0.47691603E+04</totfact>
</mgrwt>
</event>
<event>
 5    1  0.8303392E-059  0.1249999E+03  0.7818608E-02  0.1235069E+00
          1   -1    0    0  501    0  0.00000000000E+00  0.00000000000E+00  0.95579877616E+02  0.95579877730E+02  0.46700000000E-02 0. -1.
         -1   -1    0    0    0  501 -0.00000000000E+00 -0.00000000000E+00 -0.40868897233E+02  0.40868897500E+02  0.46700000000E-02 0.  1.
         25    2    1    2    0    0  0.00000000000E+00  0.00000000000E+00  0.54710980382E+02  0.13644877523E+03  0.12499990755E+03 0.  0.
        -11    1    3    3    0    0  0.42573719989E+02 -0.30750197172E+02 -0.96323420795E+01  0.53393616416E+02  0.51100000000E-03 0.  1.
         11    1    3    3    0    0 -0.42573719989E+02  0.30750197172E+02  0.64343322462E+02  0.83055158814E+02  0.51100000000E-03 0. -1.
<mgrwt>
<rscale>  0 0.12499991E+03</rscale>
<asrwt>0</asrwt>
<pdfrwt beam="1">  1        1 0.14704596E-01 0.12499991E+03</pdfrwt>
<pdfrwt beam="2">  1       -1 0.62875228E-02 0.12499991E+03</pdfrwt>
<totfact> 0.42970877E+04</totfact>
</mgrwt>
</event>
<event>
 5    1  0.8303392E-059  0.1250006E+03  0.7818608E-02  0.1235068E+00
         -1   -1    0    0    0  501 -0.00000000000E+00  0.00000000000E+00  0.53374766894E+03  0.53374766896E+03  0.46700000000E-02 0.  1.
          1   -1    0    0  501    0  0.00000000000E+00 -0.00000000000E+00 -0.73185990870E+01  0.73186005770E+01  0.46700000000E-02 0. -1.
         25    2    1    2    0    0  0.00000000000E+00  0.00000000000E+00  0.52642906986E+03  0.54106626954E+03  0.12500056978E+03 0.  0.
        -11    1    3    3    0    0 -0.53038482270E+02 -0.32424594599E+02  0.29121657672E+03  0.29777765110E+03  0.51100000000E-03 0.  1.
         11    1    3    3    0    0  0.53038482270E+02  0.32424594599E+02  0.23521249314E+03  0.24328861844E+03  0.51100000000E-03 0. -1.
<mgrwt>
<rscale>  0 0.12500057E+03</rscale>
<asrwt>0</asrwt>
<pdfrwt beam="2">  1        1 0.11259383E-02 0.12500057E+03</pdfrwt>
<pdfrwt beam="1">  1       -1 0.82115038E-01 0.12500057E+03</pdfrwt>
<totfact> 0.19530648E+04</totfact>
</mgrwt>
</event>
<event>
 5    1  0.8303392E-059  0.1250029E+03  0.7818608E-02  0.1235065E+00
         -1   -1    0    0    0  501 -0.00000000000E+00  0.00000000000E+00  0.32440317149E+03  0.32440317152E+03  0.46700000000E-02 0.  1.
          1   -1    0    0  501    0  0.00000000000E+00 -0.00000000000E+00 -0.12041893212E+02  0.12041894118E+02  0.46700000000E-02 0. -1.
         25    2    1    2    0    0  0.00000000000E+00  0.00000000000E+00  0.31236127828E+03  0.33644506564E+03  0.12500285607E+03 0.  0.
        -11    1    3    3    0    0  0.55804671011E+02  0.10552253031E+02  0.22641366272E+03  0.23342805748E+03  0.51100000000E-03 0.  1.
         11    1    3    3    0    0 -0.55804671011E+02 -0.10552253031E+02  0.85947615551E+02  0.10301700816E+03  0.51100000000E-03 0. -1.
<mgrwt>
<rscale>  0 0.12500286E+03</rscale>
<asrwt>0</asrwt>
<pdfrwt beam="2">  1        1 0.18525993E-02 0.12500286E+03</pdfrwt>
<pdfrwt beam="1">  1       -1 0.49908172E-01 0.12500286E+03</pdfrwt>
<totfact> 0.25483913E+04</totfact>
</mgrwt>
</event>
<event>
 5    1  0.8303392E-059  0.1249963E+03  0.7818608E-02  0.1235075E+00
          1   -1    0    0  501    0  0.00000000000E+00  0.00000000000E+00  0.21326978686E+03  0.21326978691E+03  0.46700000000E-02 0. -1.
         -1   -1    0    0    0  501 -0.00000000000E+00 -0.00000000000E+00 -0.18314904511E+02  0.18314905106E+02  0.46700000000E-02 0.  1.
         25    2    1    2    0    0  0.00000000000E+00  0.00000000000E+00  0.19495488235E+03  0.23158469201E+03  0.12499625364E+03 0.  0.
        -11    1    3    3    0    0 -0.19219250410E+02  0.59308408113E+02  0.89369961592E+02  0.10896722853E+03  0.51100000000E-03 0.  1.
         11    1    3    3    0    0  0.19219250410E+02 -0.59308408113E+02  0.10558492075E+03  0.12261746348E+03  0.51100000000E-03 0. -1.
<mgrwt>
<rscale>  0 0.12499625E+03</rscale>
<asrwt>0</asrwt>
<pdfrwt beam="1">  1        1 0.32810735E-01 0.12499625E+03</pdfrwt>
<pdfrwt beam="2">  1       -1 0.28176778E-02 0.12499625E+03</pdfrwt>
<totfact> 0.50703721E+04</totfact>
</mgrwt>
</event>
<event>
 5    1  0.8303392E-059  0.1250007E+03  0.7818608E-02  0.1235068E+00
         -1   -1    0    0    0  501 -0.00000000000E+00  0.00000000000E+00  0.18756488544E+02  0.18756489125E+02  0.46700000000E-02 0.  1.
          1   -1    0    0  501    0  0.00000000000E+00 -0.00000000000E+00 -0.20826374782E+03  0.20826374787E+03  0.46700000000E-02 0. -1.
         25    2    1    2    0    0  0.00000000000E+00  0.00000000000E+00 -0.18950725927E+03  0.22702023700E+03  0.12500074675E+03 0.  0.
        -11    1    3    3    0    0  0.61201091312E+02 -0.76413771078E+00 -0.11773631522E+03  0.13269512955E+03  0.51100000000E-03 0.  1.
         11    1    3    3    0    0 -0.61201091312E+02  0.76413771078E+00 -0.71770944054E+02  0.94325107447E+02  0.51100000000E-03 0. -1.
<mgrwt>
<rscale>  0 0.12500075E+03</rscale>
<asrwt>0</asrwt>
<pdfrwt beam="2">  1        1 0.32040575E-01 0.12500075E+03</pdfrwt>
<pdfrwt beam="1">  1       -1 0.28856138E-02 0.12500075E+03</pdfrwt>
<totfact> 0.50442166E+04</totfact>
</mgrwt>
</event>
<event>
 5    1  0.8303392E-059  0.1249975E+03  0.7818608E-02  0.1235073E+00
         -1   -1    0    0    0  501 -0.00000000000E+00  0.00000000000E+00  0.55554695816E+02  0.55554696012E+02  0.46700000000E-02 0.  1.
          1   -1    0    0  501    0  0.00000000000E+00 -0.00000000000E+00 -0.70310749813E+02  0.70310749968E+02  0.46700000000E-02 0. -1.
         25    2    1    2    0    0  0.00000000000E+00  0.00000000000E+00 -0.14756053998E+02  0.12586544598E+03  0.12499747742E+03 0.  0.
        -11    1    3    3    0    0 -0.61857155827E+02  0.76807271338E+01 -0.27866450874E+01  0.62394444363E+02  0.51100000000E-03 0.  1.
         11    1    3    3    0    0  0.61857155827E+02 -0.76807271338E+01 -0.11969408910E+02  0.63471001617E+02  0.51100000000E-03 0. -1.
<mgrwt>
<rscale>  0 0.12499748E+03</rscale>
<asrwt>0</asrwt>
<pdfrwt beam="2">  1        1 0.10817038E-01 0.12499748E+03</pdfrwt>
<pdfrwt beam="1">  1       -1 0.85468763E-02 0.12499748E+03</pdfrwt>
<totfact> 0.40483659E+04</totfact>
</mgrwt>
</event>
<event>
 5    1  0.8303392E-059  0.1250004E+03  0.7818608E-02  0.1235069E+00
         -1   -1    0    0    0  501 -0.00000000000E+00  0.00000000000E+00  0.19833686726E+02  0.19833687275E+02  0.46700000000E-02 0.  1.
          1   -1    0    0  501    0  0.00000000000E+00 -0.00000000000E+00 -0.19695163131E+03  0.19695163137E+03  0.46700000000E-02 0. -1.
         25    2    1    2    0    0  0.00000000000E+00  0.00000000000E+00 -0.17711794459E+03  0.21678531864E+03  0.12500043234E+03 0.  0.
        -11    1    3    3    0    0  0.61682587765E+02  0.68314098252E+01 -0.10140517761E+03  0.11888826620E+03  0.51100000000E-03 0. -1.
         11    1    3    3    0    0 -0.61682587765E+02 -0.68314098252E+01 -0.75712766977E+02  0.97897052444E+02  0.51100000000E-03 0.  1.
<mgrwt>
<rscale>  0 0.12500043E+03</rscale>
<asrwt>0</asrwt>
<pdfrwt beam="2">  1        1 0.30300250E-01 0.12500043E+03</pdfrwt>
<pdfrwt beam="1">  1       -1 0.30513366E-02 0.12500043E+03</pdfrwt>
<totfact> 0.49844168E+04</totfact>
</mgrwt>
</event>
<event>
 5    1  0.8303392E-059  0.1250066E+03  0.7818608E-02  0.1235059E+00
          1   -1    0    0  501    0  0.00000000000E+00  0.00000000000E+00  0.85020558658E+02  0.85020558787E+02  0.46700000000E-02 0. -1.
         -1   -1    0    0    0  501 -0.00000000000E+00 -0.00000000000E+00 -0.45949592768E+02  0.45949593005E+02  0.46700000000E-02 0.  1.
         25    2    1    2    0    0  0.00000000000E+00  0.00000000000E+00  0.39070965891E+02  0.13097015179E+03  0.12500656097E+03 0.  0.
        -11    1    3    3    0    0  0.16624355047E+02  0.27802081635E+02 -0.36468654782E+02  0.48777942821E+02  0.51100000000E-03 0.  1.
         11    1    3    3    0    0 -0.16624355047E+02 -0.27802081635E+02  0.75539620673E+02  0.82192208971E+02  0.51100000000E-03 0. -1.
<mgrwt>
<rscale>  0 0.12500656E+03</rscale>
<asrwt>0</asrwt>
<pdfrwt beam="1">  1        1 0.13080086E-01 0.12500656E+03</pdfrwt>
<pdfrwt beam="2">  1       -1 0.70691681E-02 0.12500656E+03</pdfrwt>
<totfact> 0.41991997E+04</totfact>
</mgrwt>
</event>
<event>
 5    1  0.8303392E-059  0.1250020E+03  0.7818608E-02  0.1235066E+00
         -1   -1    0    0    0  501 -0.00000000000E+00  0.00000000000E+00  0.95826642987E+02  0.95826643101E+02  0.46700000000E-02 0.  1.
          1   -1    0    0  501    0  0.00000000000E+00 -0.00000000000E+00 -0.40765004487E+02  0.40765004754E+02  0.46700000000E-02 0. -1.
         25    2    1    2    0    0  0.00000000000E+00  0.00000000000E+00  0.55061638501E+02  0.13659164786E+03  0.12500197690E+03 0.  0.
        -11    1    3    3    0    0 -0.62373092819E+02  0.34173956982E+01  0.29794681873E+02  0.69208412562E+02  0.51100000000E-03 0.  1.
         11    1    3    3    0    0  0.62373092819E+02 -0.34173956982E+01  0.25266956627E+02  0.67383235294E+02  0.51100000000E-03 0. -1.
<mgrwt>
<rscale>  0 0.12500198E+03</rscale>
<asrwt>0</asrwt>
<pdfrwt beam="2">  1        1 0.62715393E-02 0.12500198E+03</pdfrwt>
<pdfrwt beam="1">  1       -1 0.14742560E-01 0.12500198E+03</pdfrwt>
<totfact> 0.36324382E+04</totfact>
</mgrwt>
</event>
<event>
 5    1  0.8303392E-059  0.1250000E+03  0.7818608E-02  0.1235069E+00
          1   -1    0    0  501    0  0.00000000000E+00  0.00000000000E+00  0.12271361790E+02  0.12271362678E+02  0.46700000000E-02 0. -1.
         -1   -1    0    0    0  501 -0.00000000000E+00 -0.00000000000E+00 -0.31832242202E+03  0.31832242206E+03  0.46700000000E-02 0.  1.
         25    2    1    2    0    0  0.00000000000E+00  0.00000000000E+00 -0.30605106023E+03  0.33059378474E+03  0.12499999614E+03 0.  0.
        -11    1    3    3    0    0 -0.61031949424E+02 -0.78681551462E-01 -0.18864087379E+03  0.19826821305E+03  0.51100000000E-03 0.  1.
         11    1    3    3    0    0  0.61031949424E+02  0.78681551462E-01 -0.11741018644E+03  0.13232557169E+03  0.51100000000E-03 0. -1.
<mgrwt>
<rscale>  0 0.12500000E+03</rscale>
<asrwt>0</asrwt>
<pdfrwt beam="1">  1        1 0.18879021E-02 0.12500000E+03</pdfrwt>
<pdfrwt beam="2">  1       -1 0.48972674E-01 0.12500000E+03</pdfrwt>
<totfact> 0.25691442E+04</totfact>
</mgrwt>
</event>
<event>
 5    1  0.8303392E-059  0.1250088E+03  0.7818608E-02  0.1235056E+00
          1   -1    0    0  501    0  0.00000000000E+00  0.00000000000E+00  0.97868351715E+02  0.97868351826E+02  0.46700000000E-02 0. -1.
         -1   -1    0    0    0  501 -0.00000000000E+00 -0.00000000000E+00 -0.39918935604E+02  0.39918935877E+02  0.46700000000E-02 0.  1.
         25    2    1    2    0    0  0.00000000000E+00  0.00000000000E+00  0.57949416111E+02  0.13778728770E+03  0.12500880699E+03 0.  0.
        -11    1    3    3    0    0  0.39436406627E+02  0.31486443830E+02 -0.11675783175E+02  0.51797202876E+02  0.51100000000E-03 0.  1.
         11    1    3    3    0    0 -0.39436406627E+02 -0.31486443830E+02  0.69625199286E+02  0.85990084827E+02  0.51100000000E-03 0. -1.
<mgrwt>
<rscale>  0 0.12500881E+03</rscale>
<asrwt>0</asrwt>
<pdfrwt beam="1">  1        1 0.15056669E-01 0.12500881E+03</pdfrwt>
<pdfrwt beam="2">  1       -1 0.61413747E-02 0.12500881E+03</pdfrwt>
<totfact> 0.43162602E+04</totfact>
</mgrwt>
</event>
<event>
 5    1  0.8303392E-059  0.1250001E+03  0.7818608E-02  0.1235069E+00
          1   -1    0    0  501    0  0.00000000000E+00  0.00000000000E+00  0.89820073197E+01  0.89820085337E+01  0.46700000000E-02 0. -1.
         -1   -1    0    0    0  501 -0.00000000000E+00 -0.00000000000E+00 -0.43489806422E+03  0.43489806425E+03  0.46700000000E-02 0.  1.
         25    2    1    2    0    0  0.00000000000E+00  0.00000000000E+00 -0.42591605690E+03  0.44388007278E+03  0.12500012594E+03 0.  0.
        -11    1    3    3    0    0 -0.23617169806E+02  0.56716118088E+02 -0.25372064042E+03  0.26105296806E+03  0.51100000000E-03 0.  1.
         11    1    3    3    0    0  0.23617169806E+02 -0.56716118088E+02 -0.17219541648E+03  0.18282710472E+03  0.51100000000E-03 0. -1.
<mgrwt>
<rscale>  0 0.12500013E+03</rscale>
<asrwt>0</asrwt>
<pdfrwt beam="1">  1        1 0.13818477E-02 0.12500013E+03</pdfrwt>
<pdfrwt beam="2">  1       -1 0.66907378E-01 0.12500013E+03</pdfrwt>
<totfact> 0.22100207E+04</totfact>
</mgrwt>
</event>
<event>
 5    1  0.8303392E-059  0.1249962E+03  0.7818608E-02  0.1235075E+00
          1   -1    0    0  501    0  0.00000000000E+00  0.00000000000E+00  0.21294506340E+03  0.21294506345E+03  0.46700000000E-02 0. -1.
         -1   -1    0    0    0  501 -0.00000000000E+00 -0.00000000000E+00 -0.18342816481E+02  0.18342817075E+02  0.46700000000E-02 0.  1.
         25    2    1    2    0    0  0.00000000000E+00  0.00000000000E+00  0.19460224692E+03  0.23128788053E+03  0.12499619663E+03 0.  0.
        -11    1    3    3    0    0 -0.14160864970E+02 -0.60870116796E+02  0.96269098259E+02  0.11477560932E+03  0.51100000000E-03 0.  1.
         11    1    3    3    0    0  0.14160864970E+02  0.60870116796E+02  0.98333148663E+02  0.11651227121E+03  0.51100000000E-03 0. -1.
<mgrwt>
<rscale>  0 0.12499620E+03</rscale>
<asrwt>0</asrwt>
<pdfrwt beam="1">  1        1 0.32760778E-01 0.12499620E+03</pdfrwt>
<pdfrwt beam="2">  1       -1 0.28219719E-02 0.12499620E+03</pdfrwt>
<totfact> 0.50687292E+04</totfact>
</mgrwt>
</event>
<event>
 5    1  0.8303392E-059  0.1249977E+03  0.7818608E-02  0.1235073E+00
         -1   -1    0    0    0  501 -0.00000000000E+00  0.00000000000E+00  0.35087376828E+03  0.35087376831E+03  0.46700000000E-02 0.  1.
          1   -1    0    0  501    0  0.00000000000E+00 -0.00000000000E+00 -0.11132502867E+02  0.11132503847E+02  0.46700000000E-02 0. -1.
         25    2    1    2    0    0  0.00000000000E+00  0.00000000000E+00  0.33974126541E+03  0.36200627215E+03  0.12499765461E+03 0.  0.
        -11    1    3    3    0    0  0.33890714778E+01  0.55173707339E+02  0.85411583437E+02  0.10173869653E+03  0.51100000000E-03 0. -1.
         11    1    3    3    0    0 -0.33890714778E+01 -0.55173707339E+02  0.25432968197E+03  0.26026757562E+03  0.51100000000E-03 0.  1.
<mgrwt>
<rscale>  0 0.12499765E+03</rscale>
<asrwt>0</asrwt>
<pdfrwt beam="2">  1        1 0.17126927E-02 0.12499765E+03</pdfrwt>
<pdfrwt beam="1">  1       -1 0.53980585E-01 0.12499765E+03</pdfrwt>
<totfact> 0.24617263E+04</totfact>
</mgrwt>
</event>
<event>
 5    1  0.8303392E-059  0.1249995E+03  0.7818608E-02  0.1235070E+00
          1   -1    0    0  501    0  0.00000000000E+00  0.00000000000E+00  0.28523233479E+03  0.28523233483E+03  0.46700000000E-02 0. -1.
         -1   -1    0    0    0  501 -0.00000000000E+00 -0.00000000000E+00 -0.13694860943E+02  0.13694861739E+02  0.46700000000E-02 0.  1.
         25    2    1    2    0    0  0.00000000000E+00  0.00000000000E+00  0.27153747385E+03  0.29892719657E+03  0.12499947658E+03 0.  0.
        -11    1    3    3    0    0  0.59940769648E+02 -0.16694312662E+02  0.12169759965E+03  0.13668175336E+03  0.51100000000E-03 0.  1.
         11    1    3    3    0    0 -0.59940769648E+02  0.16694312662E+02  0.14983987419E+03  0.16224544320E+03  0.51100000000E-03 0. -1.
<mgrwt>
<rscale>  0 0.12499948E+03</rscale>
<asrwt>0</asrwt>
<pdfrwt beam="1">  1        1 0.43881897E-01 0.12499948E+03</pdfrwt>
<pdfrwt beam="2">  1       -1 0.21069018E-02 0.12499948E+03</pdfrwt>
<totfact> 0.53920212E+04</totfact>
</mgrwt>
</event>
<event>
 5    1  0.8303392E-059  0.1249988E+03  0.7818608E-02  0.1235071E+00
          1   -1    0    0  501    0  0.00000000000E+00  0.00000000000E+00  0.60244855175E+02  0.60244855356E+02  0.46700000000E-02 0. -1.
         -1   -1    0    0    0  501 -0.00000000000E+00 -0.00000000000E+00 -0.64838266211E+02  0.64838266379E+02  0.46700000000E-02 0.  1.
         25    2    1    2    0    0  0.00000000000E+00  0.00000000000E+00 -0.45934110365E+01  0.12508312173E+03  0.12499875167E+03 0.  0.
        -11    1    3    3    0    0  0.23531418459E+02  0.57529492493E+02  0.42500201635E+01  0.62301146321E+02  0.51100000000E-03 0.  1.
         11    1    3    3    0    0 -0.23531418459E+02 -0.57529492493E+02 -0.88434312000E+01  0.62781975414E+02  0.51100000000E-03 0. -1.
<mgrwt>
<rscale>  0 0.12499875E+03</rscale>
<asrwt>0</asrwt>
<pdfrwt beam="1">  1        1 0.92684393E-02 0.12499875E+03</pdfrwt>
<pdfrwt beam="2">  1       -1 0.99751179E-02 0.12499875E+03</pdfrwt>
<totfact> 0.39287495E+04</totfact>
</mgrwt>
</event>
<event>
 5    1  0.8303392E-059  0.1249991E+03  0.7818608E-02  0.1235071E+00
          1   -1    0    0  501    0  0.00000000000E+00  0.00000000000E+00  0.33476432385E+02  0.33476432710E+02  0.46700000000E-02 0. -1.
         -1   -1    0    0    0  501 -0.00000000000E+00 -0.00000000000E+00 -0.11668493055E+03  0.11668493064E+03  0.46700000000E-02 0.  1.
         25    2    1    2    0    0  0.00000000000E+00  0.00000000000E+00 -0.83208498162E+02  0.15016136335E+03  0.12499912350E+03 0.  0.
        -11    1    3    3    0    0 -0.22180955267E+02  0.50248452058E+02 -0.77428225960E+02  0.94931722234E+02  0.51100000000E-03 0.  1.
         11    1    3    3    0    0  0.22180955267E+02 -0.50248452058E+02 -0.57802722015E+01  0.55229641116E+02  0.51100000000E-03 0. -1.
<mgrwt>
<rscale>  0 0.12499912E+03</rscale>
<asrwt>0</asrwt>
<pdfrwt beam="1">  1        1 0.51502205E-02 0.12499912E+03</pdfrwt>
<pdfrwt beam="2">  1       -1 0.17951528E-01 0.12499912E+03</pdfrwt>
<totfact> 0.34811210E+04</totfact>
</mgrwt>
</event>
<event>
 5    1  0.8303392E-059  0.1250000E+03  0.7818608E-02  0.1235069E+00
         -1   -1    0    0    0  501 -0.00000000000E+00  0.00000000000E+00  0.16828460810E+03  0.16828460816E+03  0.46700000000E-02 0.  1.
          1   -1    0    0  501    0  0.00000000000E+00 -0.00000000000E+00 -0.23212175162E+02  0.23212175632E+02  0.46700000000E-02 0. -1.
         25    2    1    2    0    0  0.00000000000E+00  0.00000000000E+00  0.14507243293E+03  0.19149678379E+03  0.12500002962E+03 0.  0.
        -11    1    3    3    0    0 -0.30462933634E+02  0.47838785858E+02  0.32302950440E+02  0.65268831500E+02  0.51100000000E-03 0. -1.
         11    1    3    3    0    0  0.30462933634E+02 -0.47838785858E+02  0.11276948249E+03  0.12622795229E+03  0.51100000000E-03 0.  1.
<mgrwt>
<rscale>  0 0.12500003E+03</rscale>
<asrwt>0</asrwt>
<pdfrwt beam="2">  1        1 0.35711040E-02 0.12500003E+03</pdfrwt>
<pdfrwt beam="1">  1       -1 0.25889939E-01 0.12500003E+03</pdfrwt>
<totfact> 0.31827448E+04</totfact>
</mgrwt>
</event>
<event>
 5    1  0.8303392E-059  0.1249922E+03  0.7818608E-02  0.1235082E+00
         -1   -1    0    0    0  501 -0.00000000000E+00  0.00000000000E+00  0.92662730846E+02  0.92662730964E+02  0.46700000000E-02 0.  1.
          1   -1    0    0  501    0  0.00000000000E+00 -0.00000000000E+00 -0.42150273523E+02  0.42150273782E+02  0.46700000000E-02 0. -1.
         25    2    1    2    0    0  0.00000000000E+00  0.00000000000E+00  0.50512457323E+02  0.13481300475E+03  0.12499215137E+03 0.  0.
        -11    1    3    3    0    0  0.19978862457E+02  0.57981148934E+02  0.38234584499E+02  0.72269302120E+02  0.51100000000E-03 0.  1.
         11    1    3    3    0    0 -0.19978862457E+02 -0.57981148934E+02  0.12277872824E+02  0.62543702626E+02  0.51100000000E-03 0. -1.
<mgrwt>
<rscale>  0 0.12499215E+03</rscale>
<asrwt>0</asrwt>
<pdfrwt beam="2">  1        1 0.64846575E-02 0.12499215E+03</pdfrwt>
<pdfrwt beam="1">  1       -1 0.14255805E-01 0.12499215E+03</pdfrwt>
<totfact> 0.36586883E+04</totfact>
</mgrwt>
</event>
<event>
 5    1  0.8303392E-059  0.1250010E+03  0.7818608E-02  0.1235068E+00
          1   -1    0    0  501    0  0.00000000000E+00  0.00000000000E+00  0.14629034821E+03  0.14629034828E+03  0.46700000000E-02 0. -1.
         -1   -1    0    0    0  501 -0.00000000000E+00 -0.00000000000E+00 -0.26702450349E+02  0.26702450758E+02  0.46700000000E-02 0.  1.
         25    2    1    2    0    0  0.00000000000E+00  0.00000000000E+00  0.11958789786E+03  0.17299279904E+03  0.12500097282E+03 0.  0.
        -11    1    3    3    0    0  0.44447519490E+02  0.42597259632E+02  0.74712339235E+02  0.96809308185E+02  0.51100000000E-03 0. -1.
         11    1    3    3    0    0 -0.44447519490E+02 -0.42597259632E+02  0.44875558624E+02  0.76183490856E+02  0.51100000000E-03 0.  1.
<mgrwt>
<rscale>  0 0.12500097E+03</rscale>
<asrwt>0</asrwt>
<pdfrwt beam="1">  1        1 0.22506207E-01 0.12500097E+03</pdfrwt>
<pdfrwt beam="2">  1       -1 0.41080694E-02 0.12500097E+03</pdfrwt>
<totfact> 0.46818192E+04</totfact>
</mgrwt>
</event>
<event>
 5    1  0.8303392E-059  0.1249963E+03  0.7818608E-02  0.1235075E+00
          1   -1    0    0  501    0  0.00000000000E+00  0.00000000000E+00  0.27265600486E+02  0.27265600886E+02  0.46700000000E-02 0. -1.
         -1   -1    0    0    0  501 -0.00000000000E+00 -0.00000000000E+00 -0.14325822161E+03  0.14325822169E+03  0.46700000000E-02 0.  1.
         25    2    1    2    0    0  0.00000000000E+00  0.00000000000E+00 -0.11599262113E+03  0.17052382258E+03  0.12499634359E+03 0.  0.
        -11    1    3    3    0    0  0.52654797433E+01 -0.47425832544E+02 -0.11305930648E+03  0.12271650928E+03  0.51100000000E-03 0.  1.
         11    1    3    3    0    0 -0.52654797433E+01  0.47425832544E+02 -0.29333146532E+01  0.47807313295E+02  0.51100000000E-03 0. -1.
<mgrwt>
<rscale>  0 0.12499634E+03</rscale>
<asrwt>0</asrwt>
<pdfrwt beam="1">  1        1 0.41947079E-02 0.12499634E+03</pdfrwt>
<pdfrwt beam="2">  1       -1 0.22039726E-01 0.12499634E+03</pdfrwt>
<totfact> 0.33175992E+04</totfact>
</mgrwt>
</event>
<event>
 5    1  0.1283195E-058  0.1249974E+03  0.7818608E-02  0.1235073E+00
         -1   -1    0    0    0  501 -0.00000000000E+00  0.00000000000E+00  0.13813258380E+03  0.13813258388E+03  0.46700000000E-02 0.  1.
          1   -1    0    0  501    0  0.00000000000E+00 -0.00000000000E+00 -0.28277832900E+02  0.28277833285E+02  0.46700000000E-02 0. -1.
         25    2    1    2    0    0  0.00000000000E+00  0.00000000000E+00  0.10985475090E+03  0.16641041717E+03  0.12499744256E+03 0.  0.
        -11    1    3    3    0    0  0.61493596472E+02 -0.10985541043E+02  0.57571842891E+02  0.84950936506E+02  0.51100000000E-03 0. -1.
         11    1    3    3    0    0 -0.61493596472E+02  0.10985541043E+02  0.52282908014E+02  0.81459480662E+02  0.51100000000E-03 0.  1.
<mgrwt>
<rscale>  0 0.12499744E+03</rscale>
<asrwt>0</asrwt>
<pdfrwt beam="2">  1        1 0.43504359E-02 0.12499744E+03</pdfrwt>
<pdfrwt beam="1">  1       -1 0.21251167E-01 0.12499744E+03</pdfrwt>
<totfact> 0.33471675E+04</totfact>
</mgrwt>
</event>
<event>
 5    1  0.8303392E-059  0.1249999E+03  0.7818608E-02  0.1235069E+00
          1   -1    0    0  501    0  0.00000000000E+00  0.00000000000E+00  0.26575788852E+03  0.26575788856E+03  0.46700000000E-02 0. -1.
         -1   -1    0    0    0  501 -0.00000000000E+00 -0.00000000000E+00 -0.14698508853E+02  0.14698509595E+02  0.46700000000E-02 0.  1.
         25    2    1    2    0    0  0.00000000000E+00  0.00000000000E+00  0.25105937966E+03  0.28045639815E+03  0.12499991659E+03 0.  0.
        -11    1    3    3    0    0 -0.47946457652E+02 -0.33139717467E+02  0.74903561912E+02  0.94908625860E+02  0.51100000000E-03 0.  1.
         11    1    3    3    0    0  0.47946457652E+02  0.33139717467E+02  0.17615581775E+03  0.18554777229E+03  0.51100000000E-03 0. -1.
<mgrwt>
<rscale>  0 0.12499992E+03</rscale>
<asrwt>0</asrwt>
<pdfrwt beam="1">  1        1 0.40885826E-01 0.12499992E+03</pdfrwt>
<pdfrwt beam="2">  1       -1 0.22613093E-02 0.12499992E+03</pdfrwt>
<totfact> 0.53125691E+04</totfact>
</mgrwt>
</event>
<event>
 5    1  0.8303392E-059  0.1249990E+03  0.7818608E-02  0.1235071E+00
          1   -1    0    0  501    0  0.00000000000E+00  0.00000000000E+00  0.14345267435E+03  0.14345267443E+03  0.46700000000E-02 0. -1.
         -1   -1    0    0    0  501 -0.00000000000E+00 -0.00000000000E+00 -0.27229785553E+02  0.27229785954E+02  0.46700000000E-02 0.  1.
         25    2    1    2    0    0  0.00000000000E+00  0.00000000000E+00  0.11622288880E+03  0.17068246038E+03  0.12499896960E+03 0.  0.
        -11    1    3    3    0    0  0.56126243486E+02 -0.27446211432E+02  0.60369996970E+02  0.86879147466E+02  0.51100000000E-03 0.  1.
         11    1    3    3    0    0 -0.56126243486E+02  0.27446211432E+02  0.55852891828E+02  0.83803312916E+02  0.51100000000E-03 0. -1.
<mgrwt>
<rscale>  0 0.12499897E+03</rscale>
<asrwt>0</asrwt>
<pdfrwt beam="1">  1        1 0.22069642E-01 0.12499897E+03</pdfrwt>
<pdfrwt beam="2">  1       -1 0.41891979E-02 0.12499897E+03</pdfrwt>
<totfact> 0.46631035E+04</totfact>
</mgrwt>
</event>
<event>
 5    1  0.8303392E-059  0.1250003E+03  0.7818608E-02  0.1235069E+00
         -1   -1    0    0    0  501 -0.00000000000E+00  0.00000000000E+00  0.16725270269E+03  0.16725270276E+03  0.46700000000E-02 0.  1.
          1   -1    0    0  501    0  0.00000000000E+00 -0.00000000000E+00 -0.23355474708E+02  0.23355475175E+02  0.46700000000E-02 0. -1.
         25    2    1    2    0    0  0.00000000000E+00  0.00000000000E+00  0.14389722799E+03  0.19060817793E+03  0.12500026109E+03 0.  0.
        -11    1    3    3    0    0  0.54507485917E+02 -0.28069917808E+02  0.90454186022E+02  0.10927463601E+03  0.51100000000E-03 0.  1.
         11    1    3    3    0    0 -0.54507485917E+02  0.28069917808E+02  0.53443041963E+02  0.81333541920E+02  0.51100000000E-03 0. -1.
<mgrwt>
<rscale>  0 0.12500026E+03</rscale>
<asrwt>0</asrwt>
<pdfrwt beam="2">  1        1 0.35931499E-02 0.12500026E+03</pdfrwt>
<pdfrwt beam="1">  1       -1 0.25731186E-01 0.12500026E+03</pdfrwt>
<totfact> 0.31879877E+04</totfact>
</mgrwt>
</event>
<event>
 5    1  0.8303392E-059  0.1249966E+03  0.7818608E-02  0.1235075E+00
         -1   -1    0    0    0  501 -0.00000000000E+00  0.00000000000E+00  0.87242843454E+01  0.87242855953E+01  0.46700000000E-02 0.  1.
          1   -1    0    0  501    0  0.00000000000E+00 -0.00000000000E+00 -0.44771973469E+03  0.44771973472E+03  0.46700000000E-02 0. -1.
         25    2    1    2    0    0  0.00000000000E+00  0.00000000000E+00 -0.43899545035E+03  0.45644402031E+03  0.12499655297E+03 0.  0.
        -11    1    3    3    0    0  0.32194962401E+02  0.51491368212E+02 -0.16556218707E+03  0.17634827584E+03  0.51100000000E-03 0.  1.
         11    1    3    3    0    0 -0.32194962401E+02 -0.51491368212E+02 -0.27343326328E+03  0.28009574447E+03  0.51100000000E-03 0. -1.
<mgrwt>
<rscale>  0 0.12499655E+03</rscale>
<asrwt>0</asrwt>
<pdfrwt beam="2">  1        1 0.68879941E-01 0.12499655E+03</pdfrwt>
<pdfrwt beam="1">  1       -1 0.13421980E-02 0.12499655E+03</pdfrwt>
<totfact> 0.58653797E+04</totfact>
</mgrwt>
</event>
<event>
 5    1  0.8303392E-059  0.1250052E+03  0.7818608E-02  0.1235061E+00
          1   -1    0    0  501    0  0.00000000000E+00  0.00000000000E+00  0.14772175557E+03  0.14772175565E+03  0.46700000000E-02 0. -1.
         -1   -1    0    0    0  501 -0.00000000000E+00 -0.00000000000E+00 -0.26445497297E+02  0.26445497709E+02  0.46700000000E-02 0.  1.
         25    2    1    2    0    0  0.00000000000E+00  0.00000000000E+00  0.12127625828E+03  0.17416725336E+03  0.12500520517E+03 0.  0.
        -11    1    3    3    0    0  0.60900023368E+02  0.93537278297E+01  0.75268913299E+02  0.97271344085E+02  0.51100000000E-03 0.  1.
         11    1    3    3    0    0 -0.60900023368E+02 -0.93537278297E+01  0.46007344977E+02  0.76895909271E+02  0.51100000000E-03 0. -1.
<mgrwt>
<rscale>  0 0.12500521E+03</rscale>
<asrwt>0</asrwt>
<pdfrwt beam="1">  1        1 0.22726424E-01 0.12500521E+03</pdfrwt>
<pdfrwt beam="2">  1       -1 0.40685380E-02 0.12500521E+03</pdfrwt>
<totfact> 0.46908262E+04</totfact>
</mgrwt>
</event>
<event>
 5    1  0.8303392E-059  0.1249981E+03  0.7818608E-02  0.1235072E+00
         -1   -1    0    0    0  501 -0.00000000000E+00  0.00000000000E+00  0.10894537824E+02  0.10894538825E+02  0.46700000000E-02 0.  1.
          1   -1    0    0  501    0  0.00000000000E+00 -0.00000000000E+00 -0.35854025749E+03  0.35854025752E+03  0.46700000000E-02 0. -1.
         25    2    1    2    0    0  0.00000000000E+00  0.00000000000E+00 -0.34764571967E+03  0.36943479635E+03  0.12499808938E+03 0.  0.
        -11    1    3    3    0    0 -0.23804989346E+02 -0.50218099624E+02 -0.89313720208E+02  0.10519256469E+03  0.51100000000E-03 0.  1.
         11    1    3    3    0    0  0.23804989346E+02  0.50218099624E+02 -0.25833199946E+03  0.26424223166E+03  0.51100000000E-03 0. -1.
<mgrwt>
<rscale>  0 0.12499809E+03</rscale>
<asrwt>0</asrwt>
<pdfrwt beam="2">  1        1 0.55160031E-01 0.12499809E+03</pdfrwt>
<pdfrwt beam="1">  1       -1 0.16760831E-02 0.12499809E+03</pdfrwt>
<totfact> 0.56438231E+04</totfact>
</mgrwt>
</event>
<event>
 5    1  0.8303392E-059  0.1250013E+03  0.7818608E-02  0.1235067E+00
         -1   -1    0    0    0  501 -0.00000000000E+00  0.00000000000E+00  0.90694953025E+02  0.90694953145E+02  0.46700000000E-02 0.  1.
          1   -1    0    0  501    0  0.00000000000E+00 -0.00000000000E+00 -0.43071101770E+02  0.43071102023E+02  0.46700000000E-02 0. -1.
         25    2    1    2    0    0  0.00000000000E+00  0.00000000000E+00  0.47623851255E+02  0.13376605517E+03  0.12500130522E+03 0.  0.
        -11    1    3    3    0    0  0.37772941744E+02  0.19607817980E+02  0.72793262335E+02  0.84321531625E+02  0.51100000000E-03 0.  1.
         11    1    3    3    0    0 -0.37772941744E+02 -0.19607817980E+02 -0.25169411080E+02  0.49444523543E+02  0.51100000000E-03 0. -1.
<mgrwt>
<rscale>  0 0.12500131E+03</rscale>
<asrwt>0</asrwt>
<pdfrwt beam="2">  1        1 0.66263235E-02 0.12500131E+03</pdfrwt>
<pdfrwt beam="1">  1       -1 0.13953070E-01 0.12500131E+03</pdfrwt>
<totfact> 0.36742763E+04</totfact>
</mgrwt>
</event>
<event>
 5    1  0.8303392E-059  0.1250002E+03  0.7818608E-02  0.1235069E+00
         -1   -1    0    0    0  501 -0.00000000000E+00  0.00000000000E+00  0.30600267662E+03  0.30600267665E+03  0.46700000000E-02 0.  1.
          1   -1    0    0  501    0  0.00000000000E+00 -0.00000000000E+00 -0.12765457474E+02  0.12765458328E+02  0.46700000000E-02 0. -1.
         25    2    1    2    0    0  0.00000000000E+00  0.00000000000E+00  0.29323721914E+03  0.31876813498E+03  0.12500022875E+03 0.  0.
        -11    1    3    3    0    0 -0.57321625825E+02 -0.20071664566E+02  0.18423847864E+03  0.19399086968E+03  0.51100000000E-03 0.  1.
         11    1    3    3    0    0  0.57321625825E+02  0.20071664566E+02  0.10899874050E+03  0.12477726530E+03  0.51100000000E-03 0. -1.
<mgrwt>
<rscale>  0 0.12500023E+03</rscale>
<asrwt>0</asrwt>
<pdfrwt beam="2">  1        1 0.19639165E-02 0.12500023E+03</pdfrwt>
<pdfrwt beam="1">  1       -1 0.47077338E-01 0.12500023E+03</pdfrwt>
<totfact> 0.26116289E+04</totfact>
</mgrwt>
</event>
<event>
 5    1  0.8303392E-059  0.1250032E+03  0.7818608E-02  0.1235064E+00
          1   -1    0    0  501    0  0.00000000000E+00  0.00000000000E+00  0.31350145806E+02  0.31350146154E+02  0.46700000000E-02 0.  1.
         -1   -1    0    0    0  501 -0.00000000000E+00 -0.00000000000E+00 -0.12460711454E+03  0.12460711463E+03  0.46700000000E-02 0. -1.
         25    2    1    2    0    0  0.00000000000E+00  0.00000000000E+00 -0.93256968733E+02  0.15595726078E+03  0.12500321985E+03 0.  0.
        -11    1    3    3    0    0 -0.21084384217E+02 -0.57317455811E+02 -0.63208735915E+02  0.87893038943E+02  0.51100000000E-03 0. -1.
         11    1    3    3    0    0  0.21084384217E+02  0.57317455811E+02 -0.30048232818E+02  0.68064221836E+02  0.51100000000E-03 0.  1.
<mgrwt>
<rscale>  0 0.12500322E+03</rscale>
<asrwt>0</asrwt>
<pdfrwt beam="1">  1        1 0.48230995E-02 0.12500322E+03</pdfrwt>
<pdfrwt beam="2">  1       -1 0.19170325E-01 0.12500322E+03</pdfrwt>
<totfact> 0.34292283E+04</totfact>
</mgrwt>
</event>
<event>
 5    1  0.8303392E-059  0.1250001E+03  0.7818608E-02  0.1235069E+00
          1   -1    0    0  501    0  0.00000000000E+00  0.00000000000E+00  0.26651438155E+03  0.26651438159E+03  0.46700000000E-02 0. -1.
         -1   -1    0    0    0  501 -0.00000000000E+00 -0.00000000000E+00 -0.14656839863E+02  0.14656840607E+02  0.46700000000E-02 0.  1.
         25    2    1    2    0    0  0.00000000000E+00  0.00000000000E+00  0.25185754169E+03  0.28117122220E+03  0.12500013955E+03 0.  0.
        -11    1    3    3    0    0 -0.46109604201E+02 -0.34135623036E+02  0.70149797794E+02  0.90621909550E+02  0.51100000000E-03 0.  1.
         11    1    3    3    0    0  0.46109604201E+02  0.34135623036E+02  0.18170774389E+03  0.19054931265E+03  0.51100000000E-03 0. -1.
<mgrwt>
<rscale>  0 0.12500014E+03</rscale>
<asrwt>0</asrwt>
<pdfrwt beam="1">  1        1 0.41002211E-01 0.12500014E+03</pdfrwt>
<pdfrwt beam="2">  1       -1 0.22548986E-02 0.12500014E+03</pdfrwt>
<totfact> 0.53157333E+04</totfact>
</mgrwt>
</event>
<event>
 5    1  0.8303392E-059  0.1250015E+03  0.7818608E-02  0.1235067E+00
          1   -1    0    0  501    0  0.00000000000E+00  0.00000000000E+00  0.21128956055E+03  0.21128956061E+03  0.46700000000E-02 0. -1.
         -1   -1    0    0    0  501 -0.00000000000E+00 -0.00000000000E+00 -0.18488098081E+02  0.18488098671E+02  0.46700000000E-02 0.  1.
         25    2    1    2    0    0  0.00000000000E+00  0.00000000000E+00  0.19280146247E+03  0.22977765928E+03  0.12500147508E+03 0.  0.
        -11    1    3    3    0    0  0.58465448685E+02  0.18814097523E+02  0.75109075917E+02  0.97023462322E+02  0.51100000000E-03 0. -1.
         11    1    3    3    0    0 -0.58465448685E+02 -0.18814097523E+02  0.11769238656E+03  0.13275419696E+03  0.51100000000E-03 0.  1.
<mgrwt>
<rscale>  0 0.12500148E+03</rscale>
<asrwt>0</asrwt>
<pdfrwt beam="1">  1        1 0.32506085E-01 0.12500148E+03</pdfrwt>
<pdfrwt beam="2">  1       -1 0.28443229E-02 0.12500148E+03</pdfrwt>
<totfact> 0.50596956E+04</totfact>
</mgrwt>
</event>
<event>
 5    1  0.8303392E-059  0.1250001E+03  0.7818608E-02  0.1235069E+00
          1   -1    0    0  501    0  0.00000000000E+00  0.00000000000E+00  0.36133677181E+02  0.36133677483E+02  0.46700000000E-02 0. -1.
         -1   -1    0    0    0  501 -0.00000000000E+00 -0.00000000000E+00 -0.10810576378E+03  0.10810576388E+03  0.46700000000E-02 0.  1.
         25    2    1    2    0    0  0.00000000000E+00  0.00000000000E+00 -0.71972086594E+02  0.14423944136E+03  0.12500014078E+03 0.  0.
        -11    1    3    3    0    0  0.35037935530E+02 -0.49530043171E+02 -0.18662846737E+02  0.63475853294E+02  0.51100000000E-03 0.  1.
         11    1    3    3    0    0 -0.35037935530E+02  0.49530043171E+02 -0.53309239857E+02  0.80763588065E+02  0.51100000000E-03 0. -1.
<mgrwt>
<rscale>  0 0.12500014E+03</rscale>
<asrwt>0</asrwt>
<pdfrwt beam="1">  1        1 0.55590273E-02 0.12500014E+03</pdfrwt>
<pdfrwt beam="2">  1       -1 0.16631656E-01 0.12500014E+03</pdfrwt>
<totfact> 0.35402717E+04</totfact>
</mgrwt>
</event>
<event>
 5    1  0.8303392E-059  0.1250012E+03  0.7818608E-02  0.1235067E+00
          1   -1    0    0  501    0  0.00000000000E+00  0.00000000000E+00  0.70020397103E+02  0.70020397259E+02  0.46700000000E-02 0. -1.
         -1   -1    0    0    0  501 -0.00000000000E+00 -0.00000000000E+00 -0.55788405785E+02  0.55788405981E+02  0.46700000000E-02 0.  1.
         25    2    1    2    0    0  0.00000000000E+00  0.00000000000E+00  0.14231991318E+02  0.12580880324E+03  0.12500122158E+03 0.  0.
        -11    1    3    3    0    0  0.33924889813E+02  0.21443411630E+02 -0.41106054102E+02  0.57449331896E+02  0.51100000000E-03 0.  1.
         11    1    3    3    0    0 -0.33924889813E+02 -0.21443411630E+02  0.55338045420E+02  0.68359471343E+02  0.51100000000E-03 0. -1.
<mgrwt>
<rscale>  0 0.12500122E+03</rscale>
<asrwt>0</asrwt>
<pdfrwt beam="1">  1        1 0.10772369E-01 0.12500122E+03</pdfrwt>
<pdfrwt beam="2">  1       -1 0.85828317E-02 0.12500122E+03</pdfrwt>
<totfact> 0.40447778E+04</totfact>
</mgrwt>
</event>
<event>
 5    1  0.8303392E-059  0.1250159E+03  0.7818608E-02  0.1235044E+00
         -1   -1    0    0    0  501 -0.00000000000E+00  0.00000000000E+00  0.19983324594E+02  0.19983325139E+02  0.46700000000E-02 0.  1.
          1   -1    0    0  501    0  0.00000000000E+00 -0.00000000000E+00 -0.19552510540E+03  0.19552510546E+03  0.46700000000E-02 0. -1.
         25    2    1    2    0    0  0.00000000000E+00  0.00000000000E+00 -0.17554178081E+03  0.21550843059E+03  0.12501586639E+03 0.  0.
        -11    1    3    3    0    0 -0.46111009281E+02 -0.35251641216E+01 -0.15275117989E+02  0.48702989527E+02  0.51100000000E-03 0.  1.
         11    1    3    3    0    0  0.46111009281E+02  0.35251641216E+01 -0.16026666282E+03  0.16680544107E+03  0.51100000000E-03 0. -1.
<mgrwt>
<rscale>  0 0.12501587E+03</rscale>
<asrwt>0</asrwt>
<pdfrwt beam="2">  1        1 0.30080784E-01 0.12501587E+03</pdfrwt>
<pdfrwt beam="1">  1       -1 0.30743578E-02 0.12501587E+03</pdfrwt>
<totfact> 0.49749743E+04</totfact>
</mgrwt>
</event>
<event>
 5    1  0.8303392E-059  0.1249985E+03  0.7818608E-02  0.1235072E+00
         -1   -1    0    0    0  501 -0.00000000000E+00  0.00000000000E+00  0.15517452120E+02  0.15517452822E+02  0.46700000000E-02 0. -1.
          1   -1    0    0  501    0  0.00000000000E+00 -0.00000000000E+00 -0.25172656890E+03  0.25172656895E+03  0.46700000000E-02 0.  1.
         25    2    1    2    0    0  0.00000000000E+00  0.00000000000E+00 -0.23620911678E+03  0.26724402177E+03  0.12499848127E+03 0.  0.
        -11    1    3    3    0    0  0.33473526662E+02 -0.52501884804E+02 -0.10654559094E+03  0.12340538013E+03  0.51100000000E-03 0. -1.
         11    1    3    3    0    0 -0.33473526662E+02  0.52501884804E+02 -0.12966352584E+03  0.14383864164E+03  0.51100000000E-03 0.  1.
<mgrwt>
<rscale>  0 0.12499848E+03</rscale>
<asrwt>0</asrwt>
<pdfrwt beam="2">  1        1 0.38727161E-01 0.12499848E+03</pdfrwt>
<pdfrwt beam="1">  1       -1 0.23873006E-02 0.12499848E+03</pdfrwt>
<totfact> 0.52521137E+04</totfact>
</mgrwt>
</event>
<event>
 5    1  0.8303392E-059  0.1249991E+03  0.7818608E-02  0.1235071E+00
         -1   -1    0    0    0  501 -0.00000000000E+00  0.00000000000E+00  0.14674102803E+02  0.14674103546E+02  0.46700000000E-02 0.  1.
          1   -1    0    0  501    0  0.00000000000E+00 -0.00000000000E+00 -0.26619661778E+03  0.26619661783E+03  0.46700000000E-02 0. -1.
         25    2    1    2    0    0  0.00000000000E+00  0.00000000000E+00 -0.25152251498E+03  0.28087072137E+03  0.12499914632E+03 0.  0.
        -11    1    3    3    0    0 -0.24191157937E+02  0.56422677469E+02 -0.99416327141E+02  0.11684321443E+03  0.51100000000E-03 0.  1.
         11    1    3    3    0    0  0.24191157937E+02 -0.56422677469E+02 -0.15210618784E+03  0.16402750695E+03  0.51100000000E-03 0. -1.
<mgrwt>
<rscale>  0 0.12499915E+03</rscale>
<asrwt>0</asrwt>
<pdfrwt beam="2">  1        1 0.40953322E-01 0.12499915E+03</pdfrwt>
<pdfrwt beam="1">  1       -1 0.22575545E-02 0.12499915E+03</pdfrwt>
<totfact> 0.53145108E+04</totfact>
</mgrwt>
</event>
<event>
 5    1  0.8303392E-059  0.1250000E+03  0.7818608E-02  0.1235069E+00
          1   -1    0    0  501    0  0.00000000000E+00  0.00000000000E+00  0.48795940235E+02  0.48795940459E+02  0.46700000000E-02 0. -1.
         -1   -1    0    0    0  501 -0.00000000000E+00 -0.00000000000E+00 -0.80052745386E+02  0.80052745522E+02  0.46700000000E-02 0.  1.
         25    2    1    2    0    0  0.00000000000E+00  0.00000000000E+00 -0.31256805151E+02  0.12884868598E+03  0.12499998404E+03 0.  0.
        -11    1    3    3    0    0 -0.48078278011E+02 -0.39583390637E+02 -0.21071457036E+02  0.65744748328E+02  0.51100000000E-03 0.  1.
         11    1    3    3    0    0  0.48078278011E+02  0.39583390637E+02 -0.10185348115E+02  0.63103937653E+02  0.51100000000E-03 0. -1.
<mgrwt>
<rscale>  0 0.12499998E+03</rscale>
<asrwt>0</asrwt>
<pdfrwt beam="1">  1        1 0.75070677E-02 0.12499998E+03</pdfrwt>
<pdfrwt beam="2">  1       -1 0.12315807E-01 0.12499998E+03</pdfrwt>
<totfact> 0.37687398E+04</totfact>
</mgrwt>
</event>
<event>
 5    1  0.8303392E-059  0.1250021E+03  0.7818608E-02  0.1235066E+00
         -1   -1    0    0    0  501 -0.00000000000E+00  0.00000000000E+00  0.15690368795E+02  0.15690369490E+02  0.46700000000E-02 0.  1.
          1   -1    0    0  501    0  0.00000000000E+00 -0.00000000000E+00 -0.24896675175E+03  0.24896675180E+03  0.46700000000E-02 0. -1.
         25    2    1    2    0    0  0.00000000000E+00  0.00000000000E+00 -0.23327638296E+03  0.26465712129E+03  0.12500208399E+03 0.  0.
        -11    1    3    3    0    0 -0.47249681501E+02  0.12665786951E+02 -0.34272398953E+02  0.59728987027E+02  0.51100000000E-03 0.  1.
         11    1    3    3    0    0  0.47249681501E+02 -0.12665786951E+02 -0.19900398400E+03  0.20492813426E+03  0.51100000000E-03 0. -1.
<mgrwt>
<rscale>  0 0.12500208E+03</rscale>
<asrwt>0</asrwt>
<pdfrwt beam="2">  1        1 0.38302574E-01 0.12500208E+03</pdfrwt>
<pdfrwt beam="1">  1       -1 0.24139031E-02 0.12500208E+03</pdfrwt>
<totfact> 0.52394688E+04</totfact>
</mgrwt>
</event>
<event>
 5    1  0.8303392E-059  0.1249992E+03  0.7818608E-02  0.1235071E+00
         -1   -1    0    0    0  501 -0.00000000000E+00  0.00000000000E+00  0.41144982412E+02  0.41144982677E+02  0.46700000000E-02 0.  1.
          1   -1    0    0  501    0  0.00000000000E+00 -0.00000000000E+00 -0.94937384867E+02  0.94937384981E+02  0.46700000000E-02 0. -1.
         25    2    1    2    0    0  0.00000000000E+00  0.00000000000E+00 -0.53792402454E+02  0.13608236766E+03  0.12499915290E+03 0.  0.
        -11    1    3    3    0    0  0.48812351317E+01  0.49652119860E+02 -0.67877476889E+02  0.84240793752E+02  0.51100000000E-03 0. -1.
         11    1    3    3    0    0 -0.48812351317E+01 -0.49652119860E+02  0.14085074435E+02  0.51841573906E+02  0.51100000000E-03 0.  1.
<mgrwt>
<rscale>  0 0.12499915E+03</rscale>
<asrwt>0</asrwt>
<pdfrwt beam="2">  1        1 0.14605751E-01 0.12499915E+03</pdfrwt>
<pdfrwt beam="1">  1       -1 0.63299974E-02 0.12499915E+03</pdfrwt>
<totfact> 0.42914718E+04</totfact>
</mgrwt>
</event>
<event>
 5    1  0.8303392E-059  0.1249903E+03  0.7818608E-02  0.1235084E+00
          1   -1    0    0  501    0  0.00000000000E+00  0.00000000000E+00  0.25124064412E+03  0.25124064416E+03  0.46700000000E-02 0. -1.
         -1   -1    0    0    0  501 -0.00000000000E+00 -0.00000000000E+00 -0.15545432057E+02  0.15545432758E+02  0.46700000000E-02 0.  1.
         25    2    1    2    0    0  0.00000000000E+00  0.00000000000E+00  0.23569521206E+03  0.26678607692E+03  0.12499031102E+03 0.  0.
        -11    1    3    3    0    0  0.29069779983E+02 -0.44639885533E+02  0.48097220947E+02  0.71771262715E+02  0.51100000000E-03 0.  1.
         11    1    3    3    0    0 -0.29069779983E+02  0.44639885533E+02  0.18759799112E+03  0.19501481421E+03  0.51100000000E-03 0. -1.
<mgrwt>
<rscale>  0 0.12499031E+03</rscale>
<asrwt>0</asrwt>
<pdfrwt beam="1">  1        1 0.38652402E-01 0.12499031E+03</pdfrwt>
<pdfrwt beam="2">  1       -1 0.23916053E-02 0.12499031E+03</pdfrwt>
<totfact> 0.52509191E+04</totfact>
</mgrwt>
</event>
<event>
 5    1  0.8303392E-059  0.1249997E+03  0.7818608E-02  0.1235070E+00
         -1   -1    0    0    0  501 -0.00000000000E+00  0.00000000000E+00  0.33106009132E+02  0.33106009462E+02  0.46700000000E-02 0.  1.
          1   -1    0    0  501    0  0.00000000000E+00 -0.00000000000E+00 -0.11799159249E+03  0.11799159258E+03  0.46700000000E-02 0. -1.
         25    2    1    2    0    0  0.00000000000E+00  0.00000000000E+00 -0.84885583359E+02  0.15109760205E+03  0.12499969233E+03 0.  0.
        -11    1    3    3    0    0  0.50141415900E+02 -0.22219039935E+02 -0.62118603043E+01  0.55194515423E+02  0.51100000000E-03 0.  1.
         11    1    3    3    0    0 -0.50141415900E+02  0.22219039935E+02 -0.78673723055E+02  0.95903086622E+02  0.51100000000E-03 0. -1.
<mgrwt>
<rscale>  0 0.12499969E+03</rscale>
<asrwt>0</asrwt>
<pdfrwt beam="2">  1        1 0.18152553E-01 0.12499969E+03</pdfrwt>
<pdfrwt beam="1">  1       -1 0.50932323E-02 0.12499969E+03</pdfrwt>
<totfact> 0.44806811E+04</totfact>
</mgrwt>
</event>
<event>
 5    1  0.8303392E-059  0.1249975E+03  0.7818608E-02  0.1235073E+00
          1   -1    0    0  501    0  0.00000000000E+00  0.00000000000E+00  0.24022395394E+03  0.24022395399E+03  0.46700000000E-02 0. -1.
         -1   -1    0    0    0  501 -0.00000000000E+00 -0.00000000000E+00 -0.16260217927E+02  0.16260218598E+02  0.46700000000E-02 0.  1.
         25    2    1    2    0    0  0.00000000000E+00  0.00000000000E+00  0.22396373601E+03  0.25648417258E+03  0.12499750292E+03 0.  0.
        -11    1    3    3    0    0  0.19600059255E+02 -0.56703944340E+02  0.14791054924E+03  0.15961525680E+03  0.51100000000E-03 0. -1.
         11    1    3    3    0    0 -0.19600059255E+02  0.56703944340E+02  0.76053186775E+02  0.96868915785E+02  0.51100000000E-03 0.  1.
<mgrwt>
<rscale>  0 0.12499750E+03</rscale>
<asrwt>0</asrwt>
<pdfrwt beam="1">  1        1 0.36957530E-01 0.12499750E+03</pdfrwt>
<pdfrwt beam="2">  1       -1 0.25015721E-02 0.12499750E+03</pdfrwt>
<totfact> 0.52004484E+04</totfact>
</mgrwt>
</event>
<event>
 5    1  0.8303392E-059  0.1250015E+03  0.7818608E-02  0.1235067E+00
         -1   -1    0    0    0  501 -0.00000000000E+00  0.00000000000E+00  0.12274800734E+02  0.12274801622E+02  0.46700000000E-02 0.  1.
          1   -1    0    0  501    0  0.00000000000E+00 -0.00000000000E+00 -0.31824064433E+03  0.31824064436E+03  0.46700000000E-02 0. -1.
         25    2    1    2    0    0  0.00000000000E+00  0.00000000000E+00 -0.30596584359E+03  0.33051544598E+03  0.12500145034E+03 0.  0.
        -11    1    3    3    0    0  0.29503699245E+02  0.44426627648E+02 -0.66810351125E+02  0.85485768002E+02  0.51100000000E-03 0.  1.
         11    1    3    3    0    0 -0.29503699245E+02 -0.44426627648E+02 -0.23915549247E+03  0.24502967798E+03  0.51100000000E-03 0. -1.
<mgrwt>
<rscale>  0 0.12500145E+03</rscale>
<asrwt>0</asrwt>
<pdfrwt beam="2">  1        1 0.48960093E-01 0.12500145E+03</pdfrwt>
<pdfrwt beam="1">  1       -1 0.18884312E-02 0.12500145E+03</pdfrwt>
<totfact> 0.55138874E+04</totfact>
</mgrwt>
</event>
<event>
 5    1  0.8303392E-059  0.1250005E+03  0.7818608E-02  0.1235069E+00
          1   -1    0    0  501    0  0.00000000000E+00  0.00000000000E+00  0.46137592168E+02  0.46137592404E+02  0.46700000000E-02 0. -1.
         -1   -1    0    0    0  501 -0.00000000000E+00 -0.00000000000E+00 -0.84665863308E+02  0.84665863436E+02  0.46700000000E-02 0.  1.
         25    2    1    2    0    0  0.00000000000E+00  0.00000000000E+00 -0.38528271140E+02  0.13080345584E+03  0.12500046553E+03 0.  0.
        -11    1    3    3    0    0  0.46742450925E+02 -0.39499796830E+02 -0.32549531963E+02  0.69314952927E+02  0.51100000000E-03 0. -1.
         11    1    3    3    0    0 -0.46742450925E+02  0.39499796830E+02 -0.59787391771E+01  0.61488502913E+02  0.51100000000E-03 0.  1.
<mgrwt>
<rscale>  0 0.12500047E+03</rscale>
<asrwt>0</asrwt>
<pdfrwt beam="1">  1        1 0.70980912E-02 0.12500047E+03</pdfrwt>
<pdfrwt beam="2">  1       -1 0.13025517E-01 0.12500047E+03</pdfrwt>
<totfact> 0.37264030E+04</totfact>
</mgrwt>
</event>
<event>
 5    1  0.8303392E-059  0.1250017E+03  0.7818608E-02  0.1235067E+00
         -1   -1    0    0    0  501 -0.00000000000E+00  0.00000000000E+00  0.10609500230E+02  0.10609501258E+02  0.46700000000E-02 0.  1.
          1   -1    0    0  501    0  0.00000000000E+00 -0.00000000000E+00 -0.36819421268E+03  0.36819421271E+03  0.46700000000E-02 0. -1.
         25    2    1    2    0    0  0.00000000000E+00  0.00000000000E+00 -0.35758471245E+03  0.37880371396E+03  0.12500170854E+03 0.  0.
        -11    1    3    3    0    0 -0.45375456594E+02  0.41094173137E+02 -0.14061744255E+03  0.15336534249E+03  0.51100000000E-03 0.  1.
         11    1    3    3    0    0  0.45375456594E+02 -0.41094173137E+02 -0.21696726990E+03  0.22543837148E+03  0.51100000000E-03 0. -1.
<mgrwt>
<rscale>  0 0.12500171E+03</rscale>
<asrwt>0</asrwt>
<pdfrwt beam="2">  1        1 0.56645254E-01 0.12500171E+03</pdfrwt>
<pdfrwt beam="1">  1       -1 0.16322312E-02 0.12500171E+03</pdfrwt>
<totfact> 0.56714390E+04</totfact>
</mgrwt>
</event>
<event>
 5    1  0.8303392E-059  0.1250024E+03  0.7818608E-02  0.1235066E+00
          1   -1    0    0  501    0  0.00000000000E+00  0.00000000000E+00  0.15212531305E+03  0.15212531312E+03  0.46700000000E-02 0. -1.
         -1   -1    0    0    0  501 -0.00000000000E+00 -0.00000000000E+00 -0.25678829089E+02  0.25678829513E+02  0.46700000000E-02 0.  1.
         25    2    1    2    0    0  0.00000000000E+00  0.00000000000E+00  0.12644648396E+03  0.17780414264E+03  0.12500239931E+03 0.  0.
        -11    1    3    3    0    0 -0.61306105841E+02  0.12148235771E+02  0.64102044747E+02  0.89527037183E+02  0.51100000000E-03 0.  1.
         11    1    3    3    0    0  0.61306105841E+02 -0.12148235771E+02  0.62344439215E+02  0.88277105453E+02  0.51100000000E-03 0. -1.
<mgrwt>
<rscale>  0 0.12500240E+03</rscale>
<asrwt>0</asrwt>
<pdfrwt beam="1">  1        1 0.23403895E-01 0.12500240E+03</pdfrwt>
<pdfrwt beam="2">  1       -1 0.39505890E-02 0.12500240E+03</pdfrwt>
<totfact> 0.47198196E+04</totfact>
</mgrwt>
</event>
<event>
 5    1  0.8303392E-059  0.1250013E+03  0.7818608E-02  0.1235067E+00
         -1   -1    0    0    0  501 -0.00000000000E+00  0.00000000000E+00  0.63817363199E+02  0.63817363370E+02  0.46700000000E-02 0.  1.
          1   -1    0    0  501    0  0.00000000000E+00 -0.00000000000E+00 -0.61211088856E+02  0.61211089034E+02  0.46700000000E-02 0. -1.
         25    2    1    2    0    0  0.00000000000E+00  0.00000000000E+00  0.26062743431E+01  0.12502845240E+03  0.12500128497E+03 0.  0.
        -11    1    3    3    0    0 -0.47576329560E+02  0.34162402647E+02  0.23119650234E+02  0.62969001233E+02  0.51100000000E-03 0.  1.
         11    1    3    3    0    0  0.47576329560E+02 -0.34162402647E+02 -0.20513375891E+02  0.62059451172E+02  0.51100000000E-03 0. -1.
<mgrwt>
<rscale>  0 0.12500128E+03</rscale>
<asrwt>0</asrwt>
<pdfrwt beam="2">  1        1 0.94170906E-02 0.12500128E+03</pdfrwt>
<pdfrwt beam="1">  1       -1 0.98180559E-02 0.12500128E+03</pdfrwt>
<totfact> 0.39407050E+04</totfact>
</mgrwt>
</event>
<event>
 5    1  0.8303392E-059  0.1249991E+03  0.7818608E-02  0.1235071E+00
          1   -1    0    0  501    0  0.00000000000E+00  0.00000000000E+00  0.26022533387E+03  0.26022533392E+03  0.46700000000E-02 0. -1.
         -1   -1    0    0    0  501 -0.00000000000E+00 -0.00000000000E+00 -0.15010814312E+02  0.15010815039E+02  0.46700000000E-02 0.  1.
         25    2    1    2    0    0  0.00000000000E+00  0.00000000000E+00  0.24521451956E+03  0.27523614896E+03  0.12499910835E+03 0.  0.
        -11    1    3    3    0    0  0.40775453855E+02  0.25805417150E+02  0.35148742523E+02  0.59699173299E+02  0.51100000000E-03 0.  1.
         11    1    3    3    0    0 -0.40775453855E+02 -0.25805417150E+02  0.21006577704E+03  0.21553697566E+03  0.51100000000E-03 0. -1.
<mgrwt>
<rscale>  0 0.12499911E+03</rscale>
<asrwt>0</asrwt>
<pdfrwt beam="1">  1        1 0.40034667E-01 0.12499911E+03</pdfrwt>
<pdfrwt beam="2">  1       -1 0.23093561E-02 0.12499911E+03</pdfrwt>
<totfact> 0.52890646E+04</totfact>
</mgrwt>
</event>
<event>
 5    1  0.8303392E-059  0.1250055E+03  0.7818608E-02  0.1235061E+00
          1   -1    0    0  501    0  0.00000000000E+00  0.00000000000E+00  0.15845913209E+03  0.15845913216E+03  0.46700000000E-02 0. -1.
         -1   -1    0    0    0  501 -0.00000000000E+00 -0.00000000000E+00 -0.24653638020E+02  0.24653638462E+02  0.46700000000E-02 0.  1.
         25    2    1    2    0    0  0.00000000000E+00  0.00000000000E+00  0.13380549407E+03  0.18311277062E+03  0.12500550596E+03 0.  0.
        -11    1    3    3    0    0  0.56787774238E+02 -0.25031921017E+02  0.77780659125E+02  0.99505172262E+02  0.51100000000E-03 0.  1.
         11    1    3    3    0    0 -0.56787774238E+02  0.25031921017E+02  0.56024834946E+02  0.83607598361E+02  0.51100000000E-03 0. -1.
<mgrwt>
<rscale>  0 0.12500551E+03</rscale>
<asrwt>0</asrwt>
<pdfrwt beam="1">  1        1 0.24378328E-01 0.12500551E+03</pdfrwt>
<pdfrwt beam="2">  1       -1 0.37928674E-02 0.12500551E+03</pdfrwt>
<totfact> 0.47597928E+04</totfact>
</mgrwt>
</event>
<event>
 5    1  0.8303392E-059  0.1249887E+03  0.7818608E-02  0.1235087E+00
         -1   -1    0    0    0  501 -0.00000000000E+00  0.00000000000E+00  0.66453161891E+02  0.66453162055E+02  0.46700000000E-02 0.  1.
          1   -1    0    0  501    0  0.00000000000E+00 -0.00000000000E+00 -0.58771384504E+02  0.58771384689E+02  0.46700000000E-02 0. -1.
         25    2    1    2    0    0  0.00000000000E+00  0.00000000000E+00  0.76817773870E+01  0.12522454674E+03  0.12498870910E+03 0.  0.
        -11    1    3    3    0    0  0.48404147380E+02  0.39363660084E+02  0.74650518093E+01  0.62834594115E+02  0.51100000000E-03 0.  1.
         11    1    3    3    0    0 -0.48404147380E+02 -0.39363660084E+02  0.21672557774E+00  0.62389952629E+02  0.51100000000E-03 0. -1.
<mgrwt>
<rscale>  0 0.12498871E+03</rscale>
<asrwt>0</asrwt>
<pdfrwt beam="2">  1        1 0.90417515E-02 0.12498871E+03</pdfrwt>
<pdfrwt beam="1">  1       -1 0.10223563E-01 0.12498871E+03</pdfrwt>
<totfact> 0.39107444E+04</totfact>
</mgrwt>
</event>
<event>
 5    1  0.8303392E-059  0.1250002E+03  0.7818608E-02  0.1235069E+00
          1   -1    0    0  501    0  0.00000000000E+00  0.00000000000E+00  0.39283127577E+02  0.39283127854E+02  0.46700000000E-02 0. -1.
         -1   -1    0    0    0  501 -0.00000000000E+00 -0.00000000000E+00 -0.99438668852E+02  0.99438668961E+02  0.46700000000E-02 0.  1.
         25    2    1    2    0    0  0.00000000000E+00  0.00000000000E+00 -0.60155541275E+02  0.13872179682E+03  0.12500019106E+03 0.  0.
        -11    1    3    3    0    0  0.43157214851E+02 -0.28342940572E+02 -0.69163114651E+02  0.86309929339E+02  0.51100000000E-03 0.  1.
         11    1    3    3    0    0 -0.43157214851E+02  0.28342940572E+02  0.90075733766E+01  0.52411867477E+02  0.51100000000E-03 0. -1.
<mgrwt>
<rscale>  0 0.12500019E+03</rscale>
<asrwt>0</asrwt>
<pdfrwt beam="1">  1        1 0.60435581E-02 0.12500019E+03</pdfrwt>
<pdfrwt beam="2">  1       -1 0.15298257E-01 0.12500019E+03</pdfrwt>
<totfact> 0.36043749E+04</totfact>
</mgrwt>
</event>
<event>
 5    1  0.8303392E-059  0.1250004E+03  0.7818608E-02  0.1235069E+00
         -1   -1    0    0    0  501 -0.00000000000E+00  0.00000000000E+00  0.19281196126E+03  0.19281196132E+03  0.46700000000E-02 0.  1.
          1   -1    0    0  501    0  0.00000000000E+00 -0.00000000000E+00 -0.20259503118E+02  0.20259503656E+02  0.46700000000E-02 0. -1.
         25    2    1    2    0    0  0.00000000000E+00  0.00000000000E+00  0.17255245815E+03  0.21307146498E+03  0.12500039350E+03 0.  0.
        -11    1    3    3    0    0 -0.50830462116E+02 -0.24055015222E+01  0.14812996712E+03  0.15662697557E+03  0.51100000000E-03 0.  1.
         11    1    3    3    0    0  0.50830462116E+02  0.24055015222E+01  0.24422491029E+02  0.56444489410E+02  0.51100000000E-03 0. -1.
<mgrwt>
<rscale>  0 0.12500039E+03</rscale>
<asrwt>0</asrwt>
<pdfrwt beam="2">  1        1 0.31168467E-02 0.12500039E+03</pdfrwt>
<pdfrwt beam="1">  1       -1 0.29663378E-01 0.12500039E+03</pdfrwt>
<totfact> 0.30635300E+04</totfact>
</mgrwt>
</event>
<event>
 5    1  0.8303392E-059  0.1250002E+03  0.7818608E-02  0.1235069E+00
          1   -1    0    0  501    0  0.00000000000E+00  0.00000000000E+00  0.13419804496E+02  0.13419805308E+02  0.46700000000E-02 0. -1.
         -1   -1    0    0    0  501 -0.00000000000E+00 -0.00000000000E+00 -0.29108197837E+03  0.29108197841E+03  0.46700000000E-02 0.  1.
         25    2    1    2    0    0  0.00000000000E+00  0.00000000000E+00 -0.27766217387E+03  0.30450178371E+03  0.12500021394E+03 0.  0.
        -11    1    3    3    0    0  0.59570953323E+02  0.16367916758E+02 -0.11576524934E+03  0.13121813950E+03  0.51100000000E-03 0.  1.
         11    1    3    3    0    0 -0.59570953323E+02 -0.16367916758E+02 -0.16189692453E+03  0.17328364421E+03  0.51100000000E-03 0. -1.
<mgrwt>
<rscale>  0 0.12500021E+03</rscale>
<asrwt>0</asrwt>
<pdfrwt beam="1">  1        1 0.20645856E-02 0.12500021E+03</pdfrwt>
<pdfrwt beam="2">  1       -1 0.44781838E-01 0.12500021E+03</pdfrwt>
<totfact> 0.26645394E+04</totfact>
</mgrwt>
</event>
<event>
 5    1  0.8303392E-059  0.1250032E+03  0.7818608E-02  0.1235064E+00
          1   -1    0    0  501    0  0.00000000000E+00  0.00000000000E+00  0.41036344572E+03  0.41036344574E+03  0.46700000000E-02 0. -1.
         -1   -1    0    0    0  501 -0.00000000000E+00 -0.00000000000E+00 -0.95194829816E+01  0.95194841271E+01  0.46700000000E-02 0.  1.
         25    2    1    2    0    0  0.00000000000E+00  0.00000000000E+00  0.40084396274E+03  0.41988292987E+03  0.12500316930E+03 0.  0.
        -11    1    3    3    0    0  0.59867583073E+02  0.26049903247E+01  0.26008849926E+03  0.26690249329E+03  0.51100000000E-03 0.  1.
         11    1    3    3    0    0 -0.59867583073E+02 -0.26049903247E+01  0.14075546347E+03  0.15298043658E+03  0.51100000000E-03 0. -1.
<mgrwt>
<rscale>  0 0.12500317E+03</rscale>
<asrwt>0</asrwt>
<pdfrwt beam="1">  1        1 0.63132859E-01 0.12500317E+03</pdfrwt>
<pdfrwt beam="2">  1       -1 0.14645354E-02 0.12500317E+03</pdfrwt>
<totfact> 0.57822599E+04</totfact>
</mgrwt>
</event>
<event>
 5    1  0.8303392E-059  0.1250051E+03  0.7818608E-02  0.1235061E+00
         -1   -1    0    0    0  501 -0.00000000000E+00  0.00000000000E+00  0.14423429790E+02  0.14423430546E+02  0.46700000000E-02 0.  1.
          1   -1    0    0  501    0  0.00000000000E+00 -0.00000000000E+00 -0.27084880677E+03  0.27084880681E+03  0.46700000000E-02 0. -1.
         25    2    1    2    0    0  0.00000000000E+00  0.00000000000E+00 -0.25642537698E+03  0.28527223735E+03  0.12500510168E+03 0.  0.
        -11    1    3    3    0    0  0.97511634434E+01 -0.61572489529E+02 -0.13849783112E+03  0.15188122293E+03  0.51100000000E-03 0.  1.
         11    1    3    3    0    0 -0.97511634434E+01  0.61572489529E+02 -0.11792754586E+03  0.13339101442E+03  0.51100000000E-03 0. -1.
<mgrwt>
<rscale>  0 0.12500510E+03</rscale>
<asrwt>0</asrwt>
<pdfrwt beam="2">  1        1 0.41669044E-01 0.12500510E+03</pdfrwt>
<pdfrwt beam="1">  1       -1 0.22189895E-02 0.12500510E+03</pdfrwt>
<totfact> 0.53332607E+04</totfact>
</mgrwt>
</event>
<event>
 5    1  0.8303392E-059  0.1249991E+03  0.7818608E-02  0.1235071E+00
          1   -1    0    0  501    0  0.00000000000E+00  0.00000000000E+00  0.27660943361E+03  0.27660943365E+03  0.46700000000E-02 0. -1.
         -1   -1    0    0    0  501 -0.00000000000E+00 -0.00000000000E+00 -0.14121690114E+02  0.14121690886E+02  0.46700000000E-02 0.  1.
         25    2    1    2    0    0  0.00000000000E+00  0.00000000000E+00  0.26248774350E+03  0.29073112454E+03  0.12499908515E+03 0.  0.
        -11    1    3    3    0    0 -0.69493893944E+01 -0.43113767358E+02  0.23523640475E+03  0.23925563122E+03  0.51100000000E-03 0. -1.
         11    1    3    3    0    0  0.69493893944E+01  0.43113767358E+02  0.27251338748E+02  0.51475493320E+02  0.51100000000E-03 0.  1.
<mgrwt>
<rscale>  0 0.12499909E+03</rscale>
<asrwt>0</asrwt>
<pdfrwt beam="1">  1        1 0.42555297E-01 0.12499909E+03</pdfrwt>
<pdfrwt beam="2">  1       -1 0.21725678E-02 0.12499909E+03</pdfrwt>
<totfact> 0.53576053E+04</totfact>
</mgrwt>
</event>
<event>
 5    1  0.8303392E-059  0.1250010E+03  0.7818608E-02  0.1235068E+00
          1   -1    0    0  501    0  0.00000000000E+00  0.00000000000E+00  0.76024915398E+02  0.76024915541E+02  0.46700000000E-02 0. -1.
         -1   -1    0    0    0  501 -0.00000000000E+00 -0.00000000000E+00 -0.51382036066E+02  0.51382036278E+02  0.46700000000E-02 0.  1.
         25    2    1    2    0    0  0.00000000000E+00  0.00000000000E+00  0.24642879332E+02  0.12740695182E+03  0.12500103948E+03 0.  0.
        -11    1    3    3    0    0 -0.57631492573E+02 -0.40092225401E+01  0.36631117808E+02  0.68405420792E+02  0.51100000000E-03 0.  1.
         11    1    3    3    0    0  0.57631492573E+02  0.40092225401E+01 -0.11988238477E+02  0.59001531027E+02  0.51100000000E-03 0. -1.
<mgrwt>
<rscale>  0 0.12500104E+03</rscale>
<asrwt>0</asrwt>
<pdfrwt beam="1">  1        1 0.11696141E-01 0.12500104E+03</pdfrwt>
<pdfrwt beam="2">  1       -1 0.79049287E-02 0.12500104E+03</pdfrwt>
<totfact> 0.41096461E+04</totfact>
</mgrwt>
</event>
<event>
 5    1  0.8303392E-059  0.1249795E+03  0.7818608E-02  0.1235101E+00
          1   -1    0    0  501    0  0.00000000000E+00  0.00000000000E+00  0.19377588263E+03  0.19377588269E+03  0.46700000000E-02 0. -1.
         -1   -1    0    0    0  501 -0.00000000000E+00 -0.00000000000E+00 -0.20151971604E+02  0.20151972145E+02  0.46700000000E-02 0.  1.
         25    2    1    2    0    0  0.00000000000E+00  0.00000000000E+00  0.17362391103E+03  0.21392785483E+03  0.12497945668E+03 0.  0.
        -11    1    3    3    0    0 -0.21016338039E+02 -0.56305279560E+02  0.57512541150E+02  0.83184513948E+02  0.51100000000E-03 0.  1.
         11    1    3    3    0    0  0.21016338039E+02  0.56305279560E+02  0.11611136988E+03  0.13074334088E+03  0.51100000000E-03 0. -1.
<mgrwt>
<rscale>  0 0.12497946E+03</rscale>
<asrwt>0</asrwt>
<pdfrwt beam="1">  1        1 0.29811672E-01 0.12497946E+03</pdfrwt>
<pdfrwt beam="2">  1       -1 0.31003036E-02 0.12497946E+03</pdfrwt>
<totfact> 0.49694680E+04</totfact>
</mgrwt>
</event>
<event>
 5    1  0.8303392E-059  0.1249960E+03  0.7818608E-02  0.1235076E+00
          1   -1    0    0  501    0  0.00000000000E+00  0.00000000000E+00  0.28794961978E+03  0.28794961982E+03  0.46700000000E-02 0. -1.
         -1   -1    0    0    0  501 -0.00000000000E+00 -0.00000000000E+00 -0.13564865726E+02  0.13564866530E+02  0.46700000000E-02 0.  1.
         25    2    1    2    0    0  0.00000000000E+00  0.00000000000E+00  0.27438475406E+03  0.30151448635E+03  0.12499596882E+03 0.  0.
        -11    1    3    3    0    0 -0.46422947410E+02 -0.37534811565E+02  0.92580100137E+02  0.11015909888E+03  0.51100000000E-03 0.  1.
         11    1    3    3    0    0  0.46422947410E+02  0.37534811565E+02  0.18180465392E+03  0.19135538747E+03  0.51100000000E-03 0. -1.
<mgrwt>
<rscale>  0 0.12499597E+03</rscale>
<asrwt>0</asrwt>
<pdfrwt beam="1">  1        1 0.44299936E-01 0.12499597E+03</pdfrwt>
<pdfrwt beam="2">  1       -1 0.20869028E-02 0.12499597E+03</pdfrwt>
<totfact> 0.54030748E+04</totfact>
</mgrwt>
</event>
<event>
 5    1  0.8303392E-059  0.1250003E+03  0.7818608E-02  0.1235069E+00
         -1   -1    0    0    0  501 -0.00000000000E+00  0.00000000000E+00  0.82552457725E+02  0.82552457857E+02  0.46700000000E-02 0.  1.
          1   -1    0    0  501    0  0.00000000000E+00 -0.00000000000E+00 -0.47318586452E+02  0.47318586683E+02  0.46700000000E-02 0. -1.
         25    2    1    2    0    0  0.00000000000E+00  0.00000000000E+00  0.35233871272E+02  0.12987104454E+03  0.12500025010E+03 0.  0.
        -11    1    3    3    0    0 -0.54108493785E+02 -0.26460575700E+02  0.28224285311E+00  0.60232639220E+02  0.51100000000E-03 0.  1.
         11    1    3    3    0    0  0.54108493785E+02  0.26460575700E+02  0.34951628419E+02  0.69638405320E+02  0.51100000000E-03 0. -1.
<mgrwt>
<rscale>  0 0.12500025E+03</rscale>
<asrwt>0</asrwt>
<pdfrwt beam="2">  1        1 0.72797826E-02 0.12500025E+03</pdfrwt>
<pdfrwt beam="1">  1       -1 0.12700378E-01 0.12500025E+03</pdfrwt>
<totfact> 0.37455107E+04</totfact>
</mgrwt>
</event>
<event>
 5    1  0.8303392E-059  0.1249983E+03  0.7818608E-02  0.1235072E+00
          1   -1    0    0  501    0  0.00000000000E+00  0.00000000000E+00  0.42908414358E+02  0.42908414612E+02  0.46700000000E-02 0. -1.
         -1   -1    0    0    0  501 -0.00000000000E+00 -0.00000000000E+00 -0.91034445806E+02  0.91034445926E+02  0.46700000000E-02 0.  1.
         25    2    1    2    0    0  0.00000000000E+00  0.00000000000E+00 -0.48126031448E+02  0.13394286054E+03  0.12499829993E+03 0.  0.
        -11    1    3    3    0    0  0.37078569899E+02  0.47942191489E+02 -0.40415055410E+02  0.72846762280E+02  0.51100000000E-03 0.  1.
         11    1    3    3    0    0 -0.37078569899E+02 -0.47942191489E+02 -0.77109760383E+01  0.61096098258E+02  0.51100000000E-03 0. -1.
<mgrwt>
<rscale>  0 0.12499830E+03</rscale>
<asrwt>0</asrwt>
<pdfrwt beam="1">  1        1 0.66012946E-02 0.12499830E+03</pdfrwt>
<pdfrwt beam="2">  1       -1 0.14005299E-01 0.12499830E+03</pdfrwt>
<totfact> 0.36716716E+04</totfact>
</mgrwt>
</event>
<event>
 5    1  0.8303392E-059  0.1249985E+03  0.7818608E-02  0.1235072E+00
         -1   -1    0    0    0  501 -0.00000000000E+00  0.00000000000E+00  0.16104000588E+03  0.16104000595E+03  0.46700000000E-02 0. -1.
          1   -1    0    0  501    0  0.00000000000E+00 -0.00000000000E+00 -0.24255820663E+02  0.24255821112E+02  0.46700000000E-02 0.  1.
         25    2    1    2    0    0  0.00000000000E+00  0.00000000000E+00  0.13678418522E+03  0.18529582706E+03  0.12499852079E+03 0.  0.
        -11    1    3    3    0    0 -0.61433346628E+02  0.41011255320E+01  0.52475797942E+02  0.80898607395E+02  0.51100000000E-03 0. -1.
         11    1    3    3    0    0  0.61433346628E+02 -0.41011255320E+01  0.84308387278E+02  0.10439721967E+03  0.51100000000E-03 0.  1.
<mgrwt>
<rscale>  0 0.12499852E+03</rscale>
<asrwt>0</asrwt>
<pdfrwt beam="2">  1        1 0.37316646E-02 0.12499852E+03</pdfrwt>
<pdfrwt beam="1">  1       -1 0.24775386E-01 0.12499852E+03</pdfrwt>
<totfact> 0.32202519E+04</totfact>
</mgrwt>
</event>
<event>
 5    1  0.8303392E-059  0.1249988E+03  0.7818608E-02  0.1235071E+00
         -1   -1    0    0    0  501 -0.00000000000E+00  0.00000000000E+00  0.50881939500E+02  0.50881939715E+02  0.46700000000E-02 0.  1.
          1   -1    0    0  501    0  0.00000000000E+00 -0.00000000000E+00 -0.76769333100E+02  0.76769333242E+02  0.46700000000E-02 0. -1.
         25    2    1    2    0    0  0.00000000000E+00  0.00000000000E+00 -0.25887393600E+02  0.12765127296E+03  0.12499876135E+03 0.  0.
        -11    1    3    3    0    0  0.61647129743E+02  0.39400196800E+00 -0.23440368278E+02  0.65954338055E+02  0.51100000000E-03 0.  1.
         11    1    3    3    0    0 -0.61647129743E+02 -0.39400196800E+00 -0.24470253223E+01  0.61696934902E+02  0.51100000000E-03 0. -1.
<mgrwt>
<rscale>  0 0.12499876E+03</rscale>
<asrwt>0</asrwt>
<pdfrwt beam="2">  1        1 0.11810667E-01 0.12499876E+03</pdfrwt>
<pdfrwt beam="1">  1       -1 0.78279907E-02 0.12499876E+03</pdfrwt>
<totfact> 0.41176173E+04</totfact>
</mgrwt>
</event>
<event>
 5    1  0.8303392E-059  0.1249996E+03  0.7818608E-02  0.1235070E+00
          1   -1    0    0  501    0  0.00000000000E+00  0.00000000000E+00  0.12233826771E+03  0.12233826780E+03  0.46700000000E-02 0. -1.
         -1   -1    0    0    0  501 -0.00000000000E+00 -0.00000000000E+00 -0.31929730701E+02  0.31929731043E+02  0.46700000000E-02 0.  1.
         25    2    1    2    0    0  0.00000000000E+00  0.00000000000E+00  0.90408537006E+02  0.15426799884E+03  0.12499964761E+03 0.  0.
        -11    1    3    3    0    0 -0.55702181122E+02  0.25366708644E+02  0.60816360152E+02  0.86283443090E+02  0.51100000000E-03 0. -1.
         11    1    3    3    0    0  0.55702181122E+02 -0.25366708644E+02  0.29592176854E+02  0.67984555749E+02  0.51100000000E-03 0.  1.
<mgrwt>
<rscale>  0 0.12499965E+03</rscale>
<asrwt>0</asrwt>
<pdfrwt beam="1">  1        1 0.18821272E-01 0.12499965E+03</pdfrwt>
<pdfrwt beam="2">  1       -1 0.49122663E-02 0.12499965E+03</pdfrwt>
<totfact> 0.45134919E+04</totfact>
</mgrwt>
</event>
<event>
 5    1  0.8303392E-059  0.1250027E+03  0.7818608E-02  0.1235065E+00
         -1   -1    0    0    0  501 -0.00000000000E+00  0.00000000000E+00  0.57141119168E+02  0.57141119359E+02  0.46700000000E-02 0.  1.
          1   -1    0    0  501    0  0.00000000000E+00 -0.00000000000E+00 -0.68364449677E+02  0.68364449837E+02  0.46700000000E-02 0. -1.
         25    2    1    2    0    0  0.00000000000E+00  0.00000000000E+00 -0.11223330509E+02  0.12550556920E+03  0.12500273898E+03 0.  0.
        -11    1    3    3    0    0 -0.18249722501E+02 -0.58811249842E+02 -0.16360133888E+02  0.63713965976E+02  0.51100000000E-03 0. -1.
         11    1    3    3    0    0  0.18249722501E+02  0.58811249842E+02  0.51368033790E+01  0.61791603220E+02  0.51100000000E-03 0.  1.
<mgrwt>
<rscale>  0 0.12500274E+03</rscale>
<asrwt>0</asrwt>
<pdfrwt beam="2">  1        1 0.10517608E-01 0.12500274E+03</pdfrwt>
<pdfrwt beam="1">  1       -1 0.87909414E-02 0.12500274E+03</pdfrwt>
<totfact> 0.40259629E+04</totfact>
</mgrwt>
</event>
<event>
 5    1  0.8303392E-059  0.1250003E+03  0.7818608E-02  0.1235069E+00
         -1   -1    0    0    0  501 -0.00000000000E+00  0.00000000000E+00  0.12105544076E+03  0.12105544085E+03  0.46700000000E-02 0.  1.
          1   -1    0    0  501    0  0.00000000000E+00 -0.00000000000E+00 -0.32268422205E+02  0.32268422543E+02  0.46700000000E-02 0. -1.
         25    2    1    2    0    0  0.00000000000E+00  0.00000000000E+00  0.88787018558E+02  0.15332386340E+03  0.12500028969E+03 0.  0.
        -11    1    3    3    0    0  0.34705851118E+02  0.51543552725E+02  0.36162182485E+02  0.71895322322E+02  0.51100000000E-03 0.  1.
         11    1    3    3    0    0 -0.34705851118E+02 -0.51543552725E+02  0.52624836073E+02  0.81428541073E+02  0.51100000000E-03 0. -1.
<mgrwt>
<rscale>  0 0.12500029E+03</rscale>
<asrwt>0</asrwt>
<pdfrwt beam="2">  1        1 0.49643726E-02 0.12500029E+03</pdfrwt>
<pdfrwt beam="1">  1       -1 0.18623914E-01 0.12500029E+03</pdfrwt>
<totfact> 0.34522486E+04</totfact>
</mgrwt>
</event>
<event>
 5    1  0.8303392E-059  0.1250004E+03  0.7818608E-02  0.1235069E+00
          1   -1    0    0  501    0  0.00000000000E+00  0.00000000000E+00  0.18194865728E+03  0.18194865734E+03  0.46700000000E-02 0. -1.
         -1   -1    0    0    0  501 -0.00000000000E+00 -0.00000000000E+00 -0.21469102980E+02  0.21469103488E+02  0.46700000000E-02 0.  1.
         25    2    1    2    0    0  0.00000000000E+00  0.00000000000E+00  0.16047955430E+03  0.20341776083E+03  0.12500039229E+03 0.  0.
        -11    1    3    3    0    0 -0.17862434670E+02  0.59817184311E+02  0.85152180676E+02  0.10558435483E+03  0.51100000000E-03 0. -1.
         11    1    3    3    0    0  0.17862434670E+02 -0.59817184311E+02  0.75327373624E+02  0.97833405995E+02  0.51100000000E-03 0.  1.
<mgrwt>
<rscale>  0 0.12500039E+03</rscale>
<asrwt>0</asrwt>
<pdfrwt beam="1">  1        1 0.27992102E-01 0.12500039E+03</pdfrwt>
<pdfrwt beam="2">  1       -1 0.33029389E-02 0.12500039E+03</pdfrwt>
<totfact> 0.49009322E+04</totfact>
</mgrwt>
</event>
<event>
 5    1  0.8303392E-059  0.1250020E+03  0.7818608E-02  0.1235066E+00
          1   -1    0    0  501    0  0.00000000000E+00  0.00000000000E+00  0.48104599382E+02  0.48104599609E+02  0.46700000000E-02 0. -1.
         -1   -1    0    0    0  501 -0.00000000000E+00 -0.00000000000E+00 -0.81205888520E+02  0.81205888654E+02  0.46700000000E-02 0.  1.
         25    2    1    2    0    0  0.00000000000E+00  0.00000000000E+00 -0.33101289138E+02  0.12931048826E+03  0.12500202811E+03 0.  0.
        -11    1    3    3    0    0 -0.44060154951E+01 -0.60103906970E+02 -0.33689244048E+02  0.69042434563E+02  0.51100000000E-03 0.  1.
         11    1    3    3    0    0  0.44060154951E+01  0.60103906970E+02  0.58795490985E+00  0.60268053700E+02  0.51100000000E-03 0. -1.
<mgrwt>
<rscale>  0 0.12500203E+03</rscale>
<asrwt>0</asrwt>
<pdfrwt beam="1">  1        1 0.74007076E-02 0.12500203E+03</pdfrwt>
<pdfrwt beam="2">  1       -1 0.12493214E-01 0.12500203E+03</pdfrwt>
<totfact> 0.37577870E+04</totfact>
</mgrwt>
</event>
<event>
 5    1  0.8303392E-059  0.1250010E+03  0.7818608E-02  0.1235068E+00
          1   -1    0    0  501    0  0.00000000000E+00  0.00000000000E+00  0.67382317237E+02  0.67382317399E+02  0.46700000000E-02 0. -1.
         -1   -1    0    0    0  501 -0.00000000000E+00 -0.00000000000E+00 -0.57972397348E+02  0.57972397536E+02  0.46700000000E-02 0.  1.
         25    2    1    2    0    0  0.00000000000E+00  0.00000000000E+00  0.94099198893E+01  0.12535471494E+03  0.12500103185E+03 0.  0.
        -11    1    3    3    0    0 -0.34365110671E+02 -0.51922275830E+02 -0.73541814125E+00  0.62268968186E+02  0.51100000000E-03 0.  1.
         11    1    3    3    0    0  0.34365110671E+02  0.51922275830E+02  0.10145338031E+02  0.63085746749E+02  0.51100000000E-03 0. -1.
<mgrwt>
<rscale>  0 0.12500103E+03</rscale>
<asrwt>0</asrwt>
<pdfrwt beam="1">  1        1 0.10366510E-01 0.12500103E+03</pdfrwt>
<pdfrwt beam="2">  1       -1 0.89188305E-02 0.12500103E+03</pdfrwt>
<totfact> 0.40148688E+04</totfact>
</mgrwt>
</event>
<event>
 5    1  0.8303392E-059  0.1250050E+03  0.7818608E-02  0.1235061E+00
         -1   -1    0    0    0  501 -0.00000000000E+00  0.00000000000E+00  0.11665846105E+03  0.11665846115E+03  0.46700000000E-02 0.  1.
          1   -1    0    0  501    0  0.00000000000E+00 -0.00000000000E+00 -0.33487172178E+02  0.33487172504E+02  0.46700000000E-02 0. -1.
         25    2    1    2    0    0  0.00000000000E+00  0.00000000000E+00  0.83171288875E+02  0.15014563365E+03  0.12500499194E+03 0.  0.
        -11    1    3    3    0    0  0.42266844141E+02 -0.44817989628E+02  0.54264326981E+02  0.82096013856E+02  0.51100000000E-03 0.  1.
         11    1    3    3    0    0 -0.42266844141E+02  0.44817989628E+02  0.28906961894E+02  0.68049619795E+02  0.51100000000E-03 0. -1.
<mgrwt>
<rscale>  0 0.12500499E+03</rscale>
<asrwt>0</asrwt>
<pdfrwt beam="2">  1        1 0.51518726E-02 0.12500499E+03</pdfrwt>
<pdfrwt beam="1">  1       -1 0.17947456E-01 0.12500499E+03</pdfrwt>
<totfact> 0.34808727E+04</totfact>
</mgrwt>
</event>
<event>
 5    1  0.8303392E-059  0.1250012E+03  0.7818608E-02  0.1235067E+00
         -1   -1    0    0    0  501 -0.00000000000E+00  0.00000000000E+00  0.28355412918E+02  0.28355413303E+02  0.46700000000E-02 0.  1.
          1   -1    0    0  501    0  0.00000000000E+00 -0.00000000000E+00 -0.13776290558E+03  0.13776290566E+03  0.46700000000E-02 0. -1.
         25    2    1    2    0    0  0.00000000000E+00  0.00000000000E+00 -0.10940749266E+03  0.16611831896E+03  0.12500118577E+03 0.  0.
        -11    1    3    3    0    0 -0.53201223599E+02 -0.32122967359E+02 -0.45881697987E+02  0.77248853939E+02  0.51100000000E-03 0.  1.
         11    1    3    3    0    0  0.53201223599E+02  0.32122967359E+02 -0.63525794677E+02  0.88869465026E+02  0.51100000000E-03 0. -1.
<mgrwt>
<rscale>  0 0.12500119E+03</rscale>
<asrwt>0</asrwt>
<pdfrwt beam="2">  1        1 0.21194293E-01 0.12500119E+03</pdfrwt>
<pdfrwt beam="1">  1       -1 0.43623713E-02 0.12500119E+03</pdfrwt>
<totfact> 0.46241154E+04</totfact>
</mgrwt>
</event>
<event>
 5    1  0.8303392E-059  0.1250015E+03  0.7818608E-02  0.1235067E+00
          1   -1    0    0  501    0  0.00000000000E+00  0.00000000000E+00  0.13491152290E+02  0.13491153098E+02  0.46700000000E-02 0.  1.
         -1   -1    0    0    0  501 -0.00000000000E+00 -0.00000000000E+00 -0.28954849235E+03  0.28954849239E+03  0.46700000000E-02 0. -1.
         25    2    1    2    0    0  0.00000000000E+00  0.00000000000E+00 -0.27605734006E+03  0.30303964549E+03  0.12500148693E+03 0.  0.
        -11    1    3    3    0    0  0.50966848071E+02 -0.33137431440E+02 -0.17321293444E+03  0.18357132026E+03  0.51100000000E-03 0. -1.
         11    1    3    3    0    0 -0.50966848071E+02  0.33137431440E+02 -0.10284440563E+03  0.11946832523E+03  0.51100000000E-03 0.  1.
<mgrwt>
<rscale>  0 0.12500149E+03</rscale>
<asrwt>0</asrwt>
<pdfrwt beam="1">  1        1 0.20755622E-02 0.12500149E+03</pdfrwt>
<pdfrwt beam="2">  1       -1 0.44545917E-01 0.12500149E+03</pdfrwt>
<totfact> 0.26699983E+04</totfact>
</mgrwt>
</event>
<event>
 5    1  0.8303392E-059  0.1249996E+03  0.7818608E-02  0.1235070E+00
          1   -1    0    0  501    0  0.00000000000E+00  0.00000000000E+00  0.19575853717E+03  0.19575853722E+03  0.46700000000E-02 0. -1.
         -1   -1    0    0    0  501 -0.00000000000E+00 -0.00000000000E+00 -0.19954313036E+02  0.19954313583E+02  0.46700000000E-02 0.  1.
         25    2    1    2    0    0  0.00000000000E+00  0.00000000000E+00  0.17580422413E+03  0.21571285081E+03  0.12499963512E+03 0.  0.
        -11    1    3    3    0    0  0.33657845502E+02  0.42823867318E+02  0.35007181450E+02  0.64747485891E+02  0.51100000000E-03 0.  1.
         11    1    3    3    0    0 -0.33657845502E+02 -0.42823867318E+02  0.14079704268E+03  0.15096536492E+03  0.51100000000E-03 0. -1.
<mgrwt>
<rscale>  0 0.12499964E+03</rscale>
<asrwt>0</asrwt>
<pdfrwt beam="1">  1        1 0.30116698E-01 0.12499964E+03</pdfrwt>
<pdfrwt beam="2">  1       -1 0.30698944E-02 0.12499964E+03</pdfrwt>
<totfact> 0.49780414E+04</totfact>
</mgrwt>
</event>
<event>
 5    1  0.8303392E-059  0.1249987E+03  0.7818608E-02  0.1235071E+00
          1   -1    0    0  501    0  0.00000000000E+00  0.00000000000E+00  0.24361227157E+02  0.24361227605E+02  0.46700000000E-02 0. -1.
         -1   -1    0    0    0  501 -0.00000000000E+00 -0.00000000000E+00 -0.16034373072E+03  0.16034373079E+03  0.46700000000E-02 0.  1.
         25    2    1    2    0    0  0.00000000000E+00  0.00000000000E+00 -0.13598250357E+03  0.18470495840E+03  0.12499872151E+03 0.  0.
        -11    1    3    3    0    0  0.33984937916E+02  0.44149065791E+02 -0.10983926163E+03  0.12316159876E+03  0.51100000000E-03 0.  1.
         11    1    3    3    0    0 -0.33984937916E+02 -0.44149065791E+02 -0.26143241939E+02  0.61543359632E+02  0.51100000000E-03 0. -1.
<mgrwt>
<rscale>  0 0.12499872E+03</rscale>
<asrwt>0</asrwt>
<pdfrwt beam="1">  1        1 0.37478812E-02 0.12499872E+03</pdfrwt>
<pdfrwt beam="2">  1       -1 0.24668266E-01 0.12499872E+03</pdfrwt>
<totfact> 0.32238952E+04</totfact>
</mgrwt>
</event>
<event>
 5    1  0.8303392E-059  0.1250007E+03  0.7818608E-02  0.1235068E+00
          1   -1    0    0  501    0  0.00000000000E+00  0.00000000000E+00  0.51880448507E+02  0.51880448717E+02  0.46700000000E-02 0. -1.
         -1   -1    0    0    0  501 -0.00000000000E+00 -0.00000000000E+00 -0.75294081320E+02  0.75294081464E+02  0.46700000000E-02 0.  1.
         25    2    1    2    0    0  0.00000000000E+00  0.00000000000E+00 -0.23413632813E+02  0.12717453018E+03  0.12500065170E+03 0.  0.
        -11    1    3    3    0    0  0.55963141042E+02  0.26285069235E+02 -0.24093598888E+01  0.61875544727E+02  0.51100000000E-03 0.  1.
         11    1    3    3    0    0 -0.55963141042E+02 -0.26285069235E+02 -0.21004272924E+02  0.65298985454E+02  0.51100000000E-03 0. -1.
<mgrwt>
<rscale>  0 0.12500065E+03</rscale>
<asrwt>0</asrwt>
<pdfrwt beam="1">  1        1 0.79816075E-02 0.12500065E+03</pdfrwt>
<pdfrwt beam="2">  1       -1 0.11583705E-01 0.12500065E+03</pdfrwt>
<totfact> 0.38149790E+04</totfact>
</mgrwt>
</event>
<event>
 5    1  0.8303392E-059  0.1250000E+03  0.7818608E-02  0.1235069E+00
          1   -1    0    0  501    0  0.00000000000E+00  0.00000000000E+00  0.15978818606E+03  0.15978818613E+03  0.46700000000E-02 0. -1.
         -1   -1    0    0    0  501 -0.00000000000E+00 -0.00000000000E+00 -0.24446438954E+02  0.24446439400E+02  0.46700000000E-02 0.  1.
         25    2    1    2    0    0  0.00000000000E+00  0.00000000000E+00  0.13534174710E+03  0.18423462553E+03  0.12500003493E+03 0.  0.
        -11    1    3    3    0    0 -0.28352759134E+02 -0.52289138310E+02  0.95953150104E+02  0.11289393230E+03  0.51100000000E-03 0. -1.
         11    1    3    3    0    0  0.28352759134E+02  0.52289138310E+02  0.39388597001E+02  0.71340693224E+02  0.51100000000E-03 0.  1.
<mgrwt>
<rscale>  0 0.12500003E+03</rscale>
<asrwt>0</asrwt>
<pdfrwt beam="1">  1        1 0.24582797E-01 0.12500003E+03</pdfrwt>
<pdfrwt beam="2">  1       -1 0.37609907E-02 0.12500003E+03</pdfrwt>
<totfact> 0.47686941E+04</totfact>
</mgrwt>
</event>
<event>
 5    1  0.8303392E-059  0.1250012E+03  0.7818608E-02  0.1235067E+00
         -1   -1    0    0    0  501 -0.00000000000E+00  0.00000000000E+00  0.88435915917E+01  0.88435928248E+01  0.46700000000E-02 0.  1.
          1   -1    0    0  501    0  0.00000000000E+00 -0.00000000000E+00 -0.44171213132E+03  0.44171213134E+03  0.46700000000E-02 0. -1.
         25    2    1    2    0    0  0.00000000000E+00  0.00000000000E+00 -0.43286853973E+03  0.45055572417E+03  0.12500115158E+03 0.  0.
        -11    1    3    3    0    0  0.57463273315E+02  0.23598535138E+02 -0.24125067875E+03  0.24912006872E+03  0.51100000000E-03 0.  1.
         11    1    3    3    0    0 -0.57463273315E+02 -0.23598535138E+02 -0.19161786098E+03  0.20143565545E+03  0.51100000000E-03 0. -1.
<mgrwt>
<rscale>  0 0.12500115E+03</rscale>
<asrwt>0</asrwt>
<pdfrwt beam="2">  1        1 0.67955695E-01 0.12500115E+03</pdfrwt>
<pdfrwt beam="1">  1       -1 0.13605530E-02 0.12500115E+03</pdfrwt>
<totfact> 0.58525426E+04</totfact>
</mgrwt>
</event>
<event>
 5    1  0.8303392E-059  0.1249991E+03  0.7818608E-02  0.1235071E+00
          1   -1    0    0  501    0  0.00000000000E+00  0.00000000000E+00  0.68949068667E+02  0.68949068825E+02  0.46700000000E-02 0. -1.
         -1   -1    0    0    0  501 -0.00000000000E+00 -0.00000000000E+00 -0.56653335024E+02  0.56653335216E+02  0.46700000000E-02 0.  1.
         25    2    1    2    0    0  0.00000000000E+00  0.00000000000E+00  0.12295733644E+02  0.12560240404E+03  0.12499911534E+03 0.  0.
        -11    1    3    3    0    0  0.16110154460E+01  0.52325128927E+02 -0.28158973901E+02  0.59442764904E+02  0.51100000000E-03 0.  1.
         11    1    3    3    0    0 -0.16110154460E+01 -0.52325128927E+02  0.40454707544E+02  0.66159639137E+02  0.51100000000E-03 0. -1.
<mgrwt>
<rscale>  0 0.12499912E+03</rscale>
<asrwt>0</asrwt>
<pdfrwt beam="1">  1        1 0.10607549E-01 0.12499912E+03</pdfrwt>
<pdfrwt beam="2">  1       -1 0.87158977E-02 0.12499912E+03</pdfrwt>
<totfact> 0.40329362E+04</totfact>
</mgrwt>
</event>
<event>
 5    1  0.1180765E-058  0.1250013E+03  0.7818608E-02  0.1235067E+00
          1   -1    0    0  501    0  0.00000000000E+00  0.00000000000E+00  0.19658983193E+03  0.19658983198E+03  0.46700000000E-02 0. -1.
         -1   -1    0    0    0  501 -0.00000000000E+00 -0.00000000000E+00 -0.19870448623E+02  0.19870449172E+02  0.46700000000E-02 0.  1.
         25    2    1    2    0    0  0.00000000000E+00  0.00000000000E+00  0.17671938330E+03  0.21646028115E+03  0.12500125152E+03 0.  0.
        -11    1    3    3    0    0 -0.41938181125E+02 -0.33480827100E+02  0.32877423506E+02  0.62934106779E+02  0.51100000000E-03 0.  1.
         11    1    3    3    0    0  0.41938181125E+02  0.33480827100E+02  0.14384195980E+03  0.15352617437E+03  0.51100000000E-03 0. -1.
<mgrwt>
<rscale>  0 0.12500125E+03</rscale>
<asrwt>0</asrwt>
<pdfrwt beam="1">  1        1 0.30244589E-01 0.12500125E+03</pdfrwt>
<pdfrwt beam="2">  1       -1 0.30569922E-02 0.12500125E+03</pdfrwt>
<totfact> 0.49823690E+04</totfact>
</mgrwt>
</event>
<event>
 5    1  0.8303392E-059  0.1250002E+03  0.7818608E-02  0.1235069E+00
          1   -1    0    0  501    0  0.00000000000E+00  0.00000000000E+00  0.28875020132E+03  0.28875020136E+03  0.46700000000E-02 0. -1.
         -1   -1    0    0    0  501 -0.00000000000E+00 -0.00000000000E+00 -0.13528167606E+02  0.13528168412E+02  0.46700000000E-02 0.  1.
         25    2    1    2    0    0  0.00000000000E+00  0.00000000000E+00  0.27522203372E+03  0.30227836977E+03  0.12500017996E+03 0.  0.
        -11    1    3    3    0    0  0.41343481346E+02 -0.46664830734E+02  0.14825432407E+03  0.16082983082E+03  0.51100000000E-03 0.  1.
         11    1    3    3    0    0 -0.41343481346E+02  0.46664830734E+02  0.12696770965E+03  0.14144853895E+03  0.51100000000E-03 0. -1.
<mgrwt>
<rscale>  0 0.12500018E+03</rscale>
<asrwt>0</asrwt>
<pdfrwt beam="1">  1        1 0.44423106E-01 0.12500018E+03</pdfrwt>
<pdfrwt beam="2">  1       -1 0.20812567E-02 0.12500018E+03</pdfrwt>
<totfact> 0.54056860E+04</totfact>
</mgrwt>
</event>
<event>
 5    1  0.8303392E-059  0.1249995E+03  0.7818608E-02  0.1235070E+00
         -1   -1    0    0    0  501 -0.00000000000E+00  0.00000000000E+00  0.18434312843E+02  0.18434313434E+02  0.46700000000E-02 0.  1.
          1   -1    0    0  501    0  0.00000000000E+00 -0.00000000000E+00 -0.21189941470E+03  0.21189941475E+03  0.46700000000E-02 0. -1.
         25    2    1    2    0    0  0.00000000000E+00  0.00000000000E+00 -0.19346510186E+03  0.23033372819E+03  0.12499952281E+03 0.  0.
        -11    1    3    3    0    0  0.46738176681E+02  0.21220776341E+02 -0.31027704878E+02  0.59979137858E+02  0.51100000000E-03 0.  1.
         11    1    3    3    0    0 -0.46738176681E+02 -0.21220776341E+02 -0.16243739698E+03  0.17035459033E+03  0.51100000000E-03 0. -1.
<mgrwt>
<rscale>  0 0.12499952E+03</rscale>
<asrwt>0</asrwt>
<pdfrwt beam="2">  1        1 0.32599908E-01 0.12499952E+03</pdfrwt>
<pdfrwt beam="1">  1       -1 0.28360483E-02 0.12499952E+03</pdfrwt>
<totfact> 0.50630301E+04</totfact>
</mgrwt>
</event>
<event>
 5    1  0.8303392E-059  0.1250023E+03  0.7818608E-02  0.1235066E+00
         -1   -1    0    0    0  501 -0.00000000000E+00  0.00000000000E+00  0.86380351981E+02  0.86380352107E+02  0.46700000000E-02 0.  1.
          1   -1    0    0  501    0  0.00000000000E+00 -0.00000000000E+00 -0.45223152425E+02  0.45223152666E+02  0.46700000000E-02 0. -1.
         25    2    1    2    0    0  0.00000000000E+00  0.00000000000E+00  0.41157199557E+02  0.13160350477E+03  0.12500226955E+03 0.  0.
        -11    1    3    3    0    0  0.56502433676E+00  0.40893700687E+02 -0.29180159887E+02  0.50240379574E+02  0.51100000000E-03 0. -1.
         11    1    3    3    0    0 -0.56502433676E+00 -0.40893700687E+02  0.70337359444E+02  0.81363125199E+02  0.51100000000E-03 0.  1.
<mgrwt>
<rscale>  0 0.12500227E+03</rscale>
<asrwt>0</asrwt>
<pdfrwt beam="2">  1        1 0.69574081E-02 0.12500227E+03</pdfrwt>
<pdfrwt beam="1">  1       -1 0.13289285E-01 0.12500227E+03</pdfrwt>
<totfact> 0.37111049E+04</totfact>
</mgrwt>
</event>
<event>
 5    1  0.8303392E-059  0.1250005E+03  0.7818608E-02  0.1235068E+00
         -1   -1    0    0    0  501 -0.00000000000E+00  0.00000000000E+00  0.14648327107E+02  0.14648327852E+02  0.46700000000E-02 0.  1.
          1   -1    0    0  501    0  0.00000000000E+00 -0.00000000000E+00 -0.26667098716E+03  0.26667098720E+03  0.46700000000E-02 0. -1.
         25    2    1    2    0    0  0.00000000000E+00  0.00000000000E+00 -0.25202266005E+03  0.28131931505E+03  0.12500054336E+03 0.  0.
        -11    1    3    3    0    0 -0.33892254721E+02 -0.51436889434E+02 -0.10221024353E+03  0.11933722138E+03  0.51100000000E-03 0.  1.
         11    1    3    3    0    0  0.33892254721E+02  0.51436889434E+02 -0.14981241652E+03  0.16198209367E+03  0.51100000000E-03 0. -1.
<mgrwt>
<rscale>  0 0.12500054E+03</rscale>
<asrwt>0</asrwt>
<pdfrwt beam="2">  1        1 0.41026302E-01 0.12500054E+03</pdfrwt>
<pdfrwt beam="1">  1       -1 0.22535890E-02 0.12500054E+03</pdfrwt>
<totfact> 0.53163451E+04</totfact>
</mgrwt>
</event>
<event>
 5    1  0.8303392E-059  0.1249996E+03  0.7818608E-02  0.1235070E+00
         -1   -1    0    0    0  501 -0.00000000000E+00  0.00000000000E+00  0.16990468408E+02  0.16990469050E+02  0.46700000000E-02 0.  1.
          1   -1    0    0  501    0  0.00000000000E+00 -0.00000000000E+00 -0.22990676837E+03  0.22990676841E+03  0.46700000000E-02 0. -1.
         25    2    1    2    0    0  0.00000000000E+00  0.00000000000E+00 -0.21291629996E+03  0.24689723746E+03  0.12499958032E+03 0.  0.
        -11    1    3    3    0    0 -0.40817906412E+01 -0.56529939233E+02 -0.54426798274E+02  0.78578441160E+02  0.51100000000E-03 0.  1.
         11    1    3    3    0    0  0.40817906412E+01  0.56529939233E+02 -0.15848950169E+03  0.16831879630E+03  0.51100000000E-03 0. -1.
<mgrwt>
<rscale>  0 0.12499958E+03</rscale>
<asrwt>0</asrwt>
<pdfrwt beam="2">  1        1 0.35370270E-01 0.12499958E+03</pdfrwt>
<pdfrwt beam="1">  1       -1 0.26139184E-02 0.12499958E+03</pdfrwt>
<totfact> 0.51518878E+04</totfact>
</mgrwt>
</event>
<event>
 5    1  0.8303392E-059  0.1249971E+03  0.7818608E-02  0.1235074E+00
         -1   -1    0    0    0  501 -0.00000000000E+00  0.00000000000E+00  0.25339036957E+02  0.25339037388E+02  0.46700000000E-02 0.  1.
          1   -1    0    0  501    0  0.00000000000E+00 -0.00000000000E+00 -0.15415215445E+03  0.15415215452E+03  0.46700000000E-02 0. -1.
         25    2    1    2    0    0  0.00000000000E+00  0.00000000000E+00 -0.12881311749E+03  0.17949119190E+03  0.12499707490E+03 0.  0.
        -11    1    3    3    0    0  0.51827966284E+02  0.97602148286E-01 -0.11456094153E+03  0.12573924185E+03  0.51100000000E-03 0. -1.
         11    1    3    3    0    0 -0.51827966284E+02 -0.97602148286E-01 -0.14252175959E+02  0.53751950059E+02  0.51100000000E-03 0.  1.
<mgrwt>
<rscale>  0 0.12499707E+03</rscale>
<asrwt>0</asrwt>
<pdfrwt beam="2">  1        1 0.23715716E-01 0.12499707E+03</pdfrwt>
<pdfrwt beam="1">  1       -1 0.38983135E-02 0.12499707E+03</pdfrwt>
<totfact> 0.47334047E+04</totfact>
</mgrwt>
</event>
<event>
 5    1  0.8303392E-059  0.1249999E+03  0.7818608E-02  0.1235069E+00
         -1   -1    0    0    0  501 -0.00000000000E+00  0.00000000000E+00  0.94317010091E+01  0.94317021653E+01  0.46700000000E-02 0.  1.
          1   -1    0    0  501    0  0.00000000000E+00 -0.00000000000E+00 -0.41416108057E+03  0.41416108060E+03  0.46700000000E-02 0. -1.
         25    2    1    2    0    0  0.00000000000E+00  0.00000000000E+00 -0.40472937956E+03  0.42359278276E+03  0.12499989971E+03 0.  0.
        -11    1    3    3    0    0 -0.58763490103E+02  0.15239217311E+02 -0.25272629941E+03  0.25991530145E+03  0.51100000000E-03 0.  1.
         11    1    3    3    0    0  0.58763490103E+02 -0.15239217311E+02 -0.15200308015E+03  0.16367748131E+03  0.51100000000E-03 0. -1.
<mgrwt>
<rscale>  0 0.12499990E+03</rscale>
<asrwt>0</asrwt>
<pdfrwt beam="2">  1        1 0.63717075E-01 0.12499990E+03</pdfrwt>
<pdfrwt beam="1">  1       -1 0.14510313E-02 0.12499990E+03</pdfrwt>
<totfact> 0.57917132E+04</totfact>
</mgrwt>
</event>
<event>
 5    1  0.8303392E-059  0.1249996E+03  0.7818608E-02  0.1235070E+00
          1   -1    0    0  501    0  0.00000000000E+00  0.00000000000E+00  0.73497827635E+02  0.73497827784E+02  0.46700000000E-02 0. -1.
         -1   -1    0    0    0  501 -0.00000000000E+00 -0.00000000000E+00 -0.53147512400E+02  0.53147512606E+02  0.46700000000E-02 0.  1.
         25    2    1    2    0    0  0.00000000000E+00  0.00000000000E+00  0.20350315235E+02  0.12664534039E+03  0.12499962765E+03 0.  0.
        -11    1    3    3    0    0 -0.42870260848E+02 -0.29756603902E+02 -0.24671145700E+02  0.57723307004E+02  0.51100000000E-03 0.  1.
         11    1    3    3    0    0  0.42870260848E+02  0.29756603902E+02  0.45021460935E+02  0.68922033386E+02  0.51100000000E-03 0. -1.
<mgrwt>
<rscale>  0 0.12499963E+03</rscale>
<asrwt>0</asrwt>
<pdfrwt beam="1">  1        1 0.11307358E-01 0.12499963E+03</pdfrwt>
<pdfrwt beam="2">  1       -1 0.81765404E-02 0.12499963E+03</pdfrwt>
<totfact> 0.40830020E+04</totfact>
</mgrwt>
</event>
<event>
 5    1  0.8303392E-059  0.1249758E+03  0.7818608E-02  0.1235107E+00
          1   -1    0    0  501    0  0.00000000000E+00  0.00000000000E+00  0.12422476038E+03  0.12422476047E+03  0.46700000000E-02 0. -1.
         -1   -1    0    0    0  501 -0.00000000000E+00 -0.00000000000E+00 -0.31432835976E+02  0.31432836323E+02  0.46700000000E-02 0.  1.
         25    2    1    2    0    0  0.00000000000E+00  0.00000000000E+00  0.92791924402E+02  0.15565759679E+03  0.12497578247E+03 0.  0.
        -11    1    3    3    0    0  0.26377082910E+02  0.51117427611E+02  0.76802406306E+02  0.95954945277E+02  0.51100000000E-03 0. -1.
         11    1    3    3    0    0 -0.26377082910E+02 -0.51117427611E+02  0.15989518096E+02  0.59702651512E+02  0.51100000000E-03 0.  1.
<mgrwt>
<rscale>  0 0.12497578E+03</rscale>
<asrwt>0</asrwt>
<pdfrwt beam="1">  1        1 0.19111502E-01 0.12497578E+03</pdfrwt>
<pdfrwt beam="2">  1       -1 0.48358209E-02 0.12497578E+03</pdfrwt>
<totfact> 0.45299653E+04</totfact>
</mgrwt>
</event>
<event>
 5    1  0.8303392E-059  0.1250015E+03  0.7818608E-02  0.1235067E+00
          1   -1    0    0  501    0  0.00000000000E+00  0.00000000000E+00  0.23010537980E+02  0.23010538454E+02  0.46700000000E-02 0. -1.
         -1   -1    0    0    0  501 -0.00000000000E+00 -0.00000000000E+00 -0.16976336541E+03  0.16976336547E+03  0.46700000000E-02 0.  1.
         25    2    1    2    0    0  0.00000000000E+00  0.00000000000E+00 -0.14675282743E+03  0.19277390393E+03  0.12500154270E+03 0.  0.
        -11    1    3    3    0    0 -0.81702554437E+01 -0.44435022067E+02 -0.13997829712E+03  0.14708891163E+03  0.51100000000E-03 0.  1.
         11    1    3    3    0    0  0.81702554437E+01  0.44435022067E+02 -0.67745303121E+01  0.45684992299E+02  0.51100000000E-03 0. -1.
<mgrwt>
<rscale>  0 0.12500154E+03</rscale>
<asrwt>0</asrwt>
<pdfrwt beam="1">  1        1 0.35400829E-02 0.12500154E+03</pdfrwt>
<pdfrwt beam="2">  1       -1 0.26117440E-01 0.12500154E+03</pdfrwt>
<totfact> 0.31751467E+04</totfact>
</mgrwt>
</event>
<event>
 5    1  0.8303392E-059  0.1249981E+03  0.7818608E-02  0.1235072E+00
          1   -1    0    0  501    0  0.00000000000E+00  0.00000000000E+00  0.59461417078E+03  0.59461417080E+03  0.46700000000E-02 0. -1.
         -1   -1    0    0    0  501 -0.00000000000E+00 -0.00000000000E+00 -0.65691865378E+01  0.65691881977E+01  0.46700000000E-02 0.  1.
         25    2    1    2    0    0  0.00000000000E+00  0.00000000000E+00  0.58804498424E+03  0.60118335899E+03  0.12499811055E+03 0.  0.
        -11    1    3    3    0    0  0.19138588610E+02  0.59449673025E+02  0.28265862449E+03  0.28947615997E+03  0.51100000000E-03 0.  1.
         11    1    3    3    0    0 -0.19138588610E+02 -0.59449673025E+02  0.30538635975E+03  0.31170719902E+03  0.51100000000E-03 0. -1.
<mgrwt>
<rscale>  0 0.12499811E+03</rscale>
<asrwt>0</asrwt>
<pdfrwt beam="1">  1        1 0.91479113E-01 0.12499811E+03</pdfrwt>
<pdfrwt beam="2">  1       -1 0.10106441E-02 0.12499811E+03</pdfrwt>
<totfact> 0.60604164E+04</totfact>
</mgrwt>
</event>
<event>
 5    1  0.8303392E-059  0.1249993E+03  0.7818608E-02  0.1235070E+00
         -1   -1    0    0    0  501 -0.00000000000E+00  0.00000000000E+00  0.34159043215E+02  0.34159043534E+02  0.46700000000E-02 0.  1.
          1   -1    0    0  501    0  0.00000000000E+00 -0.00000000000E+00 -0.11435350708E+03  0.11435350718E+03  0.46700000000E-02 0. -1.
         25    2    1    2    0    0  0.00000000000E+00  0.00000000000E+00 -0.80194463869E+02  0.14851255071E+03  0.12499930274E+03 0.  0.
        -11    1    3    3    0    0  0.20515786938E+02 -0.45653061481E+02  0.43752328870E+01  0.50241837142E+02  0.51100000000E-03 0. -1.
         11    1    3    3    0    0 -0.20515786938E+02  0.45653061481E+02 -0.84569696755E+02  0.98270713572E+02  0.51100000000E-03 0.  1.
<mgrwt>
<rscale>  0 0.12499930E+03</rscale>
<asrwt>0</asrwt>
<pdfrwt beam="2">  1        1 0.17592847E-01 0.12499930E+03</pdfrwt>
<pdfrwt beam="1">  1       -1 0.52552375E-02 0.12499930E+03</pdfrwt>
<totfact> 0.44526451E+04</totfact>
</mgrwt>
</event>
<event>
 5    1  0.8303392E-059  0.1250005E+03  0.7818608E-02  0.1235069E+00
          1   -1    0    0  501    0  0.00000000000E+00  0.00000000000E+00  0.27958043125E+02  0.27958043515E+02  0.46700000000E-02 0. -1.
         -1   -1    0    0    0  501 -0.00000000000E+00 -0.00000000000E+00 -0.13971938723E+03  0.13971938731E+03  0.46700000000E-02 0.  1.
         25    2    1    2    0    0  0.00000000000E+00  0.00000000000E+00 -0.11176134411E+03  0.16767743082E+03  0.12500049109E+03 0.  0.
        -11    1    3    3    0    0  0.52134835530E+02  0.34313183949E+02 -0.60298188293E+02  0.86783104232E+02  0.51100000000E-03 0.  1.
         11    1    3    3    0    0 -0.52134835530E+02 -0.34313183949E+02 -0.51463155812E+02  0.80894326592E+02  0.51100000000E-03 0. -1.
<mgrwt>
<rscale>  0 0.12500049E+03</rscale>
<asrwt>0</asrwt>
<pdfrwt beam="1">  1        1 0.43012375E-02 0.12500049E+03</pdfrwt>
<pdfrwt beam="2">  1       -1 0.21495290E-01 0.12500049E+03</pdfrwt>
<totfact> 0.33376910E+04</totfact>
</mgrwt>
</event>
<event>
 5    1  0.8303392E-059  0.1249992E+03  0.7818608E-02  0.1235070E+00
         -1   -1    0    0    0  501 -0.00000000000E+00  0.00000000000E+00  0.88850720436E+02  0.88850720558E+02  0.46700000000E-02 0.  1.
          1   -1    0    0  501    0  0.00000000000E+00 -0.00000000000E+00 -0.43963654394E+02  0.43963654642E+02  0.46700000000E-02 0. -1.
         25    2    1    2    0    0  0.00000000000E+00  0.00000000000E+00  0.44887066042E+02  0.13281437520E+03  0.12499923825E+03 0.  0.
        -11    1    3    3    0    0 -0.99033010176E+01 -0.59262780546E+02  0.40725383304E+02  0.72585875862E+02  0.51100000000E-03 0.  1.
         11    1    3    3    0    0  0.99033010176E+01  0.59262780546E+02  0.41616827378E+01  0.60228499339E+02  0.51100000000E-03 0. -1.
<mgrwt>
<rscale>  0 0.12499924E+03</rscale>
<asrwt>0</asrwt>
<pdfrwt beam="2">  1        1 0.67636391E-02 0.12499924E+03</pdfrwt>
<pdfrwt beam="1">  1       -1 0.13669342E-01 0.12499924E+03</pdfrwt>
<totfact> 0.36899964E+04</totfact>
</mgrwt>
</event>
<event>
 5    1  0.8303392E-059  0.1249986E+03  0.7818608E-02  0.1235071E+00
          1   -1    0    0  501    0  0.00000000000E+00  0.00000000000E+00  0.94093720979E+01  0.94093732568E+01  0.46700000000E-02 0. -1.
         -1   -1    0    0    0  501 -0.00000000000E+00 -0.00000000000E+00 -0.41513523675E+03  0.41513523678E+03  0.46700000000E-02 0.  1.
         25    2    1    2    0    0  0.00000000000E+00  0.00000000000E+00 -0.40572586466E+03  0.42454461004E+03  0.12499859463E+03 0.  0.
        -11    1    3    3    0    0 -0.49148707924E+00  0.61276121556E+02 -0.16110556615E+03  0.17236591333E+03  0.51100000000E-03 0. -1.
         11    1    3    3    0    0  0.49148707924E+00 -0.61276121556E+02 -0.24462029850E+03  0.25217869671E+03  0.51100000000E-03 0.  1.
<mgrwt>
<rscale>  0 0.12499859E+03</rscale>
<asrwt>0</asrwt>
<pdfrwt beam="1">  1        1 0.14475961E-02 0.12499859E+03</pdfrwt>
<pdfrwt beam="2">  1       -1 0.63866946E-01 0.12499859E+03</pdfrwt>
<totfact> 0.22662366E+04</totfact>
</mgrwt>
</event>
<event>
 5    1  0.8303392E-059  0.1249984E+03  0.7818608E-02  0.1235072E+00
         -1   -1    0    0    0  501 -0.00000000000E+00  0.00000000000E+00  0.11703515272E+03  0.11703515281E+03  0.46700000000E-02 0.  1.
          1   -1    0    0  501    0  0.00000000000E+00 -0.00000000000E+00 -0.33375895115E+02  0.33375895442E+02  0.46700000000E-02 0. -1.
         25    2    1    2    0    0  0.00000000000E+00  0.00000000000E+00  0.83659257602E+02  0.15041104825E+03  0.12499844821E+03 0.  0.
        -11    1    3    3    0    0 -0.45651692940E+02 -0.39967115766E+02  0.59867366474E+02  0.85238189679E+02  0.51100000000E-03 0.  1.
         11    1    3    3    0    0  0.45651692940E+02  0.39967115766E+02  0.23791891128E+02  0.65172858573E+02  0.51100000000E-03 0. -1.
<mgrwt>
<rscale>  0 0.12499845E+03</rscale>
<asrwt>0</asrwt>
<pdfrwt beam="2">  1        1 0.51347532E-02 0.12499845E+03</pdfrwt>
<pdfrwt beam="1">  1       -1 0.18005408E-01 0.12499845E+03</pdfrwt>
<totfact> 0.34788307E+04</totfact>
</mgrwt>
</event>
<event>
 5    1  0.8303392E-059  0.1249981E+03  0.7818608E-02  0.1235072E+00
          1   -1    0    0  501    0  0.00000000000E+00  0.00000000000E+00  0.11553486635E+03  0.11553486645E+03  0.46700000000E-02 0. -1.
         -1   -1    0    0    0  501 -0.00000000000E+00 -0.00000000000E+00 -0.33809118261E+02  0.33809118584E+02  0.46700000000E-02 0.  1.
         25    2    1    2    0    0  0.00000000000E+00  0.00000000000E+00  0.81725748090E+02  0.14934398503E+03  0.12499811184E+03 0.  0.
        -11    1    3    3    0    0 -0.44706764216E+02 -0.38480289238E+02  0.65543031547E+02  0.88177754628E+02  0.51100000000E-03 0.  1.
         11    1    3    3    0    0  0.44706764216E+02  0.38480289238E+02  0.16182716543E+02  0.61166230402E+02  0.51100000000E-03 0. -1.
<mgrwt>
<rscale>  0 0.12499811E+03</rscale>
<asrwt>0</asrwt>
<pdfrwt beam="1">  1        1 0.17774595E-01 0.12499811E+03</pdfrwt>
<pdfrwt beam="2">  1       -1 0.52014029E-02 0.12499811E+03</pdfrwt>
<totfact> 0.44619471E+04</totfact>
</mgrwt>
</event>
<event>
 5    1  0.8303392E-059  0.1250039E+03  0.7818608E-02  0.1235063E+00
         -1   -1    0    0    0  501 -0.00000000000E+00  0.00000000000E+00  0.11224287119E+02  0.11224288091E+02  0.46700000000E-02 0.  1.
          1   -1    0    0  501    0  0.00000000000E+00 -0.00000000000E+00 -0.34803927408E+03  0.34803927411E+03  0.46700000000E-02 0. -1.
         25    2    1    2    0    0  0.00000000000E+00  0.00000000000E+00 -0.33681498696E+03  0.35926356220E+03  0.12500388668E+03 0.  0.
        -11    1    3    3    0    0  0.51621596189E+02  0.34867357965E+02 -0.15376096737E+03  0.16590044283E+03  0.51100000000E-03 0.  1.
         11    1    3    3    0    0 -0.51621596189E+02 -0.34867357965E+02 -0.18305401959E+03  0.19336311937E+03  0.51100000000E-03 0. -1.
<mgrwt>
<rscale>  0 0.12500389E+03</rscale>
<asrwt>0</asrwt>
<pdfrwt beam="2">  1        1 0.53544495E-01 0.12500389E+03</pdfrwt>
<pdfrwt beam="1">  1       -1 0.17268137E-02 0.12500389E+03</pdfrwt>
<totfact> 0.56113110E+04</totfact>
</mgrwt>
</event>
<event>
 5    1  0.8303392E-059  0.1249993E+03  0.7818608E-02  0.1235070E+00
         -1   -1    0    0    0  501 -0.00000000000E+00  0.00000000000E+00  0.10036818509E+02  0.10036819595E+02  0.46700000000E-02 0.  1.
          1   -1    0    0  501    0  0.00000000000E+00 -0.00000000000E+00 -0.38918771783E+03  0.38918771785E+03  0.46700000000E-02 0. -1.
         25    2    1    2    0    0  0.00000000000E+00  0.00000000000E+00 -0.37915089932E+03  0.39922453745E+03  0.12499930739E+03 0.  0.
        -11    1    3    3    0    0 -0.14597868196E+02 -0.60120892933E+02 -0.21788842411E+03  0.22650162225E+03  0.51100000000E-03 0.  1.
         11    1    3    3    0    0  0.14597868196E+02  0.60120892933E+02 -0.16126247521E+03  0.17272291520E+03  0.51100000000E-03 0. -1.
<mgrwt>
<rscale>  0 0.12499931E+03</rscale>
<asrwt>0</asrwt>
<pdfrwt beam="2">  1        1 0.59875022E-01 0.12499931E+03</pdfrwt>
<pdfrwt beam="1">  1       -1 0.15441263E-02 0.12499931E+03</pdfrwt>
<totfact> 0.57294554E+04</totfact>
</mgrwt>
</event>
<event>
 5    1  0.8303392E-059  0.1249948E+03  0.7818608E-02  0.1235077E+00
          1   -1    0    0  501    0  0.00000000000E+00  0.00000000000E+00  0.25588265090E+02  0.25588265516E+02  0.46700000000E-02 0. -1.
         -1   -1    0    0    0  501 -0.00000000000E+00 -0.00000000000E+00 -0.15264527463E+03  0.15264527470E+03  0.46700000000E-02 0.  1.
         25    2    1    2    0    0  0.00000000000E+00  0.00000000000E+00 -0.12705700954E+03  0.17823354022E+03  0.12499484463E+03 0.  0.
        -11    1    3    3    0    0  0.40122949793E+02 -0.37415665498E+02 -0.10621459674E+03  0.11954632443E+03  0.51100000000E-03 0.  1.
         11    1    3    3    0    0 -0.40122949793E+02  0.37415665498E+02 -0.20842412798E+02  0.58687215782E+02  0.51100000000E-03 0. -1.
<mgrwt>
<rscale>  0 0.12499484E+03</rscale>
<asrwt>0</asrwt>
<pdfrwt beam="1">  1        1 0.39366563E-02 0.12499484E+03</pdfrwt>
<pdfrwt beam="2">  1       -1 0.23483888E-01 0.12499484E+03</pdfrwt>
<totfact> 0.32653663E+04</totfact>
</mgrwt>
</event>
<event>
 5    1  0.8303392E-059  0.1250017E+03  0.7818608E-02  0.1235067E+00
          1   -1    0    0  501    0  0.00000000000E+00  0.00000000000E+00  0.24351533595E+03  0.24351533599E+03  0.46700000000E-02 0. -1.
         -1   -1    0    0    0  501 -0.00000000000E+00 -0.00000000000E+00 -0.16041511692E+02  0.16041512371E+02  0.46700000000E-02 0.  1.
         25    2    1    2    0    0  0.00000000000E+00  0.00000000000E+00  0.22747382426E+03  0.25955684836E+03  0.12500166723E+03 0.  0.
        -11    1    3    3    0    0 -0.31207464432E+02 -0.32089636698E+02  0.23163181835E+02  0.50400234252E+02  0.51100000000E-03 0.  1.
         11    1    3    3    0    0  0.31207464432E+02  0.32089636698E+02  0.20431064242E+03  0.20915661411E+03  0.51100000000E-03 0. -1.
<mgrwt>
<rscale>  0 0.12500167E+03</rscale>
<asrwt>0</asrwt>
<pdfrwt beam="1">  1        1 0.37463892E-01 0.12500167E+03</pdfrwt>
<pdfrwt beam="2">  1       -1 0.24679253E-02 0.12500167E+03</pdfrwt>
<totfact> 0.52150048E+04</totfact>
</mgrwt>
</event>
<event>
 5    1  0.1316084E-058  0.1250010E+03  0.7818608E-02  0.1235068E+00
         -1   -1    0    0    0  501 -0.00000000000E+00  0.00000000000E+00  0.11656365991E+03  0.11656366000E+03  0.46700000000E-02 0.  1.
          1   -1    0    0  501    0  0.00000000000E+00 -0.00000000000E+00 -0.33512278029E+02  0.33512278354E+02  0.46700000000E-02 0. -1.
         25    2    1    2    0    0  0.00000000000E+00  0.00000000000E+00  0.83051381882E+02  0.15007593836E+03  0.12500102096E+03 0.  0.
        -11    1    3    3    0    0  0.41011964808E+02 -0.46768809587E+02  0.48829727400E+02  0.79079991690E+02  0.51100000000E-03 0.  1.
         11    1    3    3    0    0 -0.41011964808E+02  0.46768809587E+02  0.34221654482E+02  0.70995946668E+02  0.51100000000E-03 0. -1.
<mgrwt>
<rscale>  0 0.12500102E+03</rscale>
<asrwt>0</asrwt>
<pdfrwt beam="2">  1        1 0.51557351E-02 0.12500102E+03</pdfrwt>
<pdfrwt beam="1">  1       -1 0.17932871E-01 0.12500102E+03</pdfrwt>
<totfact> 0.34817948E+04</totfact>
</mgrwt>
</event>
<event>
 5    1  0.8303392E-059  0.1249953E+03  0.7818608E-02  0.1235077E+00
         -1   -1    0    0    0  501 -0.00000000000E+00  0.00000000000E+00  0.23054792567E+02  0.23054793040E+02  0.46700000000E-02 0.  1.
          1   -1    0    0  501    0  0.00000000000E+00 -0.00000000000E+00 -0.16942060071E+03  0.16942060077E+03  0.46700000000E-02 0. -1.
         25    2    1    2    0    0  0.00000000000E+00  0.00000000000E+00 -0.14636580814E+03  0.19247539381E+03  0.12499530963E+03 0.  0.
        -11    1    3    3    0    0 -0.36252224542E+02  0.40183708562E+02 -0.12131440098E+03  0.13283876732E+03  0.51100000000E-03 0.  1.
         11    1    3    3    0    0  0.36252224542E+02 -0.40183708562E+02 -0.25051407159E+02  0.59636626489E+02  0.51100000000E-03 0. -1.
<mgrwt>
<rscale>  0 0.12499531E+03</rscale>
<asrwt>0</asrwt>
<pdfrwt beam="2">  1        1 0.26064707E-01 0.12499531E+03</pdfrwt>
<pdfrwt beam="1">  1       -1 0.35468913E-02 0.12499531E+03</pdfrwt>
<totfact> 0.48281092E+04</totfact>
</mgrwt>
</event>
<event>
 5    1  0.8303392E-059  0.1249971E+03  0.7818608E-02  0.1235074E+00
          1   -1    0    0  501    0  0.00000000000E+00  0.00000000000E+00  0.25173984688E+03  0.25173984693E+03  0.46700000000E-02 0. -1.
         -1   -1    0    0    0  501 -0.00000000000E+00 -0.00000000000E+00 -0.15516301551E+02  0.15516302253E+02  0.46700000000E-02 0.  1.
         25    2    1    2    0    0  0.00000000000E+00  0.00000000000E+00  0.23622354533E+03  0.26725614918E+03  0.12499714359E+03 0.  0.
        -11    1    3    3    0    0  0.22958738752E+02 -0.57823766559E+02  0.10539416635E+03  0.12238718056E+03  0.51100000000E-03 0.  1.
         11    1    3    3    0    0 -0.22958738752E+02  0.57823766559E+02  0.13082937898E+03  0.14486896862E+03  0.51100000000E-03 0. -1.
<mgrwt>
<rscale>  0 0.12499714E+03</rscale>
<asrwt>0</asrwt>
<pdfrwt beam="1">  1        1 0.38729207E-01 0.12499714E+03</pdfrwt>
<pdfrwt beam="2">  1       -1 0.23871234E-02 0.12499714E+03</pdfrwt>
<totfact> 0.52523278E+04</totfact>
</mgrwt>
</event>
<event>
 5    1  0.8303392E-059  0.1250035E+03  0.7818608E-02  0.1235064E+00
          1   -1    0    0  501    0  0.00000000000E+00  0.00000000000E+00  0.17541451592E+02  0.17541452214E+02  0.46700000000E-02 0. -1.
         -1   -1    0    0    0  501 -0.00000000000E+00 -0.00000000000E+00 -0.22269924945E+03  0.22269924950E+03  0.46700000000E-02 0.  1.
         25    2    1    2    0    0  0.00000000000E+00  0.00000000000E+00 -0.20515779786E+03  0.24024070171E+03  0.12500349090E+03 0.  0.
        -11    1    3    3    0    0 -0.59646968132E+02  0.82071575219E+00 -0.66725101578E+02  0.89502366240E+02  0.51100000000E-03 0. -1.
         11    1    3    3    0    0  0.59646968132E+02 -0.82071575219E+00 -0.13843269628E+03  0.15073833547E+03  0.51100000000E-03 0.  1.
<mgrwt>
<rscale>  0 0.12500349E+03</rscale>
<asrwt>0</asrwt>
<pdfrwt beam="1">  1        1 0.26986851E-02 0.12500349E+03</pdfrwt>
<pdfrwt beam="2">  1       -1 0.34261421E-01 0.12500349E+03</pdfrwt>
<totfact> 0.29307502E+04</totfact>
</mgrwt>
</event>
<event>
 5    1  0.8303392E-059  0.1250001E+03  0.7818608E-02  0.1235069E+00
          1   -1    0    0  501    0  0.00000000000E+00  0.00000000000E+00  0.50217859509E+03  0.50217859511E+03  0.46700000000E-02 0. -1.
         -1   -1    0    0    0  501 -0.00000000000E+00 -0.00000000000E+00 -0.77786242660E+01  0.77786256678E+01  0.46700000000E-02 0.  1.
         25    2    1    2    0    0  0.00000000000E+00  0.00000000000E+00  0.49439997082E+03  0.50995722078E+03  0.12500014350E+03 0.  0.
        -11    1    3    3    0    0 -0.31816167871E+02  0.49051073928E+02  0.33732085881E+03  0.34235016895E+03  0.51100000000E-03 0.  1.
         11    1    3    3    0    0  0.31816167871E+02 -0.49051073928E+02  0.15707911201E+03  0.16760705182E+03  0.51100000000E-03 0. -1.
<mgrwt>
<rscale>  0 0.12500014E+03</rscale>
<asrwt>0</asrwt>
<pdfrwt beam="1">  1        1 0.77258251E-01 0.12500014E+03</pdfrwt>
<pdfrwt beam="2">  1       -1 0.11967114E-02 0.12500014E+03</pdfrwt>
<totfact> 0.59598101E+04</totfact>
</mgrwt>
</event>
<event>
 5    1  0.8303392E-059  0.1250003E+03  0.7818608E-02  0.1235069E+00
          1   -1    0    0  501    0  0.00000000000E+00  0.00000000000E+00  0.52950048032E+02  0.52950048238E+02  0.46700000000E-02 0. -1.
         -1   -1    0    0    0  501 -0.00000000000E+00 -0.00000000000E+00 -0.73772676735E+02  0.73772676882E+02  0.46700000000E-02 0.  1.
         25    2    1    2    0    0  0.00000000000E+00  0.00000000000E+00 -0.20822628703E+02  0.12672272512E+03  0.12500026878E+03 0.  0.
        -11    1    3    3    0    0 -0.30060175028E+02  0.48889104118E+02  0.14678618637E+02  0.59238673766E+02  0.51100000000E-03 0. -1.
         11    1    3    3    0    0  0.30060175028E+02 -0.48889104118E+02 -0.35501247340E+02  0.67484051354E+02  0.51100000000E-03 0.  1.
<mgrwt>
<rscale>  0 0.12500027E+03</rscale>
<asrwt>0</asrwt>
<pdfrwt beam="1">  1        1 0.81461612E-02 0.12500027E+03</pdfrwt>
<pdfrwt beam="2">  1       -1 0.11349643E-01 0.12500027E+03</pdfrwt>
<totfact> 0.38304503E+04</totfact>
</mgrwt>
</event>
<event>
 5    1  0.8303392E-059  0.1249961E+03  0.7818608E-02  0.1235075E+00
          1   -1    0    0  501    0  0.00000000000E+00  0.00000000000E+00  0.13418676194E+02  0.13418677007E+02  0.46700000000E-02 0. -1.
         -1   -1    0    0    0  501 -0.00000000000E+00 -0.00000000000E+00 -0.29108726995E+03  0.29108726999E+03  0.46700000000E-02 0.  1.
         25    2    1    2    0    0  0.00000000000E+00  0.00000000000E+00 -0.27766859375E+03  0.30450594699E+03  0.12499609513E+03 0.  0.
        -11    1    3    3    0    0 -0.61472711224E+02 -0.10303506292E+02 -0.14998458205E+03  0.16242053848E+03  0.51100000000E-03 0.  1.
         11    1    3    3    0    0  0.61472711224E+02  0.10303506292E+02 -0.12768401171E+03  0.14208540852E+03  0.51100000000E-03 0. -1.
<mgrwt>
<rscale>  0 0.12499610E+03</rscale>
<asrwt>0</asrwt>
<pdfrwt beam="1">  1        1 0.20644120E-02 0.12499610E+03</pdfrwt>
<pdfrwt beam="2">  1       -1 0.44782652E-01 0.12499610E+03</pdfrwt>
<totfact> 0.26647542E+04</totfact>
</mgrwt>
</event>
<event>
 5    1  0.8303392E-059  0.1250021E+03  0.7818608E-02  0.1235066E+00
         -1   -1    0    0    0  501 -0.00000000000E+00  0.00000000000E+00  0.86081346777E+01  0.86081359445E+01  0.46700000000E-02 0.  1.
          1   -1    0    0  501    0  0.00000000000E+00 -0.00000000000E+00 -0.45380113728E+03  0.45380113730E+03  0.46700000000E-02 0. -1.
         25    2    1    2    0    0  0.00000000000E+00  0.00000000000E+00 -0.44519300260E+03  0.46240927325E+03  0.12500210566E+03 0.  0.
        -11    1    3    3    0    0  0.49703201089E+02 -0.34854205062E+02 -0.16758413418E+03  0.17824047194E+03  0.51100000000E-03 0.  1.
         11    1    3    3    0    0 -0.49703201089E+02  0.34854205062E+02 -0.27760886842E+03  0.28416880131E+03  0.51100000000E-03 0. -1.
<mgrwt>
<rscale>  0 0.12500211E+03</rscale>
<asrwt>0</asrwt>
<pdfrwt beam="2">  1        1 0.69815541E-01 0.12500211E+03</pdfrwt>
<pdfrwt beam="1">  1       -1 0.13243289E-02 0.12500211E+03</pdfrwt>
<totfact> 0.58766926E+04</totfact>
</mgrwt>
</event>
<event>
 5    1  0.8303392E-059  0.1249957E+03  0.7818608E-02  0.1235076E+00
         -1   -1    0    0    0  501 -0.00000000000E+00  0.00000000000E+00  0.20610699952E+02  0.20610700481E+02  0.46700000000E-02 0.  1.
          1   -1    0    0  501    0  0.00000000000E+00 -0.00000000000E+00 -0.18951238661E+03  0.18951238667E+03  0.46700000000E-02 0. -1.
         25    2    1    2    0    0  0.00000000000E+00  0.00000000000E+00 -0.16890168666E+03  0.21012308715E+03  0.12499572791E+03 0.  0.
        -11    1    3    3    0    0 -0.58854441869E+02 -0.11178610712E+02 -0.54512415504E+02  0.80996358619E+02  0.51100000000E-03 0.  1.
         11    1    3    3    0    0  0.58854441869E+02  0.11178610712E+02 -0.11438927115E+03  0.12912672853E+03  0.51100000000E-03 0. -1.
<mgrwt>
<rscale>  0 0.12499573E+03</rscale>
<asrwt>0</asrwt>
<pdfrwt beam="2">  1        1 0.29155751E-01 0.12499573E+03</pdfrwt>
<pdfrwt beam="1">  1       -1 0.31708771E-02 0.12499573E+03</pdfrwt>
<totfact> 0.49441435E+04</totfact>
</mgrwt>
</event>
<event>
 5    1  0.8303392E-059  0.1250024E+03  0.7818608E-02  0.1235065E+00
         -1   -1    0    0    0  501 -0.00000000000E+00  0.00000000000E+00  0.12946621029E+03  0.12946621037E+03  0.46700000000E-02 0.  1.
          1   -1    0    0  501    0  0.00000000000E+00 -0.00000000000E+00 -0.30173136749E+02  0.30173137111E+02  0.46700000000E-02 0. -1.
         25    2    1    2    0    0  0.00000000000E+00  0.00000000000E+00  0.99293073541E+02  0.15963934748E+03  0.12500242723E+03 0.  0.
        -11    1    3    3    0    0  0.44792145439E+02  0.39514380048E+02  0.26143945534E+02  0.65201444861E+02  0.51100000000E-03 0. -1.
         11    1    3    3    0    0 -0.44792145439E+02 -0.39514380048E+02  0.73149128006E+02  0.94437902624E+02  0.51100000000E-03 0.  1.
<mgrwt>
<rscale>  0 0.12500243E+03</rscale>
<asrwt>0</asrwt>
<pdfrwt beam="2">  1        1 0.46420212E-02 0.12500243E+03</pdfrwt>
<pdfrwt beam="1">  1       -1 0.19917878E-01 0.12500243E+03</pdfrwt>
<totfact> 0.33988910E+04</totfact>
</mgrwt>
</event>
<event>
 5    1  0.8303392E-059  0.1250030E+03  0.7818608E-02  0.1235065E+00
          1   -1    0    0  501    0  0.00000000000E+00  0.00000000000E+00  0.47296273612E+03  0.47296273614E+03  0.46700000000E-02 0. -1.
         -1   -1    0    0    0  501 -0.00000000000E+00 -0.00000000000E+00 -0.82594998694E+01  0.82595011896E+01  0.46700000000E-02 0.  1.
         25    2    1    2    0    0  0.00000000000E+00  0.00000000000E+00  0.46470323625E+03  0.48122223733E+03  0.12500297565E+03 0.  0.
        -11    1    3    3    0    0  0.61241659520E+02  0.58202439949E+01  0.18982697948E+03  0.19954623083E+03  0.51100000000E-03 0.  1.
         11    1    3    3    0    0 -0.61241659520E+02 -0.58202439949E+01  0.27487625677E+03  0.28167600650E+03  0.51100000000E-03 0. -1.
<mgrwt>
<rscale>  0 0.12500298E+03</rscale>
<asrwt>0</asrwt>
<pdfrwt beam="1">  1        1 0.72763484E-01 0.12500298E+03</pdfrwt>
<pdfrwt beam="2">  1       -1 0.12706926E-02 0.12500298E+03</pdfrwt>
<totfact> 0.59120793E+04</totfact>
</mgrwt>
</event>
<event>
 5    1  0.8303392E-059  0.1250025E+03  0.7818608E-02  0.1235065E+00
          1   -1    0    0  501    0  0.00000000000E+00  0.00000000000E+00  0.54146927125E+02  0.54146927327E+02  0.46700000000E-02 0. -1.
         -1   -1    0    0    0  501 -0.00000000000E+00 -0.00000000000E+00 -0.72144546554E+02  0.72144546705E+02  0.46700000000E-02 0.  1.
         25    2    1    2    0    0  0.00000000000E+00  0.00000000000E+00 -0.17997619429E+02  0.12629147403E+03  0.12500248841E+03 0.  0.
        -11    1    3    3    0    0  0.52184499635E+00 -0.56189022307E+02  0.18649915408E+02  0.59205556285E+02  0.51100000000E-03 0. -1.
         11    1    3    3    0    0 -0.52184499635E+00  0.56189022307E+02 -0.36647534837E+02  0.67085917747E+02  0.51100000000E-03 0.  1.
<mgrwt>
<rscale>  0 0.12500249E+03</rscale>
<asrwt>0</asrwt>
<pdfrwt beam="1">  1        1 0.83302965E-02 0.12500249E+03</pdfrwt>
<pdfrwt beam="2">  1       -1 0.11099161E-01 0.12500249E+03</pdfrwt>
<totfact> 0.38471771E+04</totfact>
</mgrwt>
</event>
<event>
 5    1  0.8303392E-059  0.1249968E+03  0.7818608E-02  0.1235074E+00
         -1   -1    0    0    0  501 -0.00000000000E+00  0.00000000000E+00  0.12093974135E+03  0.12093974144E+03  0.46700000000E-02 0.  1.
          1   -1    0    0  501    0  0.00000000000E+00 -0.00000000000E+00 -0.32297510941E+02  0.32297511278E+02  0.46700000000E-02 0. -1.
         25    2    1    2    0    0  0.00000000000E+00  0.00000000000E+00  0.88642230409E+02  0.15323725272E+03  0.12499684240E+03 0.  0.
        -11    1    3    3    0    0  0.14056424746E+02 -0.56803118164E+02  0.71232290605E+02  0.92185771868E+02  0.51100000000E-03 0.  1.
         11    1    3    3    0    0 -0.14056424746E+02  0.56803118164E+02  0.17409939804E+02  0.61051480850E+02  0.51100000000E-03 0. -1.
<mgrwt>
<rscale>  0 0.12499684E+03</rscale>
<asrwt>0</asrwt>
<pdfrwt beam="2">  1        1 0.49688478E-02 0.12499684E+03</pdfrwt>
<pdfrwt beam="1">  1       -1 0.18606114E-01 0.12499684E+03</pdfrwt>
<totfact> 0.34532478E+04</totfact>
</mgrwt>
</event>
<event>
 5    1  0.8303392E-059  0.1249944E+03  0.7818608E-02  0.1235078E+00
          1   -1    0    0  501    0  0.00000000000E+00  0.00000000000E+00  0.48374225913E+03  0.48374225915E+03  0.46700000000E-02 0. -1.
         -1   -1    0    0    0  501 -0.00000000000E+00 -0.00000000000E+00 -0.80743429232E+01  0.80743442737E+01  0.46700000000E-02 0.  1.
         25    2    1    2    0    0  0.00000000000E+00  0.00000000000E+00  0.47566791621E+03  0.49181660343E+03  0.12499441946E+03 0.  0.
        -11    1    3    3    0    0  0.60908664469E+02 -0.13554011098E+02  0.25164730678E+03  0.25926809220E+03  0.51100000000E-03 0.  1.
         11    1    3    3    0    0 -0.60908664469E+02  0.13554011098E+02  0.22402060943E+03  0.23254851122E+03  0.51100000000E-03 0. -1.
<mgrwt>
<rscale>  0 0.12499442E+03</rscale>
<asrwt>0</asrwt>
<pdfrwt beam="1">  1        1 0.74421874E-01 0.12499442E+03</pdfrwt>
<pdfrwt beam="2">  1       -1 0.12422069E-02 0.12499442E+03</pdfrwt>
<totfact> 0.59315976E+04</totfact>
</mgrwt>
</event>
<event>
 5    1  0.8303392E-059  0.1249986E+03  0.7818608E-02  0.1235071E+00
         -1   -1    0    0    0  501 -0.00000000000E+00  0.00000000000E+00  0.36881827628E+02  0.36881827924E+02  0.46700000000E-02 0. -1.
          1   -1    0    0  501    0  0.00000000000E+00 -0.00000000000E+00 -0.10591024293E+03  0.10591024304E+03  0.46700000000E-02 0.  1.
         25    2    1    2    0    0  0.00000000000E+00  0.00000000000E+00 -0.69028415306E+02  0.14279207096E+03  0.12499861363E+03 0.  0.
        -11    1    3    3    0    0  0.40538682506E+02 -0.45842760526E+02 -0.49018889032E+02  0.78407875587E+02  0.51100000000E-03 0. -1.
         11    1    3    3    0    0 -0.40538682506E+02  0.45842760526E+02 -0.20009526274E+02  0.64384195374E+02  0.51100000000E-03 0.  1.
<mgrwt>
<rscale>  0 0.12499861E+03</rscale>
<asrwt>0</asrwt>
<pdfrwt beam="2">  1        1 0.16293883E-01 0.12499861E+03</pdfrwt>
<pdfrwt beam="1">  1       -1 0.56741274E-02 0.12499861E+03</pdfrwt>
<totfact> 0.43851489E+04</totfact>
</mgrwt>
</event>
<event>
 5    1  0.8303392E-059  0.1249931E+03  0.7818608E-02  0.1235080E+00
         -1   -1    0    0    0  501 -0.00000000000E+00  0.00000000000E+00  0.80571809383E+02  0.80571809519E+02  0.46700000000E-02 0.  1.
          1   -1    0    0  501    0  0.00000000000E+00 -0.00000000000E+00 -0.48476274212E+02  0.48476274437E+02  0.46700000000E-02 0. -1.
         25    2    1    2    0    0  0.00000000000E+00  0.00000000000E+00  0.32095535171E+02  0.12904808396E+03  0.12499313819E+03 0.  0.
        -11    1    3    3    0    0  0.49433305860E+02 -0.38131184345E+02  0.13094515974E+02  0.63789539085E+02  0.51100000000E-03 0. -1.
         11    1    3    3    0    0 -0.49433305860E+02  0.38131184345E+02  0.19001019197E+02  0.65258544870E+02  0.51100000000E-03 0.  1.
<mgrwt>
<rscale>  0 0.12499314E+03</rscale>
<asrwt>0</asrwt>
<pdfrwt beam="2">  1        1 0.74578883E-02 0.12499314E+03</pdfrwt>
<pdfrwt beam="1">  1       -1 0.12395663E-01 0.12499314E+03</pdfrwt>
<totfact> 0.37643894E+04</totfact>
</mgrwt>
</event>
<event>
 5    1  0.8452255E-059  0.1250007E+03  0.7818608E-02  0.1235068E+00
         -1   -1    0    0    0  501 -0.00000000000E+00  0.00000000000E+00  0.10789532161E+02  0.10789533171E+02  0.46700000000E-02 0.  1.
          1   -1    0    0  501    0  0.00000000000E+00 -0.00000000000E+00 -0.36204503835E+03  0.36204503838E+03  0.46700000000E-02 0. -1.
         25    2    1    2    0    0  0.00000000000E+00  0.00000000000E+00 -0.35125550619E+03  0.37283457155E+03  0.12500074846E+03 0.  0.
        -11    1    3    3    0    0 -0.26226875928E+00  0.60114149798E+02 -0.12461495930E+03  0.13835703044E+03  0.51100000000E-03 0.  1.
         11    1    3    3    0    0  0.26226875928E+00 -0.60114149798E+02 -0.22664054689E+03  0.23447754111E+03  0.51100000000E-03 0. -1.
<mgrwt>
<rscale>  0 0.12500075E+03</rscale>
<asrwt>0</asrwt>
<pdfrwt beam="2">  1        1 0.55699227E-01 0.12500075E+03</pdfrwt>
<pdfrwt beam="1">  1       -1 0.16599284E-02 0.12500075E+03</pdfrwt>
<totfact> 0.56538097E+04</totfact>
</mgrwt>
</event>
<event>
 5    1  0.8303392E-059  0.1250005E+03  0.7818608E-02  0.1235069E+00
         -1   -1    0    0    0  501 -0.00000000000E+00  0.00000000000E+00  0.27549072664E+03  0.27549072668E+03  0.46700000000E-02 0.  1.
          1   -1    0    0  501    0  0.00000000000E+00 -0.00000000000E+00 -0.14179354867E+02  0.14179355636E+02  0.46700000000E-02 0. -1.
         25    2    1    2    0    0  0.00000000000E+00  0.00000000000E+00  0.26131137177E+03  0.28967008232E+03  0.12500049428E+03 0.  0.
        -11    1    3    3    0    0 -0.49388038155E+02 -0.36221977193E+02  0.15951308149E+03  0.17086729679E+03  0.51100000000E-03 0.  1.
         11    1    3    3    0    0  0.49388038155E+02  0.36221977193E+02  0.10179829028E+03  0.11880278553E+03  0.51100000000E-03 0. -1.
<mgrwt>
<rscale>  0 0.12500049E+03</rscale>
<asrwt>0</asrwt>
<pdfrwt beam="2">  1        1 0.21814391E-02 0.12500049E+03</pdfrwt>
<pdfrwt beam="1">  1       -1 0.42383192E-01 0.12500049E+03</pdfrwt>
<totfact> 0.27216263E+04</totfact>
</mgrwt>
</event>
<event>
 5    1  0.8303392E-059  0.1249996E+03  0.7818608E-02  0.1235070E+00
          1   -1    0    0  501    0  0.00000000000E+00  0.00000000000E+00  0.13710686855E+02  0.13710687651E+02  0.46700000000E-02 0. -1.
         -1   -1    0    0    0  501 -0.00000000000E+00 -0.00000000000E+00 -0.28490371968E+03  0.28490371972E+03  0.46700000000E-02 0.  1.
         25    2    1    2    0    0  0.00000000000E+00  0.00000000000E+00 -0.27119303282E+03  0.29861440737E+03  0.12499961294E+03 0.  0.
        -11    1    3    3    0    0 -0.31496920408E+02 -0.53872933263E+02 -0.14382942293E+03  0.15678409305E+03  0.51100000000E-03 0.  1.
         11    1    3    3    0    0  0.31496920408E+02  0.53872933263E+02 -0.12736360990E+03  0.14183031432E+03  0.51100000000E-03 0. -1.
<mgrwt>
<rscale>  0 0.12499961E+03</rscale>
<asrwt>0</asrwt>
<pdfrwt beam="1">  1        1 0.21093367E-02 0.12499961E+03</pdfrwt>
<pdfrwt beam="2">  1       -1 0.43831337E-01 0.12499961E+03</pdfrwt>
<totfact> 0.26869700E+04</totfact>
</mgrwt>
</event>
<event>
 5    1  0.8303392E-059  0.1250021E+03  0.7818608E-02  0.1235066E+00
          1   -1    0    0  501    0  0.00000000000E+00  0.00000000000E+00  0.78346216793E+02  0.78346216932E+02  0.46700000000E-02 0.  1.
         -1   -1    0    0    0  501 -0.00000000000E+00 -0.00000000000E+00 -0.49860501069E+02  0.49860501288E+02  0.46700000000E-02 0. -1.
         25    2    1    2    0    0  0.00000000000E+00  0.00000000000E+00  0.28485715724E+02  0.12820671822E+03  0.12500210637E+03 0.  0.
        -11    1    3    3    0    0 -0.47445721158E+02  0.20078725091E+02 -0.22049748747E+02  0.56039656294E+02  0.51100000000E-03 0. -1.
         11    1    3    3    0    0  0.47445721158E+02 -0.20078725091E+02  0.50535464471E+02  0.72167061926E+02  0.51100000000E-03 0.  1.
<mgrwt>
<rscale>  0 0.12500211E+03</rscale>
<asrwt>0</asrwt>
<pdfrwt beam="1">  1        1 0.12053264E-01 0.12500211E+03</pdfrwt>
<pdfrwt beam="2">  1       -1 0.76708464E-02 0.12500211E+03</pdfrwt>
<totfact> 0.41335351E+04</totfact>
</mgrwt>
</event>
<event>
 5    1  0.8303392E-059  0.1250174E+03  0.7818608E-02  0.1235042E+00
         -1   -1    0    0    0  501 -0.00000000000E+00  0.00000000000E+00  0.17463914352E+02  0.17463914977E+02  0.46700000000E-02 0.  1.
          1   -1    0    0  501    0  0.00000000000E+00 -0.00000000000E+00 -0.22373762652E+03  0.22373762657E+03  0.46700000000E-02 0. -1.
         25    2    1    2    0    0  0.00000000000E+00  0.00000000000E+00 -0.20627371216E+03  0.24120154154E+03  0.12501735604E+03 0.  0.
        -11    1    3    3    0    0  0.50665632781E+02 -0.36042108032E+02 -0.11553504196E+03  0.13120360444E+03  0.51100000000E-03 0. -1.
         11    1    3    3    0    0 -0.50665632781E+02  0.36042108032E+02 -0.90738670207E+02  0.10999793711E+03  0.51100000000E-03 0.  1.
<mgrwt>
<rscale>  0 0.12501736E+03</rscale>
<asrwt>0</asrwt>
<pdfrwt beam="2">  1        1 0.34421171E-01 0.12501736E+03</pdfrwt>
<pdfrwt beam="1">  1       -1 0.26867563E-02 0.12501736E+03</pdfrwt>
<totfact> 0.51200885E+04</totfact>
</mgrwt>
</event>
<event>
 5    1  0.8303392E-059  0.1249989E+03  0.7818608E-02  0.1235071E+00
          1   -1    0    0  501    0  0.00000000000E+00  0.00000000000E+00  0.79143259724E+01  0.79143273502E+01  0.46700000000E-02 0. -1.
         -1   -1    0    0    0  501 -0.00000000000E+00 -0.00000000000E+00 -0.49355845424E+03  0.49355845427E+03  0.46700000000E-02 0.  1.
         25    2    1    2    0    0  0.00000000000E+00  0.00000000000E+00 -0.48564412827E+03  0.50147278162E+03  0.12499892550E+03 0.  0.
        -11    1    3    3    0    0 -0.60348189167E+02 -0.88113481938E+01 -0.29762986104E+03  0.30381421621E+03  0.51100000000E-03 0.  1.
         11    1    3    3    0    0  0.60348189167E+02  0.88113481938E+01 -0.18801426724E+03  0.19765856540E+03  0.51100000000E-03 0. -1.
<mgrwt>
<rscale>  0 0.12499893E+03</rscale>
<asrwt>0</asrwt>
<pdfrwt beam="1">  1        1 0.12175891E-02 0.12499893E+03</pdfrwt>
<pdfrwt beam="2">  1       -1 0.75932046E-01 0.12499893E+03</pdfrwt>
<totfact> 0.20531121E+04</totfact>
</mgrwt>
</event>
<event>
 5    1  0.9269649E-059  0.1249996E+03  0.7818608E-02  0.1235070E+00
          1   -1    0    0  501    0  0.00000000000E+00  0.00000000000E+00  0.15475674158E+03  0.15475674165E+03  0.46700000000E-02 0. -1.
         -1   -1    0    0    0  501 -0.00000000000E+00 -0.00000000000E+00 -0.25241049248E+02  0.25241049680E+02  0.46700000000E-02 0.  1.
         25    2    1    2    0    0  0.00000000000E+00  0.00000000000E+00  0.12951569233E+03  0.17999779133E+03  0.12499956129E+03 0.  0.
        -11    1    3    3    0    0  0.20433213622E+02 -0.56871044720E+02  0.41790583023E+02  0.73473020736E+02  0.51100000000E-03 0. -1.
         11    1    3    3    0    0 -0.20433213622E+02  0.56871044720E+02  0.87725109307E+02  0.10652477059E+03  0.51100000000E-03 0.  1.
<mgrwt>
<rscale>  0 0.12499956E+03</rscale>
<asrwt>0</asrwt>
<pdfrwt beam="1">  1        1 0.23808729E-01 0.12499956E+03</pdfrwt>
<pdfrwt beam="2">  1       -1 0.38832384E-02 0.12499956E+03</pdfrwt>
<totfact> 0.47370020E+04</totfact>
</mgrwt>
</event>
<event>
 5    1  0.8303392E-059  0.1249995E+03  0.7818608E-02  0.1235070E+00
          1   -1    0    0  501    0  0.00000000000E+00  0.00000000000E+00  0.49172761218E+02  0.49172761439E+02  0.46700000000E-02 0.  1.
         -1   -1    0    0    0  501 -0.00000000000E+00 -0.00000000000E+00 -0.79438712302E+02  0.79438712440E+02  0.46700000000E-02 0. -1.
         25    2    1    2    0    0  0.00000000000E+00  0.00000000000E+00 -0.30265951085E+02  0.12861147388E+03  0.12499953367E+03 0.  0.
        -11    1    3    3    0    0  0.40321798245E+02 -0.17526432732E+02 -0.60837228139E+02  0.75061252227E+02  0.51100000000E-03 0. -1.
         11    1    3    3    0    0 -0.40321798245E+02  0.17526432732E+02  0.30571277054E+02  0.53550221652E+02  0.51100000000E-03 0.  1.
<mgrwt>
<rscale>  0 0.12499953E+03</rscale>
<asrwt>0</asrwt>
<pdfrwt beam="1">  1        1 0.75650402E-02 0.12499953E+03</pdfrwt>
<pdfrwt beam="2">  1       -1 0.12221340E-01 0.12499953E+03</pdfrwt>
<totfact> 0.37745872E+04</totfact>
</mgrwt>
</event>
<event>
 5    1  0.8303392E-059  0.1249997E+03  0.7818608E-02  0.1235070E+00
         -1   -1    0    0    0  501 -0.00000000000E+00  0.00000000000E+00  0.83135032204E+01  0.83135045320E+01  0.46700000000E-02 0. -1.
          1   -1    0    0  501    0  0.00000000000E+00 -0.00000000000E+00 -0.46986557647E+03  0.46986557650E+03  0.46700000000E-02 0.  1.
         25    2    1    2    0    0  0.00000000000E+00  0.00000000000E+00 -0.46155207325E+03  0.47817908103E+03  0.12499966884E+03 0.  0.
        -11    1    3    3    0    0  0.53245851403E+02  0.26306167913E+02 -0.30525870830E+03  0.31098233737E+03  0.51100000000E-03 0. -1.
         11    1    3    3    0    0 -0.53245851403E+02 -0.26306167913E+02 -0.15629336495E+03  0.16719674366E+03  0.51100000000E-03 0.  1.
<mgrwt>
<rscale>  0 0.12499967E+03</rscale>
<asrwt>0</asrwt>
<pdfrwt beam="2">  1        1 0.72286991E-01 0.12499967E+03</pdfrwt>
<pdfrwt beam="1">  1       -1 0.12790010E-02 0.12499967E+03</pdfrwt>
<totfact> 0.59070116E+04</totfact>
</mgrwt>
</event>
<event>
 5    1  0.8303392E-059  0.1249993E+03  0.7818608E-02  0.1235070E+00
          1   -1    0    0  501    0  0.00000000000E+00  0.00000000000E+00  0.21795648098E+02  0.21795648598E+02  0.46700000000E-02 0. -1.
         -1   -1    0    0    0  501 -0.00000000000E+00 -0.00000000000E+00 -0.17921944585E+03  0.17921944591E+03  0.46700000000E-02 0.  1.
         25    2    1    2    0    0  0.00000000000E+00  0.00000000000E+00 -0.15742379775E+03  0.20101509451E+03  0.12499926448E+03 0.  0.
        -11    1    3    3    0    0 -0.36202022310E+02  0.48396363425E+02 -0.53112323596E+02  0.80459389322E+02  0.51100000000E-03 0. -1.
         11    1    3    3    0    0  0.36202022310E+02 -0.48396363425E+02 -0.10431147416E+03  0.12055570519E+03  0.51100000000E-03 0.  1.
<mgrwt>
<rscale>  0 0.12499926E+03</rscale>
<asrwt>0</asrwt>
<pdfrwt beam="1">  1        1 0.33531768E-02 0.12499926E+03</pdfrwt>
<pdfrwt beam="2">  1       -1 0.27572221E-01 0.12499926E+03</pdfrwt>
<totfact> 0.31283570E+04</totfact>
</mgrwt>
</event>
<event>
 5    1  0.8303392E-059  0.1250003E+03  0.7818608E-02  0.1235069E+00
         -1   -1    0    0    0  501 -0.00000000000E+00  0.00000000000E+00  0.38486813375E+03  0.38486813378E+03  0.46700000000E-02 0.  1.
          1   -1    0    0  501    0  0.00000000000E+00 -0.00000000000E+00 -0.10149624439E+02  0.10149625514E+02  0.46700000000E-02 0. -1.
         25    2    1    2    0    0  0.00000000000E+00  0.00000000000E+00  0.37471850931E+03  0.39501775929E+03  0.12500027574E+03 0.  0.
        -11    1    3    3    0    0 -0.52154218948E+01  0.62276574345E+02  0.18472495264E+03  0.19500994966E+03  0.51100000000E-03 0.  1.
         11    1    3    3    0    0  0.52154218948E+01 -0.62276574345E+02  0.18999355667E+03  0.20000780963E+03  0.51100000000E-03 0. -1.
<mgrwt>
<rscale>  0 0.12500028E+03</rscale>
<asrwt>0</asrwt>
<pdfrwt beam="2">  1        1 0.15614812E-02 0.12500028E+03</pdfrwt>
<pdfrwt beam="1">  1       -1 0.59210467E-01 0.12500028E+03</pdfrwt>
<totfact> 0.23556841E+04</totfact>
</mgrwt>
</event>
<event>
 5    1  0.8303392E-059  0.1250009E+03  0.7818608E-02  0.1235068E+00
         -1   -1    0    0    0  501 -0.00000000000E+00  0.00000000000E+00  0.93491550682E+01  0.93491562346E+01  0.46700000000E-02 0.  1.
          1   -1    0    0  501    0  0.00000000000E+00 -0.00000000000E+00 -0.41782461707E+03  0.41782461710E+03  0.46700000000E-02 0. -1.
         25    2    1    2    0    0  0.00000000000E+00  0.00000000000E+00 -0.40847546200E+03  0.42717377333E+03  0.12500091825E+03 0.  0.
        -11    1    3    3    0    0  0.27122510245E+02 -0.55304410830E+02 -0.24041969953E+03  0.24818509291E+03  0.51100000000E-03 0.  1.
         11    1    3    3    0    0 -0.27122510245E+02  0.55304410830E+02 -0.16805576247E+03  0.17898868042E+03  0.51100000000E-03 0. -1.
<mgrwt>
<rscale>  0 0.12500092E+03</rscale>
<asrwt>0</asrwt>
<pdfrwt beam="2">  1        1 0.64280696E-01 0.12500092E+03</pdfrwt>
<pdfrwt beam="1">  1       -1 0.14383320E-02 0.12500092E+03</pdfrwt>
<totfact> 0.58001571E+04</totfact>
</mgrwt>
</event>
<event>
 5    1  0.8303392E-059  0.1249935E+03  0.7818608E-02  0.1235079E+00
         -1   -1    0    0    0  501 -0.00000000000E+00  0.00000000000E+00  0.13693653096E+02  0.13693653892E+02  0.46700000000E-02 0.  1.
          1   -1    0    0  501    0  0.00000000000E+00 -0.00000000000E+00 -0.28523025360E+03  0.28523025363E+03  0.46700000000E-02 0. -1.
         25    2    1    2    0    0  0.00000000000E+00  0.00000000000E+00 -0.27153660050E+03  0.29892390753E+03  0.12499350815E+03 0.  0.
        -11    1    3    3    0    0 -0.36110706746E+01  0.60966856109E+02 -0.10405506533E+03  0.12065427467E+03  0.51100000000E-03 0.  1.
         11    1    3    3    0    0  0.36110706746E+01 -0.60966856109E+02 -0.16748153517E+03  0.17826963286E+03  0.51100000000E-03 0. -1.
<mgrwt>
<rscale>  0 0.12499351E+03</rscale>
<asrwt>0</asrwt>
<pdfrwt beam="2">  1        1 0.43881573E-01 0.12499351E+03</pdfrwt>
<pdfrwt beam="1">  1       -1 0.21067161E-02 0.12499351E+03</pdfrwt>
<totfact> 0.53927233E+04</totfact>
</mgrwt>
</event>
<event>
 5    1  0.8303392E-059  0.1250043E+03  0.7818608E-02  0.1235063E+00
         -1   -1    0    0    0  501 -0.00000000000E+00  0.00000000000E+00  0.11427490784E+02  0.11427491738E+02  0.46700000000E-02 0.  1.
          1   -1    0    0  501    0  0.00000000000E+00 -0.00000000000E+00 -0.34185255697E+03  0.34185255701E+03  0.46700000000E-02 0. -1.
         25    2    1    2    0    0  0.00000000000E+00  0.00000000000E+00 -0.33042506619E+03  0.35328004874E+03  0.12500427382E+03 0.  0.
        -11    1    3    3    0    0 -0.48196061256E+02 -0.26494249714E+02 -0.81294072208E+02  0.98150556621E+02  0.51100000000E-03 0.  1.
         11    1    3    3    0    0  0.48196061256E+02  0.26494249714E+02 -0.24913099398E+03  0.25512949212E+03  0.51100000000E-03 0. -1.
<mgrwt>
<rscale>  0 0.12500427E+03</rscale>
<asrwt>0</asrwt>
<pdfrwt beam="2">  1        1 0.52592693E-01 0.12500427E+03</pdfrwt>
<pdfrwt beam="1">  1       -1 0.17580758E-02 0.12500427E+03</pdfrwt>
<totfact> 0.55919004E+04</totfact>
</mgrwt>
</event>
<event>
 5    1  0.8303392E-059  0.1249966E+03  0.7818608E-02  0.1235075E+00
         -1   -1    0    0    0  501 -0.00000000000E+00  0.00000000000E+00  0.52637890839E+02  0.52637891046E+02  0.46700000000E-02 0.  1.
          1   -1    0    0  501    0  0.00000000000E+00 -0.00000000000E+00 -0.74205855104E+02  0.74205855251E+02  0.46700000000E-02 0. -1.
         25    2    1    2    0    0  0.00000000000E+00  0.00000000000E+00 -0.21567964266E+02  0.12684374630E+03  0.12499663552E+03 0.  0.
        -11    1    3    3    0    0  0.54475131892E+02 -0.17310469380E+02  0.14864950400E+02  0.59060639138E+02  0.51100000000E-03 0.  1.
         11    1    3    3    0    0 -0.54475131892E+02  0.17310469380E+02 -0.36432914666E+02  0.67783107159E+02  0.51100000000E-03 0. -1.
<mgrwt>
<rscale>  0 0.12499664E+03</rscale>
<asrwt>0</asrwt>
<pdfrwt beam="2">  1        1 0.11416285E-01 0.12499664E+03</pdfrwt>
<pdfrwt beam="1">  1       -1 0.80981371E-02 0.12499664E+03</pdfrwt>
<totfact> 0.40908598E+04</totfact>
</mgrwt>
</event>
<event>
 5    1  0.8644719E-059  0.1250019E+03  0.7818608E-02  0.1235066E+00
         -1   -1    0    0    0  501 -0.00000000000E+00  0.00000000000E+00  0.62084958380E+02  0.62084958555E+02  0.46700000000E-02 0.  1.
          1   -1    0    0  501    0  0.00000000000E+00 -0.00000000000E+00 -0.62919709885E+02  0.62919710059E+02  0.46700000000E-02 0. -1.
         25    2    1    2    0    0  0.00000000000E+00  0.00000000000E+00 -0.83475150583E+00  0.12500466861E+03  0.12500188145E+03 0.  0.
        -11    1    3    3    0    0  0.65492440453E+01  0.59666861736E+02  0.16999688622E+02  0.62386027285E+02  0.51100000000E-03 0.  1.
         11    1    3    3    0    0 -0.65492440453E+01 -0.59666861736E+02 -0.17834440128E+02  0.62618641329E+02  0.51100000000E-03 0. -1.
<mgrwt>
<rscale>  0 0.12500188E+03</rscale>
<asrwt>0</asrwt>
<pdfrwt beam="2">  1        1 0.96799554E-02 0.12500188E+03</pdfrwt>
<pdfrwt beam="1">  1       -1 0.95515321E-02 0.12500188E+03</pdfrwt>
<totfact> 0.39617966E+04</totfact>
</mgrwt>
</event>
<event>
 5    1  0.8303392E-059  0.1249985E+03  0.7818608E-02  0.1235072E+00
         -1   -1    0    0    0  501 -0.00000000000E+00  0.00000000000E+00  0.67928941654E+02  0.67928941814E+02  0.46700000000E-02 0.  1.
          1   -1    0    0  501    0  0.00000000000E+00 -0.00000000000E+00 -0.57503603971E+02  0.57503604160E+02  0.46700000000E-02 0. -1.
         25    2    1    2    0    0  0.00000000000E+00  0.00000000000E+00  0.10425337683E+02  0.12543254597E+03  0.12499854369E+03 0.  0.
        -11    1    3    3    0    0  0.43564461440E+02  0.39925444203E+02  0.25636606237E+02  0.64413810436E+02  0.51100000000E-03 0.  1.
         11    1    3    3    0    0 -0.43564461440E+02 -0.39925444203E+02 -0.15211268554E+02  0.61018735538E+02  0.51100000000E-03 0. -1.
<mgrwt>
<rscale>  0 0.12499854E+03</rscale>
<asrwt>0</asrwt>
<pdfrwt beam="2">  1        1 0.88467084E-02 0.12499854E+03</pdfrwt>
<pdfrwt beam="1">  1       -1 0.10450606E-01 0.12499854E+03</pdfrwt>
<totfact> 0.38932187E+04</totfact>
</mgrwt>
</event>
<event>
 5    1  0.8303392E-059  0.1249953E+03  0.7818608E-02  0.1235077E+00
          1   -1    0    0  501    0  0.00000000000E+00  0.00000000000E+00  0.99676836758E+01  0.99676847698E+01  0.46700000000E-02 0. -1.
         -1   -1    0    0    0  501 -0.00000000000E+00 -0.00000000000E+00 -0.39186209652E+03  0.39186209654E+03  0.46700000000E-02 0.  1.
         25    2    1    2    0    0  0.00000000000E+00  0.00000000000E+00 -0.38189441284E+03  0.40182978131E+03  0.12499532228E+03 0.  0.
        -11    1    3    3    0    0 -0.52031631917E+02  0.32381688240E+02 -0.15156238679E+03  0.16348401005E+03  0.51100000000E-03 0.  1.
         11    1    3    3    0    0  0.52031631917E+02 -0.32381688240E+02 -0.23033202605E+03  0.23834577126E+03  0.51100000000E-03 0. -1.
<mgrwt>
<rscale>  0 0.12499532E+03</rscale>
<asrwt>0</asrwt>
<pdfrwt beam="1">  1        1 0.15334902E-02 0.12499532E+03</pdfrwt>
<pdfrwt beam="2">  1       -1 0.60286465E-01 0.12499532E+03</pdfrwt>
<totfact> 0.23348450E+04</totfact>
</mgrwt>
</event>
<event>
 5    1  0.8303392E-059  0.1250025E+03  0.7818608E-02  0.1235065E+00
          1   -1    0    0  501    0  0.00000000000E+00  0.00000000000E+00  0.34473663697E+03  0.34473663700E+03  0.46700000000E-02 0. -1.
         -1   -1    0    0    0  501 -0.00000000000E+00 -0.00000000000E+00 -0.11331570671E+02  0.11331571633E+02  0.46700000000E-02 0.  1.
         25    2    1    2    0    0  0.00000000000E+00  0.00000000000E+00  0.33340506630E+03  0.35606820863E+03  0.12500252384E+03 0.  0.
        -11    1    3    3    0    0 -0.61635105319E+02 -0.48434119315E+01  0.14058593614E+03  0.15357978476E+03  0.51100000000E-03 0.  1.
         11    1    3    3    0    0  0.61635105319E+02  0.48434119315E+01  0.19281913016E+03  0.20248842388E+03  0.51100000000E-03 0. -1.
<mgrwt>
<rscale>  0 0.12500252E+03</rscale>
<asrwt>0</asrwt>
<pdfrwt beam="1">  1        1 0.53036396E-01 0.12500252E+03</pdfrwt>
<pdfrwt beam="2">  1       -1 0.17433190E-02 0.12500252E+03</pdfrwt>
<totfact> 0.56012013E+04</totfact>
</mgrwt>
</event>
<event>
 5    1  0.8303392E-059  0.1249940E+03  0.7818608E-02  0.1235079E+00
         -1   -1    0    0    0  501 -0.00000000000E+00  0.00000000000E+00  0.76185081984E+01  0.76185096297E+01  0.46700000000E-02 0.  1.
          1   -1    0    0  501    0  0.00000000000E+00 -0.00000000000E+00 -0.51268237762E+03  0.51268237764E+03  0.46700000000E-02 0. -1.
         25    2    1    2    0    0  0.00000000000E+00  0.00000000000E+00 -0.50506386942E+03  0.52030088727E+03  0.12499400426E+03 0.  0.
        -11    1    3    3    0    0 -0.43976004070E+02  0.44390040109E+02 -0.25764818288E+03  0.26511686241E+03  0.51100000000E-03 0.  1.
         11    1    3    3    0    0  0.43976004070E+02 -0.44390040109E+02 -0.24741568654E+03  0.25518402485E+03  0.51100000000E-03 0. -1.
<mgrwt>
<rscale>  0 0.12499400E+03</rscale>
<asrwt>0</asrwt>
<pdfrwt beam="2">  1        1 0.78874185E-01 0.12499400E+03</pdfrwt>
<pdfrwt beam="1">  1       -1 0.11720787E-02 0.12499400E+03</pdfrwt>
<totfact> 0.59757142E+04</totfact>
</mgrwt>
</event>
<event>
 5    1  0.8303392E-059  0.1249998E+03  0.7818608E-02  0.1235070E+00
          1   -1    0    0  501    0  0.00000000000E+00  0.00000000000E+00  0.18575071629E+02  0.18575072216E+02  0.46700000000E-02 0. -1.
         -1   -1    0    0    0  501 -0.00000000000E+00 -0.00000000000E+00 -0.21029459283E+03  0.21029459288E+03  0.46700000000E-02 0.  1.
         25    2    1    2    0    0  0.00000000000E+00  0.00000000000E+00 -0.19171952120E+03  0.22886966510E+03  0.12499979517E+03 0.  0.
        -11    1    3    3    0    0 -0.19367415164E+02  0.58333640327E+02 -0.75118379439E+02  0.97060194178E+02  0.51100000000E-03 0.  1.
         11    1    3    3    0    0  0.19367415164E+02 -0.58333640327E+02 -0.11660114176E+03  0.13180947092E+03  0.51100000000E-03 0. -1.
<mgrwt>
<rscale>  0 0.12499980E+03</rscale>
<asrwt>0</asrwt>
<pdfrwt beam="1">  1        1 0.28577035E-02 0.12499980E+03</pdfrwt>
<pdfrwt beam="2">  1       -1 0.32353013E-01 0.12499980E+03</pdfrwt>
<totfact> 0.29845399E+04</totfact>
</mgrwt>
</event>
<event>
 5    1  0.8303392E-059  0.1249982E+03  0.7818608E-02  0.1235072E+00
          1   -1    0    0  501    0  0.00000000000E+00  0.00000000000E+00  0.10217443925E+03  0.10217443936E+03  0.46700000000E-02 0. -1.
         -1   -1    0    0    0  501 -0.00000000000E+00 -0.00000000000E+00 -0.38230073040E+02  0.38230073325E+02  0.46700000000E-02 0.  1.
         25    2    1    2    0    0  0.00000000000E+00  0.00000000000E+00  0.63944366214E+02  0.14040451269E+03  0.12499818083E+03 0.  0.
        -11    1    3    3    0    0  0.54037271909E+02  0.11637867096E+02 -0.78886817921E+00  0.55281904989E+02  0.51100000000E-03 0.  1.
         11    1    3    3    0    0 -0.54037271909E+02 -0.11637867096E+02  0.64733234393E+02  0.85122607697E+02  0.51100000000E-03 0. -1.
<mgrwt>
<rscale>  0 0.12499818E+03</rscale>
<asrwt>0</asrwt>
<pdfrwt beam="1">  1        1 0.15719144E-01 0.12499818E+03</pdfrwt>
<pdfrwt beam="2">  1       -1 0.58815500E-02 0.12499818E+03</pdfrwt>
<totfact> 0.43541186E+04</totfact>
</mgrwt>
</event>
<event>
 5    1  0.8303392E-059  0.1250117E+03  0.7818608E-02  0.1235051E+00
         -1   -1    0    0    0  501 -0.00000000000E+00  0.00000000000E+00  0.28192792224E+03  0.28192792228E+03  0.46700000000E-02 0. -1.
          1   -1    0    0  501    0  0.00000000000E+00 -0.00000000000E+00 -0.13858095255E+02  0.13858096042E+02  0.46700000000E-02 0.  1.
         25    2    1    2    0    0  0.00000000000E+00  0.00000000000E+00  0.26806982699E+03  0.29578601833E+03  0.12501174543E+03 0.  0.
        -11    1    3    3    0    0  0.30028476464E+02 -0.53162498617E+02  0.10237703541E+03  0.11920158572E+03  0.51100000000E-03 0.  1.
         11    1    3    3    0    0 -0.30028476464E+02  0.53162498617E+02  0.16569279158E+03  0.17658443261E+03  0.51100000000E-03 0. -1.
<mgrwt>
<rscale>  0 0.12501175E+03</rscale>
<asrwt>0</asrwt>
<pdfrwt beam="2">  1        1 0.21320150E-02 0.12501175E+03</pdfrwt>
<pdfrwt beam="1">  1       -1 0.43373521E-01 0.12501175E+03</pdfrwt>
<totfact> 0.26971680E+04</totfact>
</mgrwt>
</event>
<event>
 5    1  0.8303392E-059  0.1249969E+03  0.7818608E-02  0.1235074E+00
         -1   -1    0    0    0  501 -0.00000000000E+00  0.00000000000E+00  0.19678177825E+02  0.19678178379E+02  0.46700000000E-02 0.  1.
          1   -1    0    0  501    0  0.00000000000E+00 -0.00000000000E+00 -0.19849699432E+03  0.19849699437E+03  0.46700000000E-02 0. -1.
         25    2    1    2    0    0  0.00000000000E+00  0.00000000000E+00 -0.17881881649E+03  0.21817517275E+03  0.12499694746E+03 0.  0.
        -11    1    3    3    0    0  0.34962354611E+02  0.36087753026E+02 -0.24536932997E+02  0.55917378690E+02  0.51100000000E-03 0.  1.
         11    1    3    3    0    0 -0.34962354611E+02 -0.36087753026E+02 -0.15428188350E+03  0.16225779406E+03  0.51100000000E-03 0. -1.
<mgrwt>
<rscale>  0 0.12499695E+03</rscale>
<asrwt>0</asrwt>
<pdfrwt beam="2">  1        1 0.30537998E-01 0.12499695E+03</pdfrwt>
<pdfrwt beam="1">  1       -1 0.30274122E-02 0.12499695E+03</pdfrwt>
<totfact> 0.49931329E+04</totfact>
</mgrwt>
</event>
<event>
 5    1  0.8303392E-059  0.1249969E+03  0.7818608E-02  0.1235074E+00
          1   -1    0    0  501    0  0.00000000000E+00  0.00000000000E+00  0.47328031313E+03  0.47328031315E+03  0.46700000000E-02 0.  1.
         -1   -1    0    0    0  501 -0.00000000000E+00 -0.00000000000E+00 -0.82531499281E+01  0.82531512494E+01  0.46700000000E-02 0. -1.
         25    2    1    2    0    0  0.00000000000E+00  0.00000000000E+00  0.46502716320E+03  0.48153346440E+03  0.12499685926E+03 0.  0.
        -11    1    3    3    0    0  0.24424831864E+02 -0.55713055127E+02  0.28774321367E+03  0.29410316886E+03  0.51100000000E-03 0. -1.
         11    1    3    3    0    0 -0.24424831864E+02  0.55713055127E+02  0.17728394953E+03  0.18743029554E+03  0.51100000000E-03 0.  1.
<mgrwt>
<rscale>  0 0.12499686E+03</rscale>
<asrwt>0</asrwt>
<pdfrwt beam="1">  1        1 0.72812354E-01 0.12499686E+03</pdfrwt>
<pdfrwt beam="2">  1       -1 0.12697155E-02 0.12499686E+03</pdfrwt>
<totfact> 0.59134289E+04</totfact>
</mgrwt>
</event>
<event>
 5    1  0.1029363E-058  0.1249957E+03  0.7818608E-02  0.1235076E+00
         -1   -1    0    0    0  501 -0.00000000000E+00  0.00000000000E+00  0.63228856321E+02  0.63228856494E+02  0.46700000000E-02 0.  1.
          1   -1    0    0  501    0  0.00000000000E+00 -0.00000000000E+00 -0.61775309013E+02  0.61775309189E+02  0.46700000000E-02 0. -1.
         25    2    1    2    0    0  0.00000000000E+00  0.00000000000E+00  0.14535473088E+01  0.12500416568E+03  0.12499571448E+03 0.  0.
        -11    1    3    3    0    0 -0.26285281283E+02 -0.42973130827E+02  0.37720843686E+02  0.62932249553E+02  0.51100000000E-03 0.  1.
         11    1    3    3    0    0  0.26285281283E+02  0.42973130827E+02 -0.36267296377E+02  0.62071916129E+02  0.51100000000E-03 0. -1.
<mgrwt>
<rscale>  0 0.12499571E+03</rscale>
<asrwt>0</asrwt>
<pdfrwt beam="2">  1        1 0.95038938E-02 0.12499571E+03</pdfrwt>
<pdfrwt beam="1">  1       -1 0.97275163E-02 0.12499571E+03</pdfrwt>
<totfact> 0.39482577E+04</totfact>
</mgrwt>
</event>
<event>
 5    1  0.8303392E-059  0.1249997E+03  0.7818608E-02  0.1235070E+00
          1   -1    0    0  501    0  0.00000000000E+00  0.00000000000E+00  0.15237740076E+03  0.15237740083E+03  0.46700000000E-02 0. -1.
         -1   -1    0    0    0  501 -0.00000000000E+00 -0.00000000000E+00 -0.25635242906E+02  0.25635243331E+02  0.46700000000E-02 0.  1.
         25    2    1    2    0    0  0.00000000000E+00  0.00000000000E+00  0.12674215785E+03  0.17801264416E+03  0.12499970762E+03 0.  0.
        -11    1    3    3    0    0 -0.98090715574E+01  0.48975973699E+02  0.98700711441E+01  0.50914459530E+02  0.51100000000E-03 0.  1.
         11    1    3    3    0    0  0.98090715574E+01 -0.48975973699E+02  0.11687208671E+03  0.12709818463E+03  0.51100000000E-03 0. -1.
<mgrwt>
<rscale>  0 0.12499971E+03</rscale>
<asrwt>0</asrwt>
<pdfrwt beam="1">  1        1 0.23442677E-01 0.12499971E+03</pdfrwt>
<pdfrwt beam="2">  1       -1 0.39438835E-02 0.12499971E+03</pdfrwt>
<totfact> 0.47217305E+04</totfact>
</mgrwt>
</event>
<event>
 5    1  0.8303392E-059  0.1249997E+03  0.7818608E-02  0.1235070E+00
         -1   -1    0    0    0  501 -0.00000000000E+00  0.00000000000E+00  0.25864294425E+02  0.25864294847E+02  0.46700000000E-02 0.  1.
          1   -1    0    0  501    0  0.00000000000E+00 -0.00000000000E+00 -0.15102795134E+03  0.15102795141E+03  0.46700000000E-02 0. -1.
         25    2    1    2    0    0  0.00000000000E+00  0.00000000000E+00 -0.12516365691E+03  0.17689224626E+03  0.12499970310E+03 0.  0.
        -11    1    3    3    0    0 -0.28128508200E+02 -0.50353472543E+02 -0.96649611579E+02  0.11255146640E+03  0.51100000000E-03 0.  1.
         11    1    3    3    0    0  0.28128508200E+02  0.50353472543E+02 -0.28514045332E+02  0.64340779853E+02  0.51100000000E-03 0. -1.
<mgrwt>
<rscale>  0 0.12499970E+03</rscale>
<asrwt>0</asrwt>
<pdfrwt beam="2">  1        1 0.23235069E-01 0.12499970E+03</pdfrwt>
<pdfrwt beam="1">  1       -1 0.39791223E-02 0.12499970E+03</pdfrwt>
<totfact> 0.47130065E+04</totfact>
</mgrwt>
</event>
<event>
 5    1  0.8303392E-059  0.1250002E+03  0.7818608E-02  0.1235069E+00
          1   -1    0    0  501    0  0.00000000000E+00  0.00000000000E+00  0.64062405897E+02  0.64062406067E+02  0.46700000000E-02 0. -1.
         -1   -1    0    0    0  501 -0.00000000000E+00 -0.00000000000E+00 -0.60975918994E+02  0.60975919172E+02  0.46700000000E-02 0.  1.
         25    2    1    2    0    0  0.00000000000E+00  0.00000000000E+00  0.30864869034E+01  0.12503832524E+03  0.12500022551E+03 0.  0.
        -11    1    3    3    0    0 -0.33600985678E+02 -0.41863682770E+02  0.33563465951E+02  0.63309560262E+02  0.51100000000E-03 0.  1.
         11    1    3    3    0    0  0.33600985678E+02  0.41863682770E+02 -0.30476979047E+02  0.61728764978E+02  0.51100000000E-03 0. -1.
<mgrwt>
<rscale>  0 0.12500023E+03</rscale>
<asrwt>0</asrwt>
<pdfrwt beam="1">  1        1 0.98557547E-02 0.12500023E+03</pdfrwt>
<pdfrwt beam="2">  1       -1 0.93809107E-02 0.12500023E+03</pdfrwt>
<totfact> 0.39758168E+04</totfact>
</mgrwt>
</event>
<event>
 5    1  0.8303392E-059  0.1249993E+03  0.7818608E-02  0.1235070E+00
          1   -1    0    0  501    0  0.00000000000E+00  0.00000000000E+00  0.59509642748E+02  0.59509642932E+02  0.46700000000E-02 0. -1.
         -1   -1    0    0    0  501 -0.00000000000E+00 -0.00000000000E+00 -0.65639867802E+02  0.65639867968E+02  0.46700000000E-02 0.  1.
         25    2    1    2    0    0  0.00000000000E+00  0.00000000000E+00 -0.61302250534E+01  0.12514951090E+03  0.12499928167E+03 0.  0.
        -11    1    3    3    0    0  0.23066164243E+01 -0.15173750477E+02 -0.63723749813E+02  0.65546010354E+02  0.51100000000E-03 0.  1.
         11    1    3    3    0    0 -0.23066164243E+01  0.15173750477E+02  0.57593524759E+02  0.59603500546E+02  0.51100000000E-03 0. -1.
<mgrwt>
<rscale>  0 0.12499928E+03</rscale>
<asrwt>0</asrwt>
<pdfrwt beam="1">  1        1 0.91553297E-02 0.12499928E+03</pdfrwt>
<pdfrwt beam="2">  1       -1 0.10098441E-01 0.12499928E+03</pdfrwt>
<totfact> 0.39193102E+04</totfact>
</mgrwt>
</event>
<event>
 5    1  0.8303392E-059  0.1250025E+03  0.7818608E-02  0.1235065E+00
         -1   -1    0    0    0  501 -0.00000000000E+00  0.00000000000E+00  0.13083473403E+02  0.13083474237E+02  0.46700000000E-02 0.  1.
          1   -1    0    0  501    0  0.00000000000E+00 -0.00000000000E+00 -0.29857547532E+03  0.29857547536E+03  0.46700000000E-02 0. -1.
         25    2    1    2    0    0  0.00000000000E+00  0.00000000000E+00 -0.28549200192E+03  0.31165894960E+03  0.12500247079E+03 0.  0.
        -11    1    3    3    0    0  0.10250960765E+02 -0.60591277751E+02 -0.11431678390E+03  0.12978718048E+03  0.51100000000E-03 0.  1.
         11    1    3    3    0    0 -0.10250960765E+02  0.60591277751E+02 -0.17117521802E+03  0.18187176911E+03  0.51100000000E-03 0. -1.
<mgrwt>
<rscale>  0 0.12500247E+03</rscale>
<asrwt>0</asrwt>
<pdfrwt beam="2">  1        1 0.45934684E-01 0.12500247E+03</pdfrwt>
<pdfrwt beam="1">  1       -1 0.20128423E-02 0.12500247E+03</pdfrwt>
<totfact> 0.54428743E+04</totfact>
</mgrwt>
</event>
<event>
 5    1  0.8303392E-059  0.1249995E+03  0.7818608E-02  0.1235070E+00
         -1   -1    0    0    0  501 -0.00000000000E+00  0.00000000000E+00  0.29015270242E+03  0.29015270246E+03  0.46700000000E-02 0.  1.
          1   -1    0    0  501    0  0.00000000000E+00 -0.00000000000E+00 -0.13462629225E+02  0.13462630035E+02  0.46700000000E-02 0. -1.
         25    2    1    2    0    0  0.00000000000E+00  0.00000000000E+00  0.27669007320E+03  0.30361533250E+03  0.12499949408E+03 0.  0.
        -11    1    3    3    0    0  0.24165577751E+02  0.56387834268E+02  0.10933424902E+03  0.12536961757E+03  0.51100000000E-03 0. -1.
         11    1    3    3    0    0 -0.24165577751E+02 -0.56387834268E+02  0.16735582418E+03  0.17824571492E+03  0.51100000000E-03 0.  1.
<mgrwt>
<rscale>  0 0.12499949E+03</rscale>
<asrwt>0</asrwt>
<pdfrwt beam="2">  1        1 0.20711739E-02 0.12499949E+03</pdfrwt>
<pdfrwt beam="1">  1       -1 0.44638876E-01 0.12499949E+03</pdfrwt>
<totfact> 0.26679300E+04</totfact>
</mgrwt>
</event>
<event>
 5    1  0.8303392E-059  0.1249981E+03  0.7818608E-02  0.1235072E+00
         -1   -1    0    0    0  501 -0.00000000000E+00  0.00000000000E+00  0.14156466737E+02  0.14156467507E+02  0.46700000000E-02 0.  1.
          1   -1    0    0  501    0  0.00000000000E+00 -0.00000000000E+00 -0.27592573031E+03  0.27592573035E+03  0.46700000000E-02 0. -1.
         25    2    1    2    0    0  0.00000000000E+00  0.00000000000E+00 -0.26176926357E+03  0.29008219785E+03  0.12499813663E+03 0.  0.
        -11    1    3    3    0    0  0.45544627923E+01  0.61726137206E+02 -0.15101914684E+03  0.16321042202E+03  0.51100000000E-03 0.  1.
         11    1    3    3    0    0 -0.45544627923E+01 -0.61726137206E+02 -0.11075011673E+03  0.12687177583E+03  0.51100000000E-03 0. -1.
<mgrwt>
<rscale>  0 0.12499814E+03</rscale>
<asrwt>0</asrwt>
<pdfrwt beam="2">  1        1 0.42450109E-01 0.12499814E+03</pdfrwt>
<pdfrwt beam="1">  1       -1 0.21779182E-02 0.12499814E+03</pdfrwt>
<totfact> 0.53549381E+04</totfact>
</mgrwt>
</event>
<event>
 5    1  0.8303392E-059  0.1250003E+03  0.7818608E-02  0.1235069E+00
          1   -1    0    0  501    0  0.00000000000E+00  0.00000000000E+00  0.56799882643E+03  0.56799882645E+03  0.46700000000E-02 0. -1.
         -1   -1    0    0    0  501 -0.00000000000E+00 -0.00000000000E+00 -0.68772471377E+01  0.68772487233E+01  0.46700000000E-02 0.  1.
         25    2    1    2    0    0  0.00000000000E+00  0.00000000000E+00  0.56112157930E+03  0.57487607518E+03  0.12500030023E+03 0.  0.
        -11    1    3    3    0    0 -0.60268726468E+02 -0.13382229973E+02  0.23576709759E+03  0.24371608025E+03  0.51100000000E-03 0.  1.
         11    1    3    3    0    0  0.60268726468E+02  0.13382229973E+02  0.32535448171E+03  0.33115999492E+03  0.51100000000E-03 0. -1.
<mgrwt>
<rscale>  0 0.12500030E+03</rscale>
<asrwt>0</asrwt>
<pdfrwt beam="1">  1        1 0.87384454E-01 0.12500030E+03</pdfrwt>
<pdfrwt beam="2">  1       -1 0.10580379E-02 0.12500030E+03</pdfrwt>
<totfact> 0.60385215E+04</totfact>
</mgrwt>
</event>
<event>
 5    1  0.8303392E-059  0.1250020E+03  0.7818608E-02  0.1235066E+00
          1   -1    0    0  501    0  0.00000000000E+00  0.00000000000E+00  0.92778604529E+02  0.92778604646E+02  0.46700000000E-02 0. -1.
         -1   -1    0    0    0  501 -0.00000000000E+00 -0.00000000000E+00 -0.42104287925E+02  0.42104288184E+02  0.46700000000E-02 0.  1.
         25    2    1    2    0    0  0.00000000000E+00  0.00000000000E+00  0.50674316604E+02  0.13488289283E+03  0.12500203364E+03 0.  0.
        -11    1    3    3    0    0  0.25995636634E+02 -0.56544868745E+02  0.31562213176E+02  0.69780144785E+02  0.51100000000E-03 0. -1.
         11    1    3    3    0    0 -0.25995636634E+02  0.56544868745E+02  0.19112103428E+02  0.65102748046E+02  0.51100000000E-03 0.  1.
<mgrwt>
<rscale>  0 0.12500203E+03</rscale>
<asrwt>0</asrwt>
<pdfrwt beam="1">  1        1 0.14273631E-01 0.12500203E+03</pdfrwt>
<pdfrwt beam="2">  1       -1 0.64775828E-02 0.12500203E+03</pdfrwt>
<totfact> 0.42718688E+04</totfact>
</mgrwt>
</event>
<event>
 5    1  0.8303392E-059  0.1249984E+03  0.7818608E-02  0.1235072E+00
         -1   -1    0    0    0  501 -0.00000000000E+00  0.00000000000E+00  0.10567542649E+03  0.10567542659E+03  0.46700000000E-02 0.  1.
          1   -1    0    0  501    0  0.00000000000E+00 -0.00000000000E+00 -0.36963674302E+02  0.36963674597E+02  0.46700000000E-02 0. -1.
         25    2    1    2    0    0  0.00000000000E+00  0.00000000000E+00  0.68711752188E+02  0.14263910119E+03  0.12499843319E+03 0.  0.
        -11    1    3    3    0    0 -0.22612638156E+02 -0.41702131080E+02 -0.12077663498E+02  0.48951701674E+02  0.51100000000E-03 0. -1.
         11    1    3    3    0    0  0.22612638156E+02  0.41702131080E+02  0.80789415686E+02  0.93687399516E+02  0.51100000000E-03 0.  1.
<mgrwt>
<rscale>  0 0.12499843E+03</rscale>
<asrwt>0</asrwt>
<pdfrwt beam="2">  1        1 0.56867193E-02 0.12499843E+03</pdfrwt>
<pdfrwt beam="1">  1       -1 0.16257758E-01 0.12499843E+03</pdfrwt>
<totfact> 0.35579041E+04</totfact>
</mgrwt>
</event>
<event>
 5    1  0.8303392E-059  0.1249997E+03  0.7818608E-02  0.1235070E+00
         -1   -1    0    0    0  501 -0.00000000000E+00  0.00000000000E+00  0.15354187263E+02  0.15354187973E+02  0.46700000000E-02 0.  1.
          1   -1    0    0  501    0  0.00000000000E+00 -0.00000000000E+00 -0.25440834446E+03  0.25440834450E+03  0.46700000000E-02 0. -1.
         25    2    1    2    0    0  0.00000000000E+00  0.00000000000E+00 -0.23905415719E+03  0.26976253247E+03  0.12499973542E+03 0.  0.
        -11    1    3    3    0    0  0.51331339823E+02  0.35380879269E+02 -0.10999216272E+03  0.12643175600E+03  0.51100000000E-03 0.  1.
         11    1    3    3    0    0 -0.51331339823E+02 -0.35380879269E+02 -0.12906199448E+03  0.14333077647E+03  0.51100000000E-03 0. -1.
<mgrwt>
<rscale>  0 0.12499974E+03</rscale>
<asrwt>0</asrwt>
<pdfrwt beam="2">  1        1 0.39139742E-01 0.12499974E+03</pdfrwt>
<pdfrwt beam="1">  1       -1 0.23621829E-02 0.12499974E+03</pdfrwt>
<totfact> 0.52637327E+04</totfact>
</mgrwt>
</event>
<event>
 5    1  0.8303392E-059  0.1250021E+03  0.7818608E-02  0.1235066E+00
          1   -1    0    0  501    0  0.00000000000E+00  0.00000000000E+00  0.20188874396E+03  0.20188874402E+03  0.46700000000E-02 0. -1.
         -1   -1    0    0    0  501 -0.00000000000E+00 -0.00000000000E+00 -0.19349167059E+02  0.19349167622E+02  0.46700000000E-02 0.  1.
         25    2    1    2    0    0  0.00000000000E+00  0.00000000000E+00  0.18253957690E+03  0.22123791164E+03  0.12500206562E+03 0.  0.
        -11    1    3    3    0    0  0.39262199613E+02  0.18126299644E+02  0.11403625570E+02  0.44722765273E+02  0.51100000000E-03 0.  1.
         11    1    3    3    0    0 -0.39262199613E+02 -0.18126299644E+02  0.17113595133E+03  0.17651514636E+03  0.51100000000E-03 0. -1.
<mgrwt>
<rscale>  0 0.12500207E+03</rscale>
<asrwt>0</asrwt>
<pdfrwt beam="1">  1        1 0.31059807E-01 0.12500207E+03</pdfrwt>
<pdfrwt beam="2">  1       -1 0.29767950E-02 0.12500207E+03</pdfrwt>
<totfact> 0.50106716E+04</totfact>
</mgrwt>
</event>
<event>
 5    1  0.8303392E-059  0.1249995E+03  0.7818608E-02  0.1235070E+00
          1   -1    0    0  501    0  0.00000000000E+00  0.00000000000E+00  0.45908382617E+02  0.45908382854E+02  0.46700000000E-02 0. -1.
         -1   -1    0    0    0  501 -0.00000000000E+00 -0.00000000000E+00 -0.85087255093E+02  0.85087255221E+02  0.46700000000E-02 0.  1.
         25    2    1    2    0    0  0.00000000000E+00  0.00000000000E+00 -0.39178872477E+02  0.13099563808E+03  0.12499949258E+03 0.  0.
        -11    1    3    3    0    0 -0.58636595402E+02 -0.20624051259E+02 -0.26430715992E+02  0.67543945390E+02  0.51100000000E-03 0.  1.
         11    1    3    3    0    0  0.58636595402E+02  0.20624051259E+02 -0.12748156485E+02  0.63451692686E+02  0.51100000000E-03 0. -1.
<mgrwt>
<rscale>  0 0.12499949E+03</rscale>
<asrwt>0</asrwt>
<pdfrwt beam="1">  1        1 0.70628281E-02 0.12499949E+03</pdfrwt>
<pdfrwt beam="2">  1       -1 0.13090347E-01 0.12499949E+03</pdfrwt>
<totfact> 0.37227237E+04</totfact>
</mgrwt>
</event>
<event>
 5    1  0.8303392E-059  0.1250003E+03  0.7818608E-02  0.1235069E+00
         -1   -1    0    0    0  501 -0.00000000000E+00  0.00000000000E+00  0.21604064533E+02  0.21604065038E+02  0.46700000000E-02 0.  1.
          1   -1    0    0  501    0  0.00000000000E+00 -0.00000000000E+00 -0.18081185822E+03  0.18081185828E+03  0.46700000000E-02 0. -1.
         25    2    1    2    0    0  0.00000000000E+00  0.00000000000E+00 -0.15920779369E+03  0.20241592332E+03  0.12500033777E+03 0.  0.
        -11    1    3    3    0    0 -0.60251099203E+02 -0.74991000146E+01 -0.55594209570E+02  0.82323432838E+02  0.51100000000E-03 0.  1.
         11    1    3    3    0    0  0.60251099203E+02  0.74991000146E+01 -0.10361358412E+03  0.12009249048E+03  0.51100000000E-03 0. -1.
<mgrwt>
<rscale>  0 0.12500034E+03</rscale>
<asrwt>0</asrwt>
<pdfrwt beam="2">  1        1 0.27817208E-01 0.12500034E+03</pdfrwt>
<pdfrwt beam="1">  1       -1 0.33237024E-02 0.12500034E+03</pdfrwt>
<totfact> 0.48944110E+04</totfact>
</mgrwt>
</event>
<event>
 5    1  0.8303392E-059  0.1250047E+03  0.7818608E-02  0.1235062E+00
          1   -1    0    0  501    0  0.00000000000E+00  0.00000000000E+00  0.16697056222E+02  0.16697056875E+02  0.46700000000E-02 0. -1.
         -1   -1    0    0    0  501 -0.00000000000E+00 -0.00000000000E+00 -0.23396618666E+03  0.23396618671E+03  0.46700000000E-02 0.  1.
         25    2    1    2    0    0  0.00000000000E+00  0.00000000000E+00 -0.21726913044E+03  0.25066324359E+03  0.12500474648E+03 0.  0.
        -11    1    3    3    0    0 -0.23074759466E+02  0.31110140151E+02 -0.20699842139E+03  0.21059114844E+03  0.51100000000E-03 0.  1.
         11    1    3    3    0    0  0.23074759466E+02 -0.31110140151E+02 -0.10270709057E+02  0.40072095147E+02  0.51100000000E-03 0. -1.
<mgrwt>
<rscale>  0 0.12500475E+03</rscale>
<asrwt>0</asrwt>
<pdfrwt beam="1">  1        1 0.25687781E-02 0.12500475E+03</pdfrwt>
<pdfrwt beam="2">  1       -1 0.35994796E-01 0.12500475E+03</pdfrwt>
<totfact> 0.28836484E+04</totfact>
</mgrwt>
</event>
<event>
 5    1  0.8303392E-059  0.1250004E+03  0.7818608E-02  0.1235069E+00
          1   -1    0    0  501    0  0.00000000000E+00  0.00000000000E+00  0.49249752888E+02  0.49249753110E+02  0.46700000000E-02 0. -1.
         -1   -1    0    0    0  501 -0.00000000000E+00 -0.00000000000E+00 -0.79315606894E+02  0.79315607032E+02  0.46700000000E-02 0.  1.
         25    2    1    2    0    0  0.00000000000E+00  0.00000000000E+00 -0.30065854006E+02  0.12856536014E+03  0.12500038500E+03 0.  0.
        -11    1    3    3    0    0  0.40872804657E+02 -0.24490079375E+02 -0.56633007462E+02  0.74011132154E+02  0.51100000000E-03 0.  1.
         11    1    3    3    0    0 -0.40872804657E+02  0.24490079375E+02  0.26567153456E+02  0.54554227987E+02  0.51100000000E-03 0. -1.
<mgrwt>
<rscale>  0 0.12500039E+03</rscale>
<asrwt>0</asrwt>
<pdfrwt beam="1">  1        1 0.75768851E-02 0.12500039E+03</pdfrwt>
<pdfrwt beam="2">  1       -1 0.12202401E-01 0.12500039E+03</pdfrwt>
<totfact> 0.37756923E+04</totfact>
</mgrwt>
</event>
<event>
 5    1  0.8303392E-059  0.1249992E+03  0.7818608E-02  0.1235071E+00
          1   -1    0    0  501    0  0.00000000000E+00  0.00000000000E+00  0.17165096312E+02  0.17165096948E+02  0.46700000000E-02 0. -1.
         -1   -1    0    0    0  501 -0.00000000000E+00 -0.00000000000E+00 -0.22756638066E+03  0.22756638071E+03  0.46700000000E-02 0.  1.
         25    2    1    2    0    0  0.00000000000E+00  0.00000000000E+00 -0.21040128435E+03  0.24473147766E+03  0.12499918280E+03 0.  0.
        -11    1    3    3    0    0  0.52796107378E+02  0.32945760058E+02 -0.11650667293E+03  0.13208579370E+03  0.51100000000E-03 0.  1.
         11    1    3    3    0    0 -0.52796107378E+02 -0.32945760058E+02 -0.93894611416E+02  0.11264568395E+03  0.51100000000E-03 0. -1.
<mgrwt>
<rscale>  0 0.12499918E+03</rscale>
<asrwt>0</asrwt>
<pdfrwt beam="1">  1        1 0.26407843E-02 0.12499918E+03</pdfrwt>
<pdfrwt beam="2">  1       -1 0.35010210E-01 0.12499918E+03</pdfrwt>
<totfact> 0.29105219E+04</totfact>
</mgrwt>
</event>
<event>
 5    1  0.8303392E-059  0.1249994E+03  0.7818608E-02  0.1235070E+00
          1   -1    0    0  501    0  0.00000000000E+00  0.00000000000E+00  0.11667566130E+03  0.11667566139E+03  0.46700000000E-02 0. -1.
         -1   -1    0    0    0  501 -0.00000000000E+00 -0.00000000000E+00 -0.33479224137E+02  0.33479224463E+02  0.46700000000E-02 0.  1.
         25    2    1    2    0    0  0.00000000000E+00  0.00000000000E+00  0.83196437160E+02  0.15015488585E+03  0.12499937036E+03 0.  0.
        -11    1    3    3    0    0  0.28371460024E+02 -0.43372048665E+02 -0.36181396157E+00  0.51828614287E+02  0.51100000000E-03 0.  1.
         11    1    3    3    0    0 -0.28371460024E+02  0.43372048665E+02  0.83558251121E+02  0.98326271566E+02  0.51100000000E-03 0. -1.
<mgrwt>
<rscale>  0 0.12499937E+03</rscale>
<asrwt>0</asrwt>
<pdfrwt beam="1">  1        1 0.17950102E-01 0.12499937E+03</pdfrwt>
<pdfrwt beam="2">  1       -1 0.51506499E-02 0.12499937E+03</pdfrwt>
<totfact> 0.44706265E+04</totfact>
</mgrwt>
</event>
<event>
 5    1  0.8303392E-059  0.1249974E+03  0.7818608E-02  0.1235073E+00
         -1   -1    0    0    0  501 -0.00000000000E+00  0.00000000000E+00  0.10494299973E+03  0.10494299983E+03  0.46700000000E-02 0.  1.
          1   -1    0    0  501    0  0.00000000000E+00 -0.00000000000E+00 -0.37221012309E+02  0.37221012602E+02  0.46700000000E-02 0. -1.
         25    2    1    2    0    0  0.00000000000E+00  0.00000000000E+00  0.67721987421E+02  0.14216401244E+03  0.12499735538E+03 0.  0.
        -11    1    3    3    0    0 -0.42523965342E+02 -0.36534254915E+02  0.65277942879E+02  0.86047947316E+02  0.51100000000E-03 0.  1.
         11    1    3    3    0    0  0.42523965342E+02  0.36534254915E+02  0.24440445426E+01  0.56116065120E+02  0.51100000000E-03 0. -1.
<mgrwt>
<rscale>  0 0.12499736E+03</rscale>
<asrwt>0</asrwt>
<pdfrwt beam="2">  1        1 0.57263095E-02 0.12499736E+03</pdfrwt>
<pdfrwt beam="1">  1       -1 0.16145077E-01 0.12499736E+03</pdfrwt>
<totfact> 0.35633285E+04</totfact>
</mgrwt>
</event>
<event>
 5    1  0.8303392E-059  0.1250024E+03  0.7818608E-02  0.1235066E+00
          1   -1    0    0  501    0  0.00000000000E+00  0.00000000000E+00  0.44580132241E+03  0.44580132243E+03  0.46700000000E-02 0. -1.
         -1   -1    0    0    0  501 -0.00000000000E+00 -0.00000000000E+00 -0.87626426683E+01  0.87626439127E+01  0.46700000000E-02 0.  1.
         25    2    1    2    0    0  0.00000000000E+00  0.00000000000E+00  0.43703867974E+03  0.45456396635E+03  0.12500236762E+03 0.  0.
        -11    1    3    3    0    0 -0.50136496543E+02 -0.21837045172E+02  0.10846822902E+03  0.12147378950E+03  0.51100000000E-03 0.  1.
         11    1    3    3    0    0  0.50136496543E+02  0.21837045172E+02  0.32857045072E+03  0.33309017685E+03  0.51100000000E-03 0. -1.
<mgrwt>
<rscale>  0 0.12500237E+03</rscale>
<asrwt>0</asrwt>
<pdfrwt beam="1">  1        1 0.68584834E-01 0.12500237E+03</pdfrwt>
<pdfrwt beam="2">  1       -1 0.13480987E-02 0.12500237E+03</pdfrwt>
<totfact> 0.58607626E+04</totfact>
</mgrwt>
</event>
<event>
 5    1  0.8303392E-059  0.1249999E+03  0.7818608E-02  0.1235069E+00
         -1   -1    0    0    0  501 -0.00000000000E+00  0.00000000000E+00  0.93909069563E+01  0.93909081175E+01  0.46700000000E-02 0.  1.
          1   -1    0    0  501    0  0.00000000000E+00 -0.00000000000E+00 -0.41596048479E+03  0.41596048482E+03  0.46700000000E-02 0. -1.
         25    2    1    2    0    0  0.00000000000E+00  0.00000000000E+00 -0.40656957784E+03  0.42535139294E+03  0.12499994340E+03 0.  0.
        -11    1    3    3    0    0 -0.57566942728E+02  0.73274646763E+00 -0.12050780152E+03  0.13355380953E+03  0.51100000000E-03 0.  1.
         11    1    3    3    0    0  0.57566942728E+02 -0.73274646763E+00 -0.28606177631E+03  0.29179758341E+03  0.51100000000E-03 0. -1.
<mgrwt>
<rscale>  0 0.12499994E+03</rscale>
<asrwt>0</asrwt>
<pdfrwt beam="2">  1        1 0.63993907E-01 0.12499994E+03</pdfrwt>
<pdfrwt beam="1">  1       -1 0.14447553E-02 0.12499994E+03</pdfrwt>
<totfact> 0.57959366E+04</totfact>
</mgrwt>
</event>
<event>
 5    1  0.8303392E-059  0.1249997E+03  0.7818608E-02  0.1235070E+00
          1   -1    0    0  501    0  0.00000000000E+00  0.00000000000E+00  0.30749832476E+03  0.30749832480E+03  0.46700000000E-02 0. -1.
         -1   -1    0    0    0  501 -0.00000000000E+00 -0.00000000000E+00 -0.12703252640E+02  0.12703253499E+02  0.46700000000E-02 0.  1.
         25    2    1    2    0    0  0.00000000000E+00  0.00000000000E+00  0.29479507212E+03  0.32020157830E+03  0.12499966479E+03 0.  0.
        -11    1    3    3    0    0  0.31293163822E+02 -0.47367146877E+02  0.80435786053E+02  0.98452142606E+02  0.51100000000E-03 0.  1.
         11    1    3    3    0    0 -0.31293163822E+02  0.47367146877E+02  0.21435928607E+03  0.22174943569E+03  0.51100000000E-03 0. -1.
<mgrwt>
<rscale>  0 0.12499966E+03</rscale>
<asrwt>0</asrwt>
<pdfrwt beam="1">  1        1 0.47307431E-01 0.12499966E+03</pdfrwt>
<pdfrwt beam="2">  1       -1 0.19543468E-02 0.12499966E+03</pdfrwt>
<totfact> 0.54760321E+04</totfact>
</mgrwt>
</event>
<event>
 5    1  0.8303392E-059  0.1249996E+03  0.7818608E-02  0.1235070E+00
         -1   -1    0    0    0  501 -0.00000000000E+00  0.00000000000E+00  0.36147381749E+02  0.36147382051E+02  0.46700000000E-02 0.  1.
          1   -1    0    0  501    0  0.00000000000E+00 -0.00000000000E+00 -0.10806377192E+03  0.10806377202E+03  0.46700000000E-02 0. -1.
         25    2    1    2    0    0  0.00000000000E+00  0.00000000000E+00 -0.71916390168E+02  0.14421115407E+03  0.12499955913E+03 0.  0.
        -11    1    3    3    0    0 -0.58457174035E+00 -0.40428480322E+02  0.19026138986E+02  0.44685542519E+02  0.51100000000E-03 0.  1.
         11    1    3    3    0    0  0.58457174035E+00  0.40428480322E+02 -0.90942529153E+02  0.99525611550E+02  0.51100000000E-03 0. -1.
<mgrwt>
<rscale>  0 0.12499956E+03</rscale>
<asrwt>0</asrwt>
<pdfrwt beam="2">  1        1 0.16625196E-01 0.12499956E+03</pdfrwt>
<pdfrwt beam="1">  1       -1 0.55611357E-02 0.12499956E+03</pdfrwt>
<totfact> 0.44026258E+04</totfact>
</mgrwt>
</event>
<event>
 5    1  0.8303392E-059  0.1249967E+03  0.7818608E-02  0.1235074E+00
         -1   -1    0    0    0  501 -0.00000000000E+00  0.00000000000E+00  0.13709205325E+02  0.13709206121E+02  0.46700000000E-02 0.  1.
          1   -1    0    0  501    0  0.00000000000E+00 -0.00000000000E+00 -0.28492129861E+03  0.28492129865E+03  0.46700000000E-02 0. -1.
         25    2    1    2    0    0  0.00000000000E+00  0.00000000000E+00 -0.27121209328E+03  0.29863050477E+03  0.12499671530E+03 0.  0.
        -11    1    3    3    0    0 -0.56131052296E+02 -0.21443665390E+02 -0.17667637660E+03  0.18661475790E+03  0.51100000000E-03 0. -1.
         11    1    3    3    0    0  0.56131052296E+02  0.21443665390E+02 -0.94535716679E+02  0.11201574686E+03  0.51100000000E-03 0.  1.
<mgrwt>
<rscale>  0 0.12499672E+03</rscale>
<asrwt>0</asrwt>
<pdfrwt beam="2">  1        1 0.43834041E-01 0.12499672E+03</pdfrwt>
<pdfrwt beam="1">  1       -1 0.21091088E-02 0.12499672E+03</pdfrwt>
<totfact> 0.53911255E+04</totfact>
</mgrwt>
</event>
<event>
 5    1  0.8303392E-059  0.1250010E+03  0.7818608E-02  0.1235068E+00
         -1   -1    0    0    0  501 -0.00000000000E+00  0.00000000000E+00  0.11778425962E+03  0.11778425971E+03  0.46700000000E-02 0.  1.
          1   -1    0    0  501    0  0.00000000000E+00 -0.00000000000E+00 -0.33164957392E+02  0.33164957721E+02  0.46700000000E-02 0. -1.
         25    2    1    2    0    0  0.00000000000E+00  0.00000000000E+00  0.84619302225E+02  0.15094921743E+03  0.12500095973E+03 0.  0.
        -11    1    3    3    0    0 -0.24504440635E+02 -0.54663650522E+02  0.63834744627E+02  0.87541172719E+02  0.51100000000E-03 0.  1.
         11    1    3    3    0    0  0.24504440635E+02  0.54663650522E+02  0.20784557598E+02  0.63408044711E+02  0.51100000000E-03 0. -1.
<mgrwt>
<rscale>  0 0.12500096E+03</rscale>
<asrwt>0</asrwt>
<pdfrwt beam="2">  1        1 0.51023012E-02 0.12500096E+03</pdfrwt>
<pdfrwt beam="1">  1       -1 0.18120655E-01 0.12500096E+03</pdfrwt>
<totfact> 0.34736648E+04</totfact>
</mgrwt>
</event>
<event>
 5    1  0.8303392E-059  0.1249990E+03  0.7818608E-02  0.1235071E+00
         -1   -1    0    0    0  501 -0.00000000000E+00  0.00000000000E+00  0.14686479097E+02  0.14686479839E+02  0.46700000000E-02 0.  1.
          1   -1    0    0  501    0  0.00000000000E+00 -0.00000000000E+00 -0.26597151155E+03  0.26597151159E+03  0.46700000000E-02 0. -1.
         25    2    1    2    0    0  0.00000000000E+00  0.00000000000E+00 -0.25128503245E+03  0.28065799143E+03  0.12499896247E+03 0.  0.
        -11    1    3    3    0    0 -0.11314654666E+02 -0.45506674820E+02 -0.32868421589E+02  0.57264404314E+02  0.51100000000E-03 0.  1.
         11    1    3    3    0    0  0.11314654666E+02  0.45506674820E+02 -0.21841661086E+03  0.22339358712E+03  0.51100000000E-03 0. -1.
<mgrwt>
<rscale>  0 0.12499896E+03</rscale>
<asrwt>0</asrwt>
<pdfrwt beam="2">  1        1 0.40918691E-01 0.12499896E+03</pdfrwt>
<pdfrwt beam="1">  1       -1 0.22594586E-02 0.12499896E+03</pdfrwt>
<totfact> 0.53135829E+04</totfact>
</mgrwt>
</event>
<event>
 5    1  0.8303392E-059  0.1249993E+03  0.7818608E-02  0.1235070E+00
         -1   -1    0    0    0  501 -0.00000000000E+00  0.00000000000E+00  0.92606098847E+01  0.92606110622E+01  0.46700000000E-02 0.  1.
          1   -1    0    0  501    0  0.00000000000E+00 -0.00000000000E+00 -0.42180891649E+03  0.42180891652E+03  0.46700000000E-02 0. -1.
         25    2    1    2    0    0  0.00000000000E+00  0.00000000000E+00 -0.41254830661E+03  0.43106952758E+03  0.12499932929E+03 0.  0.
        -11    1    3    3    0    0  0.60760629724E+02  0.13234858330E+02 -0.22786357550E+03  0.23619658050E+03  0.51100000000E-03 0.  1.
         11    1    3    3    0    0 -0.60760629724E+02 -0.13234858330E+02 -0.18468473110E+03  0.19487294708E+03  0.51100000000E-03 0. -1.
<mgrwt>
<rscale>  0 0.12499933E+03</rscale>
<asrwt>0</asrwt>
<pdfrwt beam="2">  1        1 0.64893665E-01 0.12499933E+03</pdfrwt>
<pdfrwt beam="1">  1       -1 0.14247096E-02 0.12499933E+03</pdfrwt>
<totfact> 0.58095207E+04</totfact>
</mgrwt>
</event>
<event>
 5    1  0.8303392E-059  0.1249983E+03  0.7818608E-02  0.1235072E+00
          1   -1    0    0  501    0  0.00000000000E+00  0.00000000000E+00  0.34235882160E+03  0.34235882163E+03  0.46700000000E-02 0. -1.
         -1   -1    0    0    0  501 -0.00000000000E+00 -0.00000000000E+00 -0.11409503971E+02  0.11409504926E+02  0.46700000000E-02 0.  1.
         25    2    1    2    0    0  0.00000000000E+00  0.00000000000E+00  0.33094931763E+03  0.35376832655E+03  0.12499831213E+03 0.  0.
        -11    1    3    3    0    0 -0.51435866739E+02 -0.32941726615E+02  0.12799861178E+03  0.14182542211E+03  0.51100000000E-03 0.  1.
         11    1    3    3    0    0  0.51435866739E+02  0.32941726615E+02  0.20295070585E+03  0.21194290444E+03  0.51100000000E-03 0. -1.
<mgrwt>
<rscale>  0 0.12499831E+03</rscale>
<asrwt>0</asrwt>
<pdfrwt beam="1">  1        1 0.52670582E-01 0.12499831E+03</pdfrwt>
<pdfrwt beam="2">  1       -1 0.17553086E-02 0.12499831E+03</pdfrwt>
<totfact> 0.55942361E+04</totfact>
</mgrwt>
</event>
<event>
 5    1  0.8303392E-059  0.1250010E+03  0.7818608E-02  0.1235068E+00
          1   -1    0    0  501    0  0.00000000000E+00  0.00000000000E+00  0.47950474226E+02  0.47950474454E+02  0.46700000000E-02 0. -1.
         -1   -1    0    0    0  501 -0.00000000000E+00 -0.00000000000E+00 -0.81465570935E+02  0.81465571069E+02  0.46700000000E-02 0.  1.
         25    2    1    2    0    0  0.00000000000E+00  0.00000000000E+00 -0.33515096708E+02  0.12941604552E+03  0.12500100452E+03 0.  0.
        -11    1    3    3    0    0 -0.65762453681E+01 -0.61696239572E+02 -0.24549306896E+02  0.66725867921E+02  0.51100000000E-03 0.  1.
         11    1    3    3    0    0  0.65762453681E+01  0.61696239572E+02 -0.89657898120E+01  0.62690177601E+02  0.51100000000E-03 0. -1.
<mgrwt>
<rscale>  0 0.12500100E+03</rscale>
<asrwt>0</asrwt>
<pdfrwt beam="1">  1        1 0.73769961E-02 0.12500100E+03</pdfrwt>
<pdfrwt beam="2">  1       -1 0.12533165E-01 0.12500100E+03</pdfrwt>
<totfact> 0.37554561E+04</totfact>
</mgrwt>
</event>
<event>
 5    1  0.8303392E-059  0.1249997E+03  0.7818608E-02  0.1235070E+00
         -1   -1    0    0    0  501 -0.00000000000E+00  0.00000000000E+00  0.46770995887E+02  0.46770996121E+02  0.46700000000E-02 0.  1.
          1   -1    0    0  501    0  0.00000000000E+00 -0.00000000000E+00 -0.83518173406E+02  0.83518173537E+02  0.46700000000E-02 0. -1.
         25    2    1    2    0    0  0.00000000000E+00  0.00000000000E+00 -0.36747177519E+02  0.13028916966E+03  0.12499965070E+03 0.  0.
        -11    1    3    3    0    0  0.47719029106E+02  0.38127083901E+02 -0.45674063401E+01  0.61250644622E+02  0.51100000000E-03 0.  1.
         11    1    3    3    0    0 -0.47719029106E+02 -0.38127083901E+02 -0.32179771179E+02  0.69038525035E+02  0.51100000000E-03 0. -1.
<mgrwt>
<rscale>  0 0.12499965E+03</rscale>
<asrwt>0</asrwt>
<pdfrwt beam="2">  1        1 0.12848950E-01 0.12499965E+03</pdfrwt>
<pdfrwt beam="1">  1       -1 0.71955379E-02 0.12499965E+03</pdfrwt>
<totfact> 0.41853282E+04</totfact>
</mgrwt>
</event>
<event>
 5    1  0.8303392E-059  0.1249920E+03  0.7818608E-02  0.1235082E+00
         -1   -1    0    0    0  501 -0.00000000000E+00  0.00000000000E+00  0.29949350314E+02  0.29949350678E+02  0.46700000000E-02 0.  1.
          1   -1    0    0  501    0  0.00000000000E+00 -0.00000000000E+00 -0.13041185327E+03  0.13041185336E+03  0.46700000000E-02 0. -1.
         25    2    1    2    0    0  0.00000000000E+00  0.00000000000E+00 -0.10046250296E+03  0.16036120403E+03  0.12499200478E+03 0.  0.
        -11    1    3    3    0    0  0.75778796522E+01 -0.62008446185E+02 -0.52554335976E+02  0.81635959530E+02  0.51100000000E-03 0.  1.
         11    1    3    3    0    0 -0.75778796522E+01  0.62008446185E+02 -0.47908166984E+02  0.78725244505E+02  0.51100000000E-03 0. -1.
<mgrwt>
<rscale>  0 0.12499200E+03</rscale>
<asrwt>0</asrwt>
<pdfrwt beam="2">  1        1 0.20063362E-01 0.12499200E+03</pdfrwt>
<pdfrwt beam="1">  1       -1 0.46075924E-02 0.12499200E+03</pdfrwt>
<totfact> 0.45733565E+04</totfact>
</mgrwt>
</event>
<event>
 5    1  0.8303392E-059  0.1250141E+03  0.7818608E-02  0.1235047E+00
          1   -1    0    0  501    0  0.00000000000E+00  0.00000000000E+00  0.56407113331E+03  0.56407113333E+03  0.46700000000E-02 0. -1.
         -1   -1    0    0    0  501 -0.00000000000E+00 -0.00000000000E+00 -0.69266598944E+01  0.69266614687E+01  0.46700000000E-02 0.  1.
         25    2    1    2    0    0  0.00000000000E+00  0.00000000000E+00  0.55714447341E+03  0.57099779480E+03  0.12501406883E+03 0.  0.
        -11    1    3    3    0    0  0.45780400763E+02 -0.42558194685E+02  0.27724591926E+03  0.28420475853E+03  0.51100000000E-03 0.  1.
         11    1    3    3    0    0 -0.45780400763E+02  0.42558194685E+02  0.27989855416E+03  0.28679303626E+03  0.51100000000E-03 0. -1.
<mgrwt>
<rscale>  0 0.12501407E+03</rscale>
<asrwt>0</asrwt>
<pdfrwt beam="1">  1        1 0.86780184E-01 0.12501407E+03</pdfrwt>
<pdfrwt beam="2">  1       -1 0.10656400E-02 0.12501407E+03</pdfrwt>
<totfact> 0.60330390E+04</totfact>
</mgrwt>
</event>
<event>
 5    1  0.8303392E-059  0.1249967E+03  0.7818608E-02  0.1235074E+00
          1   -1    0    0  501    0  0.00000000000E+00  0.00000000000E+00  0.26947337790E+02  0.26947338194E+02  0.46700000000E-02 0. -1.
         -1   -1    0    0    0  501 -0.00000000000E+00 -0.00000000000E+00 -0.14495095819E+03  0.14495095827E+03  0.46700000000E-02 0.  1.
         25    2    1    2    0    0  0.00000000000E+00  0.00000000000E+00 -0.11800362041E+03  0.17189829646E+03  0.12499667955E+03 0.  0.
        -11    1    3    3    0    0 -0.60684732395E+02  0.14607122687E+02 -0.63358835699E+02  0.88940130652E+02  0.51100000000E-03 0.  1.
         11    1    3    3    0    0  0.60684732395E+02 -0.14607122687E+02 -0.54644784706E+02  0.82958165812E+02  0.51100000000E-03 0. -1.
<mgrwt>
<rscale>  0 0.12499668E+03</rscale>
<asrwt>0</asrwt>
<pdfrwt beam="1">  1        1 0.41457444E-02 0.12499668E+03</pdfrwt>
<pdfrwt beam="2">  1       -1 0.22300147E-01 0.12499668E+03</pdfrwt>
<totfact> 0.33079556E+04</totfact>
</mgrwt>
</event>
<event>
 5    1  0.8303392E-059  0.1249958E+03  0.7818608E-02  0.1235076E+00
         -1   -1    0    0    0  501 -0.00000000000E+00  0.00000000000E+00  0.38687418960E+02  0.38687419242E+02  0.46700000000E-02 0.  1.
          1   -1    0    0  501    0  0.00000000000E+00 -0.00000000000E+00 -0.10096278010E+03  0.10096278021E+03  0.46700000000E-02 0. -1.
         25    2    1    2    0    0  0.00000000000E+00  0.00000000000E+00 -0.62275361138E+02  0.13965019945E+03  0.12499583033E+03 0.  0.
        -11    1    3    3    0    0  0.18402114741E+02 -0.52395111663E+02  0.89618691082E+00  0.55539973932E+02  0.51100000000E-03 0.  1.
         11    1    3    3    0    0 -0.18402114741E+02  0.52395111663E+02 -0.63171548048E+02  0.84110225515E+02  0.51100000000E-03 0. -1.
<mgrwt>
<rscale>  0 0.12499583E+03</rscale>
<asrwt>0</asrwt>
<pdfrwt beam="2">  1        1 0.15532735E-01 0.12499583E+03</pdfrwt>
<pdfrwt beam="1">  1       -1 0.59519107E-02 0.12499583E+03</pdfrwt>
<totfact> 0.43441045E+04</totfact>
</mgrwt>
</event>
<event>
 5    1  0.8303392E-059  0.1249997E+03  0.7818608E-02  0.1235070E+00
         -1   -1    0    0    0  501 -0.00000000000E+00  0.00000000000E+00  0.12649289840E+02  0.12649290702E+02  0.46700000000E-02 0.  1.
          1   -1    0    0  501    0  0.00000000000E+00 -0.00000000000E+00 -0.30881024697E+03  0.30881024701E+03  0.46700000000E-02 0. -1.
         25    2    1    2    0    0  0.00000000000E+00  0.00000000000E+00 -0.29616095713E+03  0.32145953771E+03  0.12499968742E+03 0.  0.
        -11    1    3    3    0    0  0.57653771969E+02 -0.21128950023E+02 -0.17805360488E+03  0.18834403671E+03  0.51100000000E-03 0.  1.
         11    1    3    3    0    0 -0.57653771969E+02  0.21128950023E+02 -0.11810735225E+03  0.13311550100E+03  0.51100000000E-03 0. -1.
<mgrwt>
<rscale>  0 0.12499969E+03</rscale>
<asrwt>0</asrwt>
<pdfrwt beam="2">  1        1 0.47509263E-01 0.12499969E+03</pdfrwt>
<pdfrwt beam="1">  1       -1 0.19460449E-02 0.12499969E+03</pdfrwt>
<totfact> 0.54807625E+04</totfact>
</mgrwt>
</event>
<event>
 5    1  0.8303392E-059  0.1250005E+03  0.7818608E-02  0.1235068E+00
         -1   -1    0    0    0  501 -0.00000000000E+00  0.00000000000E+00  0.17650182154E+03  0.17650182160E+03  0.46700000000E-02 0.  1.
          1   -1    0    0  501    0  0.00000000000E+00 -0.00000000000E+00 -0.22131678196E+02  0.22131678688E+02  0.46700000000E-02 0. -1.
         25    2    1    2    0    0  0.00000000000E+00  0.00000000000E+00  0.15437014335E+03  0.19863350029E+03  0.12500050513E+03 0.  0.
        -11    1    3    3    0    0 -0.88693323279E+00  0.61464831628E+02  0.59237158018E+02  0.85368337619E+02  0.51100000000E-03 0.  1.
         11    1    3    3    0    0  0.88693323279E+00 -0.61464831628E+02  0.95132985329E+02  0.11326516267E+03  0.51100000000E-03 0. -1.
<mgrwt>
<rscale>  0 0.12500051E+03</rscale>
<asrwt>0</asrwt>
<pdfrwt beam="2">  1        1 0.34048736E-02 0.12500051E+03</pdfrwt>
<pdfrwt beam="1">  1       -1 0.27154126E-01 0.12500051E+03</pdfrwt>
<totfact> 0.31416096E+04</totfact>
</mgrwt>
</event>
<event>
 5    1  0.8303392E-059  0.1250134E+03  0.7818608E-02  0.1235048E+00
          1   -1    0    0  501    0  0.00000000000E+00  0.00000000000E+00  0.46313887053E+02  0.46313887288E+02  0.46700000000E-02 0. -1.
         -1   -1    0    0    0  501 -0.00000000000E+00 -0.00000000000E+00 -0.84360996132E+02  0.84360996261E+02  0.46700000000E-02 0.  1.
         25    2    1    2    0    0  0.00000000000E+00  0.00000000000E+00 -0.38047109079E+02  0.13067488355E+03  0.12501337001E+03 0.  0.
        -11    1    3    3    0    0 -0.41409167249E+02 -0.38203196577E+02 -0.47321361413E+02  0.73576590076E+02  0.51100000000E-03 0.  1.
         11    1    3    3    0    0  0.41409167249E+02  0.38203196577E+02  0.92742523332E+01  0.57098293473E+02  0.51100000000E-03 0. -1.
<mgrwt>
<rscale>  0 0.12501337E+03</rscale>
<asrwt>0</asrwt>
<pdfrwt beam="1">  1        1 0.71252134E-02 0.12501337E+03</pdfrwt>
<pdfrwt beam="2">  1       -1 0.12978615E-01 0.12501337E+03</pdfrwt>
<totfact> 0.37281421E+04</totfact>
</mgrwt>
</event>
<event>
 5    1  0.8303392E-059  0.1249988E+03  0.7818608E-02  0.1235071E+00
         -1   -1    0    0    0  501 -0.00000000000E+00  0.00000000000E+00  0.24752937079E+02  0.24752937520E+02  0.46700000000E-02 0.  1.
          1   -1    0    0  501    0  0.00000000000E+00 -0.00000000000E+00 -0.15780640025E+03  0.15780640032E+03  0.46700000000E-02 0. -1.
         25    2    1    2    0    0  0.00000000000E+00  0.00000000000E+00 -0.13305346317E+03  0.18255933784E+03  0.12499875108E+03 0.  0.
        -11    1    3    3    0    0  0.11757963518E+02 -0.43878152731E+02 -0.38339641977E+01  0.45587731627E+02  0.51100000000E-03 0.  1.
         11    1    3    3    0    0 -0.11757963518E+02  0.43878152731E+02 -0.12921949897E+03  0.13697160621E+03  0.51100000000E-03 0. -1.
<mgrwt>
<rscale>  0 0.12499875E+03</rscale>
<asrwt>0</asrwt>
<pdfrwt beam="2">  1        1 0.24277907E-01 0.12499875E+03</pdfrwt>
<pdfrwt beam="1">  1       -1 0.38081443E-02 0.12499875E+03</pdfrwt>
<totfact> 0.47564108E+04</totfact>
</mgrwt>
</event>
<event>
 5    1  0.8303392E-059  0.1249987E+03  0.7818608E-02  0.1235071E+00
          1   -1    0    0  501    0  0.00000000000E+00  0.00000000000E+00  0.49007693364E+02  0.49007693586E+02  0.46700000000E-02 0.  1.
         -1   -1    0    0    0  501 -0.00000000000E+00 -0.00000000000E+00 -0.79705253209E+02  0.79705253346E+02  0.46700000000E-02 0. -1.
         25    2    1    2    0    0  0.00000000000E+00  0.00000000000E+00 -0.30697559845E+02  0.12871294693E+03  0.12499873010E+03 0.  0.
        -11    1    3    3    0    0  0.62077969389E+02 -0.27094293522E+01 -0.22268223858E+02  0.66006735148E+02  0.51100000000E-03 0. -1.
         11    1    3    3    0    0 -0.62077969389E+02  0.27094293522E+01 -0.84293359872E+01  0.62706211784E+02  0.51100000000E-03 0.  1.
<mgrwt>
<rscale>  0 0.12499873E+03</rscale>
<asrwt>0</asrwt>
<pdfrwt beam="1">  1        1 0.75396452E-02 0.12499873E+03</pdfrwt>
<pdfrwt beam="2">  1       -1 0.12262347E-01 0.12499873E+03</pdfrwt>
<totfact> 0.37721206E+04</totfact>
</mgrwt>
</event>
<event>
 5    1  0.8303392E-059  0.1250008E+03  0.7818608E-02  0.1235068E+00
         -1   -1    0    0    0  501 -0.00000000000E+00  0.00000000000E+00  0.18364543691E+02  0.18364544285E+02  0.46700000000E-02 0.  1.
          1   -1    0    0  501    0  0.00000000000E+00 -0.00000000000E+00 -0.21270891046E+03  0.21270891051E+03  0.46700000000E-02 0. -1.
         25    2    1    2    0    0  0.00000000000E+00  0.00000000000E+00 -0.19434436677E+03  0.23107345480E+03  0.12500083446E+03 0.  0.
        -11    1    3    3    0    0  0.55261099192E+02 -0.21843839016E+02 -0.61357509103E+02  0.85414789764E+02  0.51100000000E-03 0.  1.
         11    1    3    3    0    0 -0.55261099192E+02  0.21843839016E+02 -0.13298685767E+03  0.14565866503E+03  0.51100000000E-03 0. -1.
<mgrwt>
<rscale>  0 0.12500083E+03</rscale>
<asrwt>0</asrwt>
<pdfrwt beam="2">  1        1 0.32724446E-01 0.12500083E+03</pdfrwt>
<pdfrwt beam="1">  1       -1 0.28253146E-02 0.12500083E+03</pdfrwt>
<totfact> 0.50670062E+04</totfact>
</mgrwt>
</event>
<event>
 5    1  0.8303392E-059  0.1249983E+03  0.7818608E-02  0.1235072E+00
         -1   -1    0    0    0  501 -0.00000000000E+00  0.00000000000E+00  0.47423062603E+03  0.47423062606E+03  0.46700000000E-02 0.  1.
          1   -1    0    0  501    0  0.00000000000E+00 -0.00000000000E+00 -0.82368009749E+01  0.82368022988E+01  0.46700000000E-02 0. -1.
         25    2    1    2    0    0  0.00000000000E+00  0.00000000000E+00  0.46599382506E+03  0.48246742836E+03  0.12499829771E+03 0.  0.
        -11    1    3    3    0    0  0.51366278306E+02  0.28013990468E+02  0.14818107726E+03  0.15931387218E+03  0.51100000000E-03 0. -1.
         11    1    3    3    0    0 -0.51366278306E+02 -0.28013990468E+02  0.31781274780E+03  0.32315355618E+03  0.51100000000E-03 0.  1.
<mgrwt>
<rscale>  0 0.12499830E+03</rscale>
<asrwt>0</asrwt>
<pdfrwt beam="2">  1        1 0.12671998E-02 0.12499830E+03</pdfrwt>
<pdfrwt beam="1">  1       -1 0.72958586E-01 0.12499830E+03</pdfrwt>
<totfact> 0.21033353E+04</totfact>
</mgrwt>
</event>
<event>
 5    1  0.8303392E-059  0.1249998E+03  0.7818608E-02  0.1235070E+00
         -1   -1    0    0    0  501 -0.00000000000E+00  0.00000000000E+00  0.46079619480E+03  0.46079619483E+03  0.46700000000E-02 0.  1.
          1   -1    0    0  501    0  0.00000000000E+00 -0.00000000000E+00 -0.84771533334E+01  0.84771546197E+01  0.46700000000E-02 0. -1.
         25    2    1    2    0    0  0.00000000000E+00  0.00000000000E+00  0.45231904147E+03  0.46927334945E+03  0.12499984490E+03 0.  0.
        -11    1    3    3    0    0 -0.30742155853E+02 -0.54347712563E+02  0.21588763954E+03  0.22473590482E+03  0.51100000000E-03 0.  1.
         11    1    3    3    0    0  0.30742155853E+02  0.54347712563E+02  0.23643140193E+03  0.24453744463E+03  0.51100000000E-03 0. -1.
<mgrwt>
<rscale>  0 0.12499984E+03</rscale>
<asrwt>0</asrwt>
<pdfrwt beam="2">  1        1 0.13041775E-02 0.12499984E+03</pdfrwt>
<pdfrwt beam="1">  1       -1 0.70891724E-01 0.12499984E+03</pdfrwt>
<totfact> 0.21390164E+04</totfact>
</mgrwt>
</event>
<event>
 5    1  0.8303392E-059  0.1250017E+03  0.7818608E-02  0.1235067E+00
          1   -1    0    0  501    0  0.00000000000E+00  0.00000000000E+00  0.44018927555E+02  0.44018927803E+02  0.46700000000E-02 0. -1.
         -1   -1    0    0    0  501 -0.00000000000E+00 -0.00000000000E+00 -0.88742699066E+02  0.88742699189E+02  0.46700000000E-02 0.  1.
         25    2    1    2    0    0  0.00000000000E+00  0.00000000000E+00 -0.44723771511E+02  0.13276162699E+03  0.12500173544E+03 0.  0.
        -11    1    3    3    0    0  0.41179751748E+02 -0.76482515005E+01 -0.71632368225E+02  0.82978695355E+02  0.51100000000E-03 0.  1.
         11    1    3    3    0    0 -0.41179751748E+02  0.76482515005E+01  0.26908596714E+02  0.49782931637E+02  0.51100000000E-03 0. -1.
<mgrwt>
<rscale>  0 0.12500174E+03</rscale>
<asrwt>0</asrwt>
<pdfrwt beam="1">  1        1 0.67721427E-02 0.12500174E+03</pdfrwt>
<pdfrwt beam="2">  1       -1 0.13652723E-01 0.12500174E+03</pdfrwt>
<totfact> 0.36907278E+04</totfact>
</mgrwt>
</event>
<event>
 5    1  0.8303392E-059  0.1250082E+03  0.7818608E-02  0.1235056E+00
         -1   -1    0    0    0  501 -0.00000000000E+00  0.00000000000E+00  0.32454200562E+03  0.32454200565E+03  0.46700000000E-02 0.  1.
          1   -1    0    0  501    0  0.00000000000E+00 -0.00000000000E+00 -0.12037770432E+02  0.12037771338E+02  0.46700000000E-02 0. -1.
         25    2    1    2    0    0  0.00000000000E+00  0.00000000000E+00  0.31250423519E+03  0.33657977699E+03  0.12500819681E+03 0.  0.
        -11    1    3    3    0    0  0.51200242307E+02 -0.32133797387E+02  0.19905434669E+03  0.20803047537E+03  0.51100000000E-03 0.  1.
         11    1    3    3    0    0 -0.51200242307E+02  0.32133797387E+02  0.11344988850E+03  0.12854930162E+03  0.51100000000E-03 0. -1.
<mgrwt>
<rscale>  0 0.12500820E+03</rscale>
<asrwt>0</asrwt>
<pdfrwt beam="2">  1        1 0.18519646E-02 0.12500820E+03</pdfrwt>
<pdfrwt beam="1">  1       -1 0.49929543E-01 0.12500820E+03</pdfrwt>
<totfact> 0.25476333E+04</totfact>
</mgrwt>
</event>
<event>
 5    1  0.8303392E-059  0.1250001E+03  0.7818608E-02  0.1235069E+00
         -1   -1    0    0    0  501 -0.00000000000E+00  0.00000000000E+00  0.18388339752E+02  0.18388340345E+02  0.46700000000E-02 0. -1.
          1   -1    0    0  501    0  0.00000000000E+00 -0.00000000000E+00 -0.21243129522E+03  0.21243129527E+03  0.46700000000E-02 0.  1.
         25    2    1    2    0    0  0.00000000000E+00  0.00000000000E+00 -0.19404295547E+03  0.23081963562E+03  0.12500014248E+03 0.  0.
        -11    1    3    3    0    0 -0.44178806901E+01 -0.56249257312E+02 -0.47378253010E+02  0.73676288428E+02  0.51100000000E-03 0. -1.
         11    1    3    3    0    0  0.44178806901E+01  0.56249257312E+02 -0.14666470246E+03  0.15714334719E+03  0.51100000000E-03 0.  1.
<mgrwt>
<rscale>  0 0.12500014E+03</rscale>
<asrwt>0</asrwt>
<pdfrwt beam="2">  1        1 0.32681736E-01 0.12500014E+03</pdfrwt>
<pdfrwt beam="1">  1       -1 0.28289755E-02 0.12500014E+03</pdfrwt>
<totfact> 0.50656713E+04</totfact>
</mgrwt>
</event>
<event>
 5    1  0.8303392E-059  0.1249994E+03  0.7818608E-02  0.1235070E+00
          1   -1    0    0  501    0  0.00000000000E+00  0.00000000000E+00  0.31209635616E+03  0.31209635619E+03  0.46700000000E-02 0. -1.
         -1   -1    0    0    0  501 -0.00000000000E+00 -0.00000000000E+00 -0.12516036715E+02  0.12516037586E+02  0.46700000000E-02 0.  1.
         25    2    1    2    0    0  0.00000000000E+00  0.00000000000E+00  0.29958031944E+03  0.32461239378E+03  0.12499935359E+03 0.  0.
        -11    1    3    3    0    0 -0.32899876209E+02 -0.41890986961E+02  0.64884502816E+02  0.83947932370E+02  0.51100000000E-03 0.  1.
         11    1    3    3    0    0  0.32899876209E+02  0.41890986961E+02  0.23469581663E+03  0.24066446141E+03  0.51100000000E-03 0. -1.
<mgrwt>
<rscale>  0 0.12499935E+03</rscale>
<asrwt>0</asrwt>
<pdfrwt beam="1">  1        1 0.48014823E-01 0.12499935E+03</pdfrwt>
<pdfrwt beam="2">  1       -1 0.19255442E-02 0.12499935E+03</pdfrwt>
<totfact> 0.54925560E+04</totfact>
</mgrwt>
</event>
<event>
 5    1  0.8303392E-059  0.1249967E+03  0.7818608E-02  0.1235074E+00
         -1   -1    0    0    0  501 -0.00000000000E+00  0.00000000000E+00  0.51634309352E+02  0.51634309563E+02  0.46700000000E-02 0.  1.
          1   -1    0    0  501    0  0.00000000000E+00 -0.00000000000E+00 -0.75648259851E+02  0.75648259995E+02  0.46700000000E-02 0. -1.
         25    2    1    2    0    0  0.00000000000E+00  0.00000000000E+00 -0.24013950499E+02  0.12728256956E+03  0.12499673074E+03 0.  0.
        -11    1    3    3    0    0 -0.44220760110E+02 -0.59312290317E+01 -0.56572492597E+02  0.72049302713E+02  0.51100000000E-03 0. -1.
         11    1    3    3    0    0  0.44220760110E+02  0.59312290317E+01  0.32558542098E+02  0.55233266845E+02  0.51100000000E-03 0.  1.
<mgrwt>
<rscale>  0 0.12499673E+03</rscale>
<asrwt>0</asrwt>
<pdfrwt beam="2">  1        1 0.11638194E-01 0.12499673E+03</pdfrwt>
<pdfrwt beam="1">  1       -1 0.79437399E-02 0.12499673E+03</pdfrwt>
<totfact> 0.41061083E+04</totfact>
</mgrwt>
</event>
<event>
 5    1  0.8303392E-059  0.1249964E+03  0.7818608E-02  0.1235075E+00
          1   -1    0    0  501    0  0.00000000000E+00  0.00000000000E+00  0.55020990731E+02  0.55020990930E+02  0.46700000000E-02 0. -1.
         -1   -1    0    0    0  501 -0.00000000000E+00 -0.00000000000E+00 -0.70991597400E+02  0.70991597554E+02  0.46700000000E-02 0.  1.
         25    2    1    2    0    0  0.00000000000E+00  0.00000000000E+00 -0.15970606669E+02  0.12601258848E+03  0.12499644867E+03 0.  0.
        -11    1    3    3    0    0 -0.50003129580E+02  0.28902086970E+02  0.16091570405E+02  0.59954834979E+02  0.51100000000E-03 0. -1.
         11    1    3    3    0    0  0.50003129580E+02 -0.28902086970E+02 -0.32062177074E+02  0.66057753504E+02  0.51100000000E-03 0.  1.
<mgrwt>
<rscale>  0 0.12499645E+03</rscale>
<asrwt>0</asrwt>
<pdfrwt beam="1">  1        1 0.84647679E-02 0.12499645E+03</pdfrwt>
<pdfrwt beam="2">  1       -1 0.10921784E-01 0.12499645E+03</pdfrwt>
<totfact> 0.38598668E+04</totfact>
</mgrwt>
</event>
<event>
 5    1  0.8303392E-059  0.1250006E+03  0.7818608E-02  0.1235068E+00
          1   -1    0    0  501    0  0.00000000000E+00  0.00000000000E+00  0.10816545856E+02  0.10816546864E+02  0.46700000000E-02 0. -1.
         -1   -1    0    0    0  501 -0.00000000000E+00 -0.00000000000E+00 -0.36114015210E+03  0.36114015213E+03  0.46700000000E-02 0.  1.
         25    2    1    2    0    0  0.00000000000E+00  0.00000000000E+00 -0.35032360624E+03  0.37195669899E+03  0.12500062734E+03 0.  0.
        -11    1    3    3    0    0 -0.62410076530E+02  0.33572516506E+01 -0.17522259770E+03  0.18603560825E+03  0.51100000000E-03 0.  1.
         11    1    3    3    0    0  0.62410076530E+02 -0.33572516506E+01 -0.17510100854E+03  0.18592109074E+03  0.51100000000E-03 0. -1.
<mgrwt>
<rscale>  0 0.12500063E+03</rscale>
<asrwt>0</asrwt>
<pdfrwt beam="1">  1        1 0.16640843E-02 0.12500063E+03</pdfrwt>
<pdfrwt beam="2">  1       -1 0.55560014E-01 0.12500063E+03</pdfrwt>
<totfact> 0.24289686E+04</totfact>
</mgrwt>
</event>
<event>
 5    1  0.8303392E-059  0.1249984E+03  0.7818608E-02  0.1235072E+00
         -1   -1    0    0    0  501 -0.00000000000E+00  0.00000000000E+00  0.64719650732E+02  0.64719650900E+02  0.46700000000E-02 0.  1.
          1   -1    0    0  501    0  0.00000000000E+00 -0.00000000000E+00 -0.60354959520E+02  0.60354959701E+02  0.46700000000E-02 0. -1.
         25    2    1    2    0    0  0.00000000000E+00  0.00000000000E+00  0.43646912114E+01  0.12507461060E+03  0.12499843074E+03 0.  0.
        -11    1    3    3    0    0  0.52834098448E+02  0.32660844250E+02  0.91132701565E+01  0.62779171698E+02  0.51100000000E-03 0.  1.
         11    1    3    3    0    0 -0.52834098448E+02 -0.32660844250E+02 -0.47485789451E+01  0.62295438903E+02  0.51100000000E-03 0. -1.
<mgrwt>
<rscale>  0 0.12499843E+03</rscale>
<asrwt>0</asrwt>
<pdfrwt beam="2">  1        1 0.92853784E-02 0.12499843E+03</pdfrwt>
<pdfrwt beam="1">  1       -1 0.99568694E-02 0.12499843E+03</pdfrwt>
<totfact> 0.39301765E+04</totfact>
</mgrwt>
</event>
<event>
 5    1  0.8303392E-059  0.1250002E+03  0.7818608E-02  0.1235069E+00
         -1   -1    0    0    0  501 -0.00000000000E+00  0.00000000000E+00  0.90478482234E+01  0.90478494286E+01  0.46700000000E-02 0.  1.
          1   -1    0    0  501    0  0.00000000000E+00 -0.00000000000E+00 -0.43173385079E+03  0.43173385082E+03  0.46700000000E-02 0. -1.
         25    2    1    2    0    0  0.00000000000E+00  0.00000000000E+00 -0.42268600257E+03  0.44078170025E+03  0.12500020202E+03 0.  0.
        -11    1    3    3    0    0  0.77847792862E+01  0.60903532335E+02 -0.17015685050E+03  0.18089554116E+03  0.51100000000E-03 0.  1.
         11    1    3    3    0    0 -0.77847792862E+01 -0.60903532335E+02 -0.25252915207E+03  0.25988615909E+03  0.51100000000E-03 0. -1.
<mgrwt>
<rscale>  0 0.12500020E+03</rscale>
<asrwt>0</asrwt>
<pdfrwt beam="2">  1        1 0.66420577E-01 0.12500020E+03</pdfrwt>
<pdfrwt beam="1">  1       -1 0.13919771E-02 0.12500020E+03</pdfrwt>
<totfact> 0.58315025E+04</totfact>
</mgrwt>
</event>
<event>
 5    1  0.8303392E-059  0.1250014E+03  0.7818608E-02  0.1235067E+00
          1   -1    0    0  501    0  0.00000000000E+00  0.00000000000E+00  0.22393791940E+03  0.22393791945E+03  0.46700000000E-02 0. -1.
         -1   -1    0    0    0  501 -0.00000000000E+00 -0.00000000000E+00 -0.17443828481E+02  0.17443829106E+02  0.46700000000E-02 0.  1.
         25    2    1    2    0    0  0.00000000000E+00  0.00000000000E+00  0.20649409092E+03  0.24138174856E+03  0.12500135580E+03 0.  0.
        -11    1    3    3    0    0 -0.54751299532E+02  0.28930836180E+02  0.86903083056E+02  0.10670915578E+03  0.51100000000E-03 0.  1.
         11    1    3    3    0    0  0.54751299532E+02 -0.28930836180E+02  0.11959100786E+03  0.13467259278E+03  0.51100000000E-03 0. -1.
<mgrwt>
<rscale>  0 0.12500136E+03</rscale>
<asrwt>0</asrwt>
<pdfrwt beam="1">  1        1 0.34451988E-01 0.12500136E+03</pdfrwt>
<pdfrwt beam="2">  1       -1 0.26836659E-02 0.12500136E+03</pdfrwt>
<totfact> 0.51228843E+04</totfact>
</mgrwt>
</event>
<event>
 5    1  0.8303392E-059  0.1250011E+03  0.7818608E-02  0.1235068E+00
         -1   -1    0    0    0  501 -0.00000000000E+00  0.00000000000E+00  0.11749353578E+02  0.11749354506E+02  0.46700000000E-02 0.  1.
          1   -1    0    0  501    0  0.00000000000E+00 -0.00000000000E+00 -0.33247098357E+03  0.33247098360E+03  0.46700000000E-02 0. -1.
         25    2    1    2    0    0  0.00000000000E+00  0.00000000000E+00 -0.32072162999E+03  0.34422033810E+03  0.12500110888E+03 0.  0.
        -11    1    3    3    0    0  0.18904585432E+02 -0.59096474248E+02 -0.18106751447E+03  0.19140329520E+03  0.51100000000E-03 0.  1.
         11    1    3    3    0    0 -0.18904585432E+02  0.59096474248E+02 -0.13965411552E+03  0.15281704290E+03  0.51100000000E-03 0. -1.
<mgrwt>
<rscale>  0 0.12500111E+03</rscale>
<asrwt>0</asrwt>
<pdfrwt beam="2">  1        1 0.51149375E-01 0.12500111E+03</pdfrwt>
<pdfrwt beam="1">  1       -1 0.18075932E-02 0.12500111E+03</pdfrwt>
<totfact> 0.55620119E+04</totfact>
</mgrwt>
</event>
<event>
 5    1  0.8303392E-059  0.1250006E+03  0.7818608E-02  0.1235068E+00
          1   -1    0    0  501    0  0.00000000000E+00  0.00000000000E+00  0.74033165435E+01  0.74033180164E+01  0.46700000000E-02 0. -1.
         -1   -1    0    0    0  501 -0.00000000000E+00 -0.00000000000E+00 -0.52764056174E+03  0.52764056176E+03  0.46700000000E-02 0.  1.
         25    2    1    2    0    0  0.00000000000E+00  0.00000000000E+00 -0.52023724520E+03  0.53504387978E+03  0.12500064799E+03 0.  0.
        -11    1    3    3    0    0 -0.59991183078E+02  0.16917276538E+02 -0.27980543967E+03  0.28666395023E+03  0.51100000000E-03 0.  1.
         11    1    3    3    0    0  0.59991183078E+02 -0.16917276538E+02 -0.24043180553E+03  0.24837992955E+03  0.51100000000E-03 0. -1.
<mgrwt>
<rscale>  0 0.12500065E+03</rscale>
<asrwt>0</asrwt>
<pdfrwt beam="1">  1        1 0.11389723E-02 0.12500065E+03</pdfrwt>
<pdfrwt beam="2">  1       -1 0.81175442E-01 0.12500065E+03</pdfrwt>
<totfact> 0.19678883E+04</totfact>
</mgrwt>
</event>
<event>
 5    1  0.8303392E-059  0.1250000E+03  0.7818608E-02  0.1235069E+00
          1   -1    0    0  501    0  0.00000000000E+00  0.00000000000E+00  0.13857074066E+02  0.13857074853E+02  0.46700000000E-02 0. -1.
         -1   -1    0    0    0  501 -0.00000000000E+00 -0.00000000000E+00 -0.28189562335E+03  0.28189562339E+03  0.46700000000E-02 0.  1.
         25    2    1    2    0    0  0.00000000000E+00  0.00000000000E+00 -0.26803854929E+03  0.29575269825E+03  0.12499997846E+03 0.  0.
        -11    1    3    3    0    0  0.45962626215E+02  0.31968087065E+02 -0.19974730833E+03  0.20744519465E+03  0.51100000000E-03 0.  1.
         11    1    3    3    0    0 -0.45962626215E+02 -0.31968087065E+02 -0.68291240962E+02  0.88307503597E+02  0.51100000000E-03 0. -1.
<mgrwt>
<rscale>  0 0.12499998E+03</rscale>
<asrwt>0</asrwt>
<pdfrwt beam="1">  1        1 0.21318578E-02 0.12499998E+03</pdfrwt>
<pdfrwt beam="2">  1       -1 0.43368553E-01 0.12499998E+03</pdfrwt>
<totfact> 0.26979624E+04</totfact>
</mgrwt>
</event>
<event>
 5    1  0.8303392E-059  0.1249999E+03  0.7818608E-02  0.1235069E+00
         -1   -1    0    0    0  501 -0.00000000000E+00  0.00000000000E+00  0.11261872357E+03  0.11261872367E+03  0.46700000000E-02 0.  1.
          1   -1    0    0  501    0  0.00000000000E+00 -0.00000000000E+00 -0.34685569984E+02  0.34685570298E+02  0.46700000000E-02 0. -1.
         25    2    1    2    0    0  0.00000000000E+00  0.00000000000E+00  0.77933153586E+02  0.14730429396E+03  0.12499991437E+03 0.  0.
        -11    1    3    3    0    0  0.53743552655E+02  0.29088654194E+00  0.76561993685E+02  0.93542465994E+02  0.51100000000E-03 0. -1.
         11    1    3    3    0    0 -0.53743552655E+02 -0.29088654194E+00  0.13711599007E+01  0.53761827970E+02  0.51100000000E-03 0.  1.
<mgrwt>
<rscale>  0 0.12499991E+03</rscale>
<asrwt>0</asrwt>
<pdfrwt beam="2">  1        1 0.53362416E-02 0.12499991E+03</pdfrwt>
<pdfrwt beam="1">  1       -1 0.17325957E-01 0.12499991E+03</pdfrwt>
<totfact> 0.35086588E+04</totfact>
</mgrwt>
</event>
<event>
 5    1  0.8303392E-059  0.1250006E+03  0.7818608E-02  0.1235068E+00
         -1   -1    0    0    0  501 -0.00000000000E+00  0.00000000000E+00  0.66152680958E+02  0.66152681123E+02  0.46700000000E-02 0.  1.
          1   -1    0    0  501    0  0.00000000000E+00 -0.00000000000E+00 -0.59049586523E+02  0.59049586708E+02  0.46700000000E-02 0. -1.
         25    2    1    2    0    0  0.00000000000E+00  0.00000000000E+00  0.71030944346E+01  0.12520226783E+03  0.12500061568E+03 0.  0.
        -11    1    3    3    0    0  0.42245253597E+00 -0.61856036397E+02  0.12506931364E+02  0.63109199308E+02  0.51100000000E-03 0.  1.
         11    1    3    3    0    0 -0.42245253597E+00  0.61856036397E+02 -0.54038369298E+01  0.62093068523E+02  0.51100000000E-03 0. -1.
<mgrwt>
<rscale>  0 0.12500062E+03</rscale>
<asrwt>0</asrwt>
<pdfrwt beam="2">  1        1 0.90845518E-02 0.12500062E+03</pdfrwt>
<pdfrwt beam="1">  1       -1 0.10177336E-01 0.12500062E+03</pdfrwt>
<totfact> 0.39132593E+04</totfact>
</mgrwt>
</event>
<event>
 5    1  0.8303392E-059  0.1249934E+03  0.7818608E-02  0.1235080E+00
          1   -1    0    0  501    0  0.00000000000E+00  0.00000000000E+00  0.25948711755E+02  0.25948712176E+02  0.46700000000E-02 0. -1.
         -1   -1    0    0    0  501 -0.00000000000E+00 -0.00000000000E+00 -0.15052150954E+03  0.15052150962E+03  0.46700000000E-02 0.  1.
         25    2    1    2    0    0  0.00000000000E+00  0.00000000000E+00 -0.12457279779E+03  0.17647022179E+03  0.12499342875E+03 0.  0.
        -11    1    3    3    0    0 -0.18154192507E+02  0.46580525434E+02 -0.11523531698E+03  0.12561249275E+03  0.51100000000E-03 0.  1.
         11    1    3    3    0    0  0.18154192507E+02 -0.46580525434E+02 -0.93374808114E+01  0.50857729044E+02  0.51100000000E-03 0. -1.
<mgrwt>
<rscale>  0 0.12499343E+03</rscale>
<asrwt>0</asrwt>
<pdfrwt beam="1">  1        1 0.39921096E-02 0.12499343E+03</pdfrwt>
<pdfrwt beam="2">  1       -1 0.23157155E-01 0.12499343E+03</pdfrwt>
<totfact> 0.32770941E+04</totfact>
</mgrwt>
</event>
<event>
 5    1  0.8303392E-059  0.1250003E+03  0.7818608E-02  0.1235069E+00
         -1   -1    0    0    0  501 -0.00000000000E+00  0.00000000000E+00  0.16062125044E+03  0.16062125051E+03  0.46700000000E-02 0.  1.
          1   -1    0    0  501    0  0.00000000000E+00 -0.00000000000E+00 -0.24319734742E+02  0.24319735191E+02  0.46700000000E-02 0. -1.
         25    2    1    2    0    0  0.00000000000E+00  0.00000000000E+00  0.13630151570E+03  0.18494098570E+03  0.12500026004E+03 0.  0.
        -11    1    3    3    0    0 -0.49488711986E+02  0.29587266395E+02  0.10383545179E+03  0.11877011407E+03  0.51100000000E-03 0.  1.
         11    1    3    3    0    0  0.49488711986E+02 -0.29587266395E+02  0.32466063910E+02  0.66170871634E+02  0.51100000000E-03 0. -1.
<mgrwt>
<rscale>  0 0.12500026E+03</rscale>
<asrwt>0</asrwt>
<pdfrwt beam="2">  1        1 0.37414979E-02 0.12500026E+03</pdfrwt>
<pdfrwt beam="1">  1       -1 0.24710960E-01 0.12500026E+03</pdfrwt>
<totfact> 0.32223321E+04</totfact>
</mgrwt>
</event>
<event>
 5    1  0.8303392E-059  0.1249996E+03  0.7818608E-02  0.1235070E+00
         -1   -1    0    0    0  501 -0.00000000000E+00  0.00000000000E+00  0.14884334115E+02  0.14884334848E+02  0.46700000000E-02 0.  1.
          1   -1    0    0  501    0  0.00000000000E+00 -0.00000000000E+00 -0.26243859330E+03  0.26243859334E+03  0.46700000000E-02 0. -1.
         25    2    1    2    0    0  0.00000000000E+00  0.00000000000E+00 -0.24755425919E+03  0.27732292819E+03  0.12499958104E+03 0.  0.
        -11    1    3    3    0    0  0.58490933440E+02  0.17694268539E+02 -0.94685034253E+02  0.11269220091E+03  0.51100000000E-03 0.  1.
         11    1    3    3    0    0 -0.58490933440E+02 -0.17694268539E+02 -0.15286922494E+03  0.16463072728E+03  0.51100000000E-03 0. -1.
<mgrwt>
<rscale>  0 0.12499958E+03</rscale>
<asrwt>0</asrwt>
<pdfrwt beam="2">  1        1 0.40375165E-01 0.12499958E+03</pdfrwt>
<pdfrwt beam="1">  1       -1 0.22898978E-02 0.12499958E+03</pdfrwt>
<totfact> 0.52985064E+04</totfact>
</mgrwt>
</event>
<event>
 5    1  0.8303392E-059  0.1250005E+03  0.7818608E-02  0.1235069E+00
          1   -1    0    0  501    0  0.00000000000E+00  0.00000000000E+00  0.28691891879E+03  0.28691891883E+03  0.46700000000E-02 0. -1.
         -1   -1    0    0    0  501 -0.00000000000E+00 -0.00000000000E+00 -0.13614572967E+02  0.13614573768E+02  0.46700000000E-02 0.  1.
         25    2    1    2    0    0  0.00000000000E+00  0.00000000000E+00  0.27330434582E+03  0.30053349259E+03  0.12500045890E+03 0.  0.
        -11    1    3    3    0    0  0.31777486171E+02 -0.30072329441E+02  0.29342327314E+02  0.52679462771E+02  0.51100000000E-03 0.  1.
         11    1    3    3    0    0 -0.31777486171E+02  0.30072329441E+02  0.24396201851E+03  0.24785402982E+03  0.51100000000E-03 0. -1.
<mgrwt>
<rscale>  0 0.12500046E+03</rscale>
<asrwt>0</asrwt>
<pdfrwt beam="1">  1        1 0.44141369E-01 0.12500046E+03</pdfrwt>
<pdfrwt beam="2">  1       -1 0.20945499E-02 0.12500046E+03</pdfrwt>
<totfact> 0.53985180E+04</totfact>
</mgrwt>
</event>
<event>
 5    1  0.8303392E-059  0.1250022E+03  0.7818608E-02  0.1235066E+00
         -1   -1    0    0    0  501 -0.00000000000E+00  0.00000000000E+00  0.12533385093E+03  0.12533385102E+03  0.46700000000E-02 0.  1.
          1   -1    0    0  501    0  0.00000000000E+00 -0.00000000000E+00 -0.31167853058E+02  0.31167853408E+02  0.46700000000E-02 0. -1.
         25    2    1    2    0    0  0.00000000000E+00  0.00000000000E+00  0.94165997871E+02  0.15650170442E+03  0.12500219331E+03 0.  0.
        -11    1    3    3    0    0 -0.39783195716E+02  0.35889730372E+02  0.87373243851E+02  0.10249321514E+03  0.51100000000E-03 0.  1.
         11    1    3    3    0    0  0.39783195716E+02 -0.35889730372E+02  0.67927540193E+01  0.54008489287E+02  0.51100000000E-03 0. -1.
<mgrwt>
<rscale>  0 0.12500219E+03</rscale>
<asrwt>0</asrwt>
<pdfrwt beam="2">  1        1 0.47950544E-02 0.12500219E+03</pdfrwt>
<pdfrwt beam="1">  1       -1 0.19282131E-01 0.12500219E+03</pdfrwt>
<totfact> 0.34246970E+04</totfact>
</mgrwt>
</event>
<event>
 5    1  0.8303392E-059  0.1250004E+03  0.7818608E-02  0.1235069E+00
          1   -1    0    0  501    0  0.00000000000E+00  0.00000000000E+00  0.12659839800E+03  0.12659839809E+03  0.46700000000E-02 0. -1.
         -1   -1    0    0    0  501 -0.00000000000E+00 -0.00000000000E+00 -0.30855652936E+02  0.30855653290E+02  0.46700000000E-02 0.  1.
         25    2    1    2    0    0  0.00000000000E+00  0.00000000000E+00  0.95742745067E+02  0.15745405138E+03  0.12500042025E+03 0.  0.
        -11    1    3    3    0    0  0.15258382415E+02  0.35202175936E+02 -0.14276501937E+02  0.40936901842E+02  0.51100000000E-03 0.  1.
         11    1    3    3    0    0 -0.15258382415E+02 -0.35202175936E+02  0.11001924700E+03  0.11651714954E+03  0.51100000000E-03 0. -1.
<mgrwt>
<rscale>  0 0.12500042E+03</rscale>
<asrwt>0</asrwt>
<pdfrwt beam="1">  1        1 0.19476677E-01 0.12500042E+03</pdfrwt>
<pdfrwt beam="2">  1       -1 0.47470234E-02 0.12500042E+03</pdfrwt>
<totfact> 0.45448968E+04</totfact>
</mgrwt>
</event>
<event>
 4    1  0.8303392E-059  0.1249544E+03  0.7818608E-02  0.1235141E+00
         -1   -1    0    0    0  501 -0.00000000000E+00  0.00000000000E+00  0.91004443312E+01  0.91004455295E+01  0.46700000000E-02 0.  1.
          1   -1    0    0  501    0  0.00000000000E+00 -0.00000000000E+00 -0.42892398142E+03  0.42892398144E+03  0.46700000000E-02 0. -1.
        -11    1    1    2    0    0  0.63343074027E+01  0.62053605251E+02 -0.22236765752E+03  0.23095053255E+03  0.51100000000E-03 0.  1.
         11    1    1    2    0    0 -0.63343074027E+01 -0.62053605251E+02 -0.19745587957E+03  0.20707389442E+03  0.51100000000E-03 0. -1.
<mgrwt>
<rscale>  0 0.12495438E+03</rscale>
<asrwt>0</asrwt>
<pdfrwt beam="2">  1        1 0.65988289E-01 0.12495438E+03</pdfrwt>
<pdfrwt beam="1">  1       -1 0.14000688E-02 0.12495438E+03</pdfrwt>
<totfact> 0.58312056E+04</totfact>
</mgrwt>
</event>
<event>
 5    1  0.8395543E-059  0.1249816E+03  0.7818608E-02  0.1235098E+00
          1   -1    0    0  501    0  0.00000000000E+00  0.00000000000E+00  0.29130723755E+03  0.29130723759E+03  0.46700000000E-02 0. -1.
         -1   -1    0    0    0  501 -0.00000000000E+00 -0.00000000000E+00 -0.13405426744E+02  0.13405427558E+02  0.46700000000E-02 0.  1.
         25    2    1    2    0    0  0.00000000000E+00  0.00000000000E+00  0.27790181081E+03  0.30471266514E+03  0.12498156604E+03 0.  0.
        -11    1    3    3    0    0 -0.60769897954E+02 -0.51320265622E+01  0.10571987925E+03  0.12204921574E+03  0.51100000000E-03 0.  1.
         11    1    3    3    0    0  0.60769897954E+02  0.51320265622E+01  0.17218193156E+03  0.18266344941E+03  0.51100000000E-03 0. -1.
<mgrwt>
<rscale>  0 0.12498157E+03</rscale>
<asrwt>0</asrwt>
<pdfrwt beam="1">  1        1 0.44816497E-01 0.12498157E+03</pdfrwt>
<pdfrwt beam="2">  1       -1 0.20623735E-02 0.12498157E+03</pdfrwt>
<totfact> 0.54177923E+04</totfact>
</mgrwt>
</event>
<event>
 5    1  0.8303392E-059  0.1249578E+03  0.7818608E-02  0.1235135E+00
          1   -1    0    0  501    0  0.00000000000E+00  0.00000000000E+00  0.13845229211E+03  0.13845229219E+03  0.46700000000E-02 0. -1.
         -1   -1    0    0    0  501 -0.00000000000E+00 -0.00000000000E+00 -0.28194638991E+02  0.28194639377E+02  0.46700000000E-02 0.  1.
         25    2    1    2    0    0  0.00000000000E+00  0.00000000000E+00  0.11025765312E+03  0.16664693157E+03  0.12495779179E+03 0.  0.
        -11    1    3    3    0    0  0.43776443728E+02  0.39868409877E+02  0.28531590486E+02  0.65726089093E+02  0.51100000000E-03 0.  1.
         11    1    3    3    0    0 -0.43776443728E+02 -0.39868409877E+02  0.81726062637E+02  0.10092084248E+03  0.51100000000E-03 0. -1.
<mgrwt>
<rscale>  0 0.12495779E+03</rscale>
<asrwt>0</asrwt>
<pdfrwt beam="1">  1        1 0.21300352E-01 0.12495779E+03</pdfrwt>
<pdfrwt beam="2">  1       -1 0.43376369E-02 0.12495779E+03</pdfrwt>
<totfact> 0.46333947E+04</totfact>
</mgrwt>
</event>
<event>
 5    1  0.1004546E-058  0.1249633E+03  0.7818608E-02  0.1235127E+00
          1   -1    0    0  501    0  0.00000000000E+00  0.00000000000E+00  0.24901571535E+03  0.24901571539E+03  0.46700000000E-02 0. -1.
         -1   -1    0    0    0  501 -0.00000000000E+00 -0.00000000000E+00 -0.15677556032E+02  0.15677556727E+02  0.46700000000E-02 0.  1.
         25    2    1    2    0    0  0.00000000000E+00  0.00000000000E+00  0.23333815932E+03  0.26469327212E+03  0.12496332147E+03 0.  0.
        -11    1    3    3    0    0  0.18614735370E+02  0.56814410079E+02  0.78215592048E+02  0.98448282896E+02  0.51100000000E-03 0.  1.
         11    1    3    3    0    0 -0.18614735370E+02 -0.56814410079E+02  0.15512256727E+03  0.16624498922E+03  0.51100000000E-03 0. -1.
<mgrwt>
<rscale>  0 0.12496332E+03</rscale>
<asrwt>0</asrwt>
<pdfrwt beam="1">  1        1 0.38310106E-01 0.12496332E+03</pdfrwt>
<pdfrwt beam="2">  1       -1 0.24119320E-02 0.12496332E+03</pdfrwt>
<totfact> 0.52441851E+04</totfact>
</mgrwt>
</event>
<event>
 5    1  0.8303392E-059  0.1250092E+03  0.7818608E-02  0.1235055E+00
         -1   -1    0    0    0  501 -0.00000000000E+00  0.00000000000E+00  0.12131177163E+02  0.12131178062E+02  0.46700000000E-02 0. -1.
          1   -1    0    0  501    0  0.00000000000E+00 -0.00000000000E+00 -0.32204832898E+03  0.32204832901E+03  0.46700000000E-02 0.  1.
         25    2    1    2    0    0  0.00000000000E+00  0.00000000000E+00 -0.30991715181E+03  0.33417950707E+03  0.12500920750E+03 0.  0.
        -11    1    3    3    0    0 -0.14332062787E+01  0.55927023112E+02 -0.80445685265E+02  0.97986704570E+02  0.51100000000E-03 0. -1.
         11    1    3    3    0    0  0.14332062787E+01 -0.55927023112E+02 -0.22947146655E+03  0.23619280250E+03  0.51100000000E-03 0.  1.
<mgrwt>
<rscale>  0 0.12500921E+03</rscale>
<asrwt>0</asrwt>
<pdfrwt beam="2">  1        1 0.49545890E-01 0.12500921E+03</pdfrwt>
<pdfrwt beam="1">  1       -1 0.18663353E-02 0.12500921E+03</pdfrwt>
<totfact> 0.55260685E+04</totfact>
</mgrwt>
</event>
<event>
 5    1  0.8303392E-059  0.1249994E+03  0.7818608E-02  0.1235070E+00
          1   -1    0    0  501    0  0.00000000000E+00  0.00000000000E+00  0.27822340538E+03  0.27822340542E+03  0.46700000000E-02 0. -1.
         -1   -1    0    0    0  501 -0.00000000000E+00 -0.00000000000E+00 -0.14039839894E+02  0.14039840671E+02  0.46700000000E-02 0.  1.
         25    2    1    2    0    0  0.00000000000E+00  0.00000000000E+00  0.26418356548E+03  0.29226324609E+03  0.12499939497E+03 0.  0.
        -11    1    3    3    0    0 -0.55748403700E+02 -0.26383047407E+02  0.15573597338E+03  0.16750415849E+03  0.51100000000E-03 0. -1.
         11    1    3    3    0    0  0.55748403700E+02  0.26383047407E+02  0.10844759210E+03  0.12475908760E+03  0.51100000000E-03 0.  1.
<mgrwt>
<rscale>  0 0.12499939E+03</rscale>
<asrwt>0</asrwt>
<pdfrwt beam="1">  1        1 0.42803599E-01 0.12499939E+03</pdfrwt>
<pdfrwt beam="2">  1       -1 0.21599755E-02 0.12499939E+03</pdfrwt>
<totfact> 0.53641021E+04</totfact>
</mgrwt>
</event>
<event>
 5    1  0.8303392E-059  0.1250086E+03  0.7818608E-02  0.1235056E+00
          1   -1    0    0  501    0  0.00000000000E+00  0.00000000000E+00  0.74825005035E+02  0.74825005181E+02  0.46700000000E-02 0. -1.
         -1   -1    0    0    0  501 -0.00000000000E+00 -0.00000000000E+00 -0.52212317545E+02  0.52212317754E+02  0.46700000000E-02 0.  1.
         25    2    1    2    0    0  0.00000000000E+00  0.00000000000E+00  0.22612687490E+02  0.12703732293E+03  0.12500859084E+03 0.  0.
        -11    1    3    3    0    0  0.35142298412E+02 -0.51610659850E+02  0.14206710725E+02  0.64034927795E+02  0.51100000000E-03 0.  1.
         11    1    3    3    0    0 -0.35142298412E+02  0.51610659850E+02  0.84059767648E+01  0.63002395140E+02  0.51100000000E-03 0. -1.
<mgrwt>
<rscale>  0 0.12500859E+03</rscale>
<asrwt>0</asrwt>
<pdfrwt beam="1">  1        1 0.11511539E-01 0.12500859E+03</pdfrwt>
<pdfrwt beam="2">  1       -1 0.80326642E-02 0.12500859E+03</pdfrwt>
<totfact> 0.40963058E+04</totfact>
</mgrwt>
</event>
<event>
 5    1  0.8303392E-059  0.1249993E+03  0.7818608E-02  0.1235070E+00
         -1   -1    0    0    0  501 -0.00000000000E+00  0.00000000000E+00  0.52234692300E+02  0.52234692509E+02  0.46700000000E-02 0.  1.
          1   -1    0    0  501    0  0.00000000000E+00 -0.00000000000E+00 -0.74781791635E+02  0.74781791780E+02  0.46700000000E-02 0. -1.
         25    2    1    2    0    0  0.00000000000E+00  0.00000000000E+00 -0.22547099335E+02  0.12701648429E+03  0.12499926237E+03 0.  0.
        -11    1    3    3    0    0  0.12332576023E+02 -0.61070314877E+02 -0.16306059790E+02  0.64401578992E+02  0.51100000000E-03 0. -1.
         11    1    3    3    0    0 -0.12332576023E+02  0.61070314877E+02 -0.62410395442E+01  0.62614905297E+02  0.51100000000E-03 0.  1.
<mgrwt>
<rscale>  0 0.12499926E+03</rscale>
<asrwt>0</asrwt>
<pdfrwt beam="2">  1        1 0.11504891E-01 0.12499926E+03</pdfrwt>
<pdfrwt beam="1">  1       -1 0.80361066E-02 0.12499926E+03</pdfrwt>
<totfact> 0.40967311E+04</totfact>
</mgrwt>
</event>
<event>
 5    1  0.8303392E-059  0.1249992E+03  0.7818608E-02  0.1235070E+00
          1   -1    0    0  501    0  0.00000000000E+00  0.00000000000E+00  0.14216202731E+02  0.14216203498E+02  0.46700000000E-02 0. -1.
         -1   -1    0    0    0  501 -0.00000000000E+00 -0.00000000000E+00 -0.27477117625E+03  0.27477117629E+03  0.46700000000E-02 0.  1.
         25    2    1    2    0    0  0.00000000000E+00  0.00000000000E+00 -0.26055497352E+03  0.28898737979E+03  0.12499924580E+03 0.  0.
        -11    1    3    3    0    0  0.48862804289E+02  0.14944536282E+01 -0.22030552259E+03  0.22566419814E+03  0.51100000000E-03 0.  1.
         11    1    3    3    0    0 -0.48862804289E+02 -0.14944536282E+01 -0.40249450928E+02  0.63323181655E+02  0.51100000000E-03 0. -1.
<mgrwt>
<rscale>  0 0.12499925E+03</rscale>
<asrwt>0</asrwt>
<pdfrwt beam="1">  1        1 0.21871084E-02 0.12499925E+03</pdfrwt>
<pdfrwt beam="2">  1       -1 0.42272485E-01 0.12499925E+03</pdfrwt>
<totfact> 0.27243819E+04</totfact>
</mgrwt>
</event>
<event>
 5    1  0.8303392E-059  0.1249995E+03  0.7818608E-02  0.1235070E+00
          1   -1    0    0  501    0  0.00000000000E+00  0.00000000000E+00  0.94179013278E+02  0.94179013394E+02  0.46700000000E-02 0. -1.
         -1   -1    0    0    0  501 -0.00000000000E+00 -0.00000000000E+00 -0.41476550800E+02  0.41476551063E+02  0.46700000000E-02 0.  1.
         25    2    1    2    0    0  0.00000000000E+00  0.00000000000E+00  0.52702462478E+02  0.13565556446E+03  0.12499953047E+03 0.  0.
        -11    1    3    3    0    0 -0.24946260559E+02  0.57159398696E+02  0.21915248082E+02  0.66104393757E+02  0.51100000000E-03 0.  1.
         11    1    3    3    0    0  0.24946260559E+02 -0.57159398696E+02  0.30787214396E+02  0.69551170700E+02  0.51100000000E-03 0. -1.
<mgrwt>
<rscale>  0 0.12499953E+03</rscale>
<asrwt>0</asrwt>
<pdfrwt beam="1">  1        1 0.14489079E-01 0.12499953E+03</pdfrwt>
<pdfrwt beam="2">  1       -1 0.63810079E-02 0.12499953E+03</pdfrwt>
<totfact> 0.42846833E+04</totfact>
</mgrwt>
</event>
<event>
 5    1  0.8303392E-059  0.1249854E+03  0.7818608E-02  0.1235092E+00
          1   -1    0    0  501    0  0.00000000000E+00  0.00000000000E+00  0.23161441987E+02  0.23161442458E+02  0.46700000000E-02 0. -1.
         -1   -1    0    0    0  501 -0.00000000000E+00 -0.00000000000E+00 -0.16861375713E+03  0.16861375719E+03  0.46700000000E-02 0.  1.
         25    2    1    2    0    0  0.00000000000E+00  0.00000000000E+00 -0.14545231514E+03  0.19177519965E+03  0.12498540403E+03 0.  0.
        -11    1    3    3    0    0  0.54114877681E+02 -0.25469338566E+02 -0.10052474232E+03  0.11697149658E+03  0.51100000000E-03 0.  1.
         11    1    3    3    0    0 -0.54114877681E+02  0.25469338566E+02 -0.44927572824E+02  0.74803703074E+02  0.51100000000E-03 0. -1.
<mgrwt>
<rscale>  0 0.12498540E+03</rscale>
<asrwt>0</asrwt>
<pdfrwt beam="1">  1        1 0.35632989E-02 0.12498540E+03</pdfrwt>
<pdfrwt beam="2">  1       -1 0.25940577E-01 0.12498540E+03</pdfrwt>
<totfact> 0.31820522E+04</totfact>
</mgrwt>
</event>
<event>
 5    1  0.8303392E-059  0.1250088E+03  0.7818608E-02  0.1235056E+00
          1   -1    0    0  501    0  0.00000000000E+00  0.00000000000E+00  0.27828225548E+03  0.27828225552E+03  0.46700000000E-02 0. -1.
         -1   -1    0    0    0  501 -0.00000000000E+00 -0.00000000000E+00 -0.14038977451E+02  0.14038978228E+02  0.46700000000E-02 0.  1.
         25    2    1    2    0    0  0.00000000000E+00  0.00000000000E+00  0.26424327803E+03  0.29232123375E+03  0.12500877456E+03 0.  0.
        -11    1    3    3    0    0  0.48378481249E+02 -0.23222159180E+02  0.20706206297E+03  0.21390288461E+03  0.51100000000E-03 0. -1.
         11    1    3    3    0    0 -0.48378481249E+02  0.23222159180E+02  0.57181215064E+02  0.78418349137E+02  0.51100000000E-03 0.  1.
<mgrwt>
<rscale>  0 0.12500877E+03</rscale>
<asrwt>0</asrwt>
<pdfrwt beam="1">  1        1 0.42812652E-01 0.12500877E+03</pdfrwt>
<pdfrwt beam="2">  1       -1 0.21598429E-02 0.12500877E+03</pdfrwt>
<totfact> 0.53632287E+04</totfact>
</mgrwt>
</event>
<event>
 5    1  0.8303392E-059  0.1249984E+03  0.7818608E-02  0.1235072E+00
         -1   -1    0    0    0  501 -0.00000000000E+00  0.00000000000E+00  0.34462404597E+02  0.34462404913E+02  0.46700000000E-02 0.  1.
          1   -1    0    0  501    0  0.00000000000E+00 -0.00000000000E+00 -0.11334520854E+03  0.11334520864E+03  0.46700000000E-02 0. -1.
         25    2    1    2    0    0  0.00000000000E+00  0.00000000000E+00 -0.78882803947E+02  0.14780761355E+03  0.12499837545E+03 0.  0.
        -11    1    3    3    0    0 -0.81496869079E+01 -0.57009955538E+02 -0.10728987470E+02  0.58580402862E+02  0.51100000000E-03 0.  1.
         11    1    3    3    0    0  0.81496869079E+01  0.57009955538E+02 -0.68153816478E+02  0.89227210692E+02  0.51100000000E-03 0. -1.
<mgrwt>
<rscale>  0 0.12499838E+03</rscale>
<asrwt>0</asrwt>
<pdfrwt beam="2">  1        1 0.17437724E-01 0.12499838E+03</pdfrwt>
<pdfrwt beam="1">  1       -1 0.53019085E-02 0.12499838E+03</pdfrwt>
<totfact> 0.44448515E+04</totfact>
</mgrwt>
</event>
<event>
 5    1  0.9350466E-059  0.1249999E+03  0.7818608E-02  0.1235069E+00
         -1   -1    0    0    0  501 -0.00000000000E+00  0.00000000000E+00  0.97950856510E+01  0.97950867643E+01  0.46700000000E-02 0.  1.
          1   -1    0    0  501    0  0.00000000000E+00 -0.00000000000E+00 -0.39879641584E+03  0.39879641587E+03  0.46700000000E-02 0. -1.
         25    2    1    2    0    0  0.00000000000E+00  0.00000000000E+00 -0.38900133019E+03  0.40859150263E+03  0.12499992454E+03 0.  0.
        -11    1    3    3    0    0 -0.56843512070E+02  0.19250716911E+02 -0.13746427121E+03  0.14999400263E+03  0.51100000000E-03 0.  1.
         11    1    3    3    0    0  0.56843512070E+02 -0.19250716911E+02 -0.25153705898E+03  0.25859750000E+03  0.51100000000E-03 0. -1.
<mgrwt>
<rscale>  0 0.12499992E+03</rscale>
<asrwt>0</asrwt>
<pdfrwt beam="2">  1        1 0.61353282E-01 0.12499992E+03</pdfrwt>
<pdfrwt beam="1">  1       -1 0.15069367E-02 0.12499992E+03</pdfrwt>
<totfact> 0.57541729E+04</totfact>
</mgrwt>
</event>
<event>
 5    1  0.8303392E-059  0.1249980E+03  0.7818608E-02  0.1235072E+00
          1   -1    0    0  501    0  0.00000000000E+00  0.00000000000E+00  0.49468817382E+03  0.49468817384E+03  0.46700000000E-02 0. -1.
         -1   -1    0    0    0  501 -0.00000000000E+00 -0.00000000000E+00 -0.78961384474E+01  0.78961398284E+01  0.46700000000E-02 0.  1.
         25    2    1    2    0    0  0.00000000000E+00  0.00000000000E+00  0.48679203537E+03  0.50258431367E+03  0.12499802657E+03 0.  0.
        -11    1    3    3    0    0 -0.33881322556E+02 -0.50825093784E+02  0.29658423960E+03  0.30280909061E+03  0.51100000000E-03 0.  1.
         11    1    3    3    0    0  0.33881322556E+02  0.50825093784E+02  0.19020779577E+03  0.19977522306E+03  0.51100000000E-03 0. -1.
<mgrwt>
<rscale>  0 0.12499803E+03</rscale>
<asrwt>0</asrwt>
<pdfrwt beam="1">  1        1 0.76105870E-01 0.12499803E+03</pdfrwt>
<pdfrwt beam="2">  1       -1 0.12147907E-02 0.12499803E+03</pdfrwt>
<totfact> 0.59487015E+04</totfact>
</mgrwt>
</event>
<event>
 5    1  0.8303392E-059  0.1250009E+03  0.7818608E-02  0.1235068E+00
          1   -1    0    0  501    0  0.00000000000E+00  0.00000000000E+00  0.19340449081E+02  0.19340449644E+02  0.46700000000E-02 0. -1.
         -1   -1    0    0    0  501 -0.00000000000E+00 -0.00000000000E+00 -0.20197584475E+03  0.20197584481E+03  0.46700000000E-02 0.  1.
         25    2    1    2    0    0  0.00000000000E+00  0.00000000000E+00 -0.18263539567E+03  0.22131629445E+03  0.12500085775E+03 0.  0.
        -11    1    3    3    0    0 -0.48816855592E+02  0.18289994509E+02 -0.15236064465E+03  0.16103221829E+03  0.51100000000E-03 0.  1.
         11    1    3    3    0    0  0.48816855592E+02 -0.18289994509E+02 -0.30274751025E+02  0.60284076163E+02  0.51100000000E-03 0. -1.
<mgrwt>
<rscale>  0 0.12500086E+03</rscale>
<asrwt>0</asrwt>
<pdfrwt beam="1">  1        1 0.29754539E-02 0.12500086E+03</pdfrwt>
<pdfrwt beam="2">  1       -1 0.31073205E-01 0.12500086E+03</pdfrwt>
<totfact> 0.30215268E+04</totfact>
</mgrwt>
</event>
<event>
 5    1  0.8303392E-059  0.1250006E+03  0.7818608E-02  0.1235068E+00
         -1   -1    0    0    0  501 -0.00000000000E+00  0.00000000000E+00  0.17565788735E+02  0.17565789356E+02  0.46700000000E-02 0.  1.
          1   -1    0    0  501    0  0.00000000000E+00 -0.00000000000E+00 -0.22238035353E+03  0.22238035358E+03  0.46700000000E-02 0. -1.
         25    2    1    2    0    0  0.00000000000E+00  0.00000000000E+00 -0.20481456479E+03  0.23994614293E+03  0.12500058223E+03 0.  0.
        -11    1    3    3    0    0 -0.18582980059E+02 -0.59671779422E+02 -0.10147085612E+03  0.11917375151E+03  0.51100000000E-03 0.  1.
         11    1    3    3    0    0  0.18582980059E+02  0.59671779422E+02 -0.10334370868E+03  0.12077239142E+03  0.51100000000E-03 0. -1.
<mgrwt>
<rscale>  0 0.12500058E+03</rscale>
<asrwt>0</asrwt>
<pdfrwt beam="2">  1        1 0.34212360E-01 0.12500058E+03</pdfrwt>
<pdfrwt beam="1">  1       -1 0.27024292E-02 0.12500058E+03</pdfrwt>
<totfact> 0.51153516E+04</totfact>
</mgrwt>
</event>
<event>
 5    1  0.8303392E-059  0.1249941E+03  0.7818608E-02  0.1235078E+00
          1   -1    0    0  501    0  0.00000000000E+00  0.00000000000E+00  0.49155596547E+02  0.49155596768E+02  0.46700000000E-02 0. -1.
         -1   -1    0    0    0  501 -0.00000000000E+00 -0.00000000000E+00 -0.79459555677E+02  0.79459555814E+02  0.46700000000E-02 0.  1.
         25    2    1    2    0    0  0.00000000000E+00  0.00000000000E+00 -0.30303959130E+02  0.12861515258E+03  0.12499411000E+03 0.  0.
        -11    1    3    3    0    0 -0.44762795889E+02  0.42993652688E+02 -0.76102692323E+01  0.62530618622E+02  0.51100000000E-03 0. -1.
         11    1    3    3    0    0  0.44762795889E+02 -0.42993652688E+02 -0.22693689898E+02  0.66084533960E+02  0.51100000000E-03 0.  1.
<mgrwt>
<rscale>  0 0.12499411E+03</rscale>
<asrwt>0</asrwt>
<pdfrwt beam="1">  1        1 0.75623995E-02 0.12499411E+03</pdfrwt>
<pdfrwt beam="2">  1       -1 0.12224547E-01 0.12499411E+03</pdfrwt>
<totfact> 0.37748085E+04</totfact>
</mgrwt>
</event>
<event>
 5    1  0.8303392E-059  0.1250005E+03  0.7818608E-02  0.1235069E+00
          1   -1    0    0  501    0  0.00000000000E+00  0.00000000000E+00  0.75226962625E+02  0.75226962770E+02  0.46700000000E-02 0. -1.
         -1   -1    0    0    0  501 -0.00000000000E+00 -0.00000000000E+00 -0.51926588258E+02  0.51926588468E+02  0.46700000000E-02 0.  1.
         25    2    1    2    0    0  0.00000000000E+00  0.00000000000E+00  0.23300374367E+02  0.12715355124E+03  0.12500047259E+03 0.  0.
        -11    1    3    3    0    0 -0.44762794427E+02  0.40079312768E+02 -0.58573220765E+01  0.60368595304E+02  0.51100000000E-03 0.  1.
         11    1    3    3    0    0  0.44762794427E+02 -0.40079312768E+02  0.29157696444E+02  0.66784955933E+02  0.51100000000E-03 0. -1.
<mgrwt>
<rscale>  0 0.12500047E+03</rscale>
<asrwt>0</asrwt>
<pdfrwt beam="1">  1        1 0.11573379E-01 0.12500047E+03</pdfrwt>
<pdfrwt beam="2">  1       -1 0.79887059E-02 0.12500047E+03</pdfrwt>
<totfact> 0.41013212E+04</totfact>
</mgrwt>
</event>
<event>
 5    1  0.8303392E-059  0.1250005E+03  0.7818608E-02  0.1235069E+00
         -1   -1    0    0    0  501 -0.00000000000E+00  0.00000000000E+00  0.89961014207E+01  0.89961026328E+01  0.46700000000E-02 0.  1.
          1   -1    0    0  501    0  0.00000000000E+00 -0.00000000000E+00 -0.43421912388E+03  0.43421912391E+03  0.46700000000E-02 0. -1.
         25    2    1    2    0    0  0.00000000000E+00  0.00000000000E+00 -0.42522302246E+03  0.44321522654E+03  0.12500047282E+03 0.  0.
        -11    1    3    3    0    0 -0.44094284244E+02  0.41382002923E+02 -0.26861838376E+03  0.27534090172E+03  0.51100000000E-03 0.  1.
         11    1    3    3    0    0  0.44094284244E+02 -0.41382002923E+02 -0.15660463870E+03  0.16787432481E+03  0.51100000000E-03 0. -1.
<mgrwt>
<rscale>  0 0.12500047E+03</rscale>
<asrwt>0</asrwt>
<pdfrwt beam="2">  1        1 0.66802926E-01 0.12500047E+03</pdfrwt>
<pdfrwt beam="1">  1       -1 0.13840160E-02 0.12500047E+03</pdfrwt>
<totfact> 0.58368384E+04</totfact>
</mgrwt>
</event>
<event>
 5    1  0.8303392E-059  0.1250007E+03  0.7818608E-02  0.1235068E+00
          1   -1    0    0  501    0  0.00000000000E+00  0.00000000000E+00  0.22517172532E+02  0.22517173016E+02  0.46700000000E-02 0. -1.
         -1   -1    0    0    0  501 -0.00000000000E+00 -0.00000000000E+00 -0.17348052427E+03  0.17348052433E+03  0.46700000000E-02 0.  1.
         25    2    1    2    0    0  0.00000000000E+00  0.00000000000E+00 -0.15096335174E+03  0.19599769735E+03  0.12500065519E+03 0.  0.
        -11    1    3    3    0    0 -0.57413727343E+02 -0.24339616416E+02 -0.82048084441E+02  0.10305649507E+03  0.51100000000E-03 0.  1.
         11    1    3    3    0    0  0.57413727343E+02  0.24339616416E+02 -0.68915267297E+02  0.92941202282E+02  0.51100000000E-03 0. -1.
<mgrwt>
<rscale>  0 0.12500066E+03</rscale>
<asrwt>0</asrwt>
<pdfrwt beam="1">  1        1 0.34641805E-02 0.12500066E+03</pdfrwt>
<pdfrwt beam="2">  1       -1 0.26689311E-01 0.12500066E+03</pdfrwt>
<totfact> 0.31565574E+04</totfact>
</mgrwt>
</event>
<event>
 5    1  0.8303392E-059  0.1250005E+03  0.7818608E-02  0.1235068E+00
         -1   -1    0    0    0  501 -0.00000000000E+00  0.00000000000E+00  0.14151905858E+02  0.14151906629E+02  0.46700000000E-02 0.  1.
          1   -1    0    0  501    0  0.00000000000E+00 -0.00000000000E+00 -0.27602528406E+03  0.27602528410E+03  0.46700000000E-02 0. -1.
         25    2    1    2    0    0  0.00000000000E+00  0.00000000000E+00 -0.26187337821E+03  0.29017719073E+03  0.12500054323E+03 0.  0.
        -11    1    3    3    0    0 -0.45930159385E+02  0.42386187888E+02 -0.13014779661E+03  0.14437665125E+03  0.51100000000E-03 0.  1.
         11    1    3    3    0    0  0.45930159385E+02 -0.42386187888E+02 -0.13172558160E+03  0.14580053948E+03  0.51100000000E-03 0. -1.
<mgrwt>
<rscale>  0 0.12500054E+03</rscale>
<asrwt>0</asrwt>
<pdfrwt beam="2">  1        1 0.42465424E-01 0.12500054E+03</pdfrwt>
<pdfrwt beam="1">  1       -1 0.21772165E-02 0.12500054E+03</pdfrwt>
<totfact> 0.53550586E+04</totfact>
</mgrwt>
</event>
<event>
 5    1  0.8303392E-059  0.1250001E+03  0.7818608E-02  0.1235069E+00
          1   -1    0    0  501    0  0.00000000000E+00  0.00000000000E+00  0.17447350952E+03  0.17447350958E+03  0.46700000000E-02 0. -1.
         -1   -1    0    0    0  501 -0.00000000000E+00 -0.00000000000E+00 -0.22388828795E+02  0.22388829282E+02  0.46700000000E-02 0.  1.
         25    2    1    2    0    0  0.00000000000E+00  0.00000000000E+00  0.15208468073E+03  0.19686233887E+03  0.12500012141E+03 0.  0.
        -11    1    3    3    0    0  0.60179068270E+02 -0.87068513451E+01  0.53278234243E+02  0.80844911791E+02  0.51100000000E-03 0.  1.
         11    1    3    3    0    0 -0.60179068270E+02  0.87068513451E+01  0.98806446482E+02  0.11601742707E+03  0.51100000000E-03 0. -1.
<mgrwt>
<rscale>  0 0.12500012E+03</rscale>
<asrwt>0</asrwt>
<pdfrwt beam="1">  1        1 0.26842079E-01 0.12500012E+03</pdfrwt>
<pdfrwt beam="2">  1       -1 0.34444352E-02 0.12500012E+03</pdfrwt>
<totfact> 0.48575649E+04</totfact>
</mgrwt>
</event>
<event>
 5    1  0.8303392E-059  0.1249999E+03  0.7818608E-02  0.1235070E+00
         -1   -1    0    0    0  501 -0.00000000000E+00  0.00000000000E+00  0.12217491060E+02  0.12217491952E+02  0.46700000000E-02 0.  1.
          1   -1    0    0  501    0  0.00000000000E+00 -0.00000000000E+00 -0.31972528389E+03  0.31972528393E+03  0.46700000000E-02 0. -1.
         25    2    1    2    0    0  0.00000000000E+00  0.00000000000E+00 -0.30750779283E+03  0.33194277588E+03  0.12499985522E+03 0.  0.
        -11    1    3    3    0    0  0.60929399110E+02  0.12131666062E+02 -0.17189575184E+03  0.18277778448E+03  0.51100000000E-03 0. -1.
         11    1    3    3    0    0 -0.60929399110E+02 -0.12131666062E+02 -0.13561204099E+03  0.14916499140E+03  0.51100000000E-03 0.  1.
<mgrwt>
<rscale>  0 0.12499986E+03</rscale>
<asrwt>0</asrwt>
<pdfrwt beam="2">  1        1 0.49188499E-01 0.12499986E+03</pdfrwt>
<pdfrwt beam="1">  1       -1 0.18796143E-02 0.12499986E+03</pdfrwt>
<totfact> 0.55192215E+04</totfact>
</mgrwt>
</event>
<event>
 5    1  0.8303392E-059  0.1250017E+03  0.7818608E-02  0.1235067E+00
         -1   -1    0    0    0  501 -0.00000000000E+00  0.00000000000E+00  0.10028402862E+02  0.10028403949E+02  0.46700000000E-02 0.  1.
          1   -1    0    0  501    0  0.00000000000E+00 -0.00000000000E+00 -0.38952900644E+03  0.38952900646E+03  0.46700000000E-02 0. -1.
         25    2    1    2    0    0  0.00000000000E+00  0.00000000000E+00 -0.37950060358E+03  0.39955741041E+03  0.12500166440E+03 0.  0.
        -11    1    3    3    0    0 -0.27332941885E+02  0.50559910497E+02 -0.26823907845E+03  0.27432753684E+03  0.51100000000E-03 0. -1.
         11    1    3    3    0    0  0.27332941885E+02 -0.50559910497E+02 -0.11126152513E+03  0.12522987357E+03  0.51100000000E-03 0.  1.
<mgrwt>
<rscale>  0 0.12500166E+03</rscale>
<asrwt>0</asrwt>
<pdfrwt beam="2">  1        1 0.59927528E-01 0.12500166E+03</pdfrwt>
<pdfrwt beam="1">  1       -1 0.15428316E-02 0.12500166E+03</pdfrwt>
<totfact> 0.57300574E+04</totfact>
</mgrwt>
</event>
<event>
 5    1  0.8303392E-059  0.1250013E+03  0.7818608E-02  0.1235067E+00
         -1   -1    0    0    0  501 -0.00000000000E+00  0.00000000000E+00  0.47593938285E+02  0.47593938514E+02  0.46700000000E-02 0. -1.
          1   -1    0    0  501    0  0.00000000000E+00 -0.00000000000E+00 -0.82076212352E+02  0.82076212485E+02  0.46700000000E-02 0.  1.
         25    2    1    2    0    0  0.00000000000E+00  0.00000000000E+00 -0.34482274067E+02  0.12967015100E+03  0.12500128333E+03 0.  0.
        -11    1    3    3    0    0  0.10099954964E+02  0.61585223003E+02 -0.13710878091E+02  0.63896298492E+02  0.51100000000E-03 0. -1.
         11    1    3    3    0    0 -0.10099954964E+02 -0.61585223003E+02 -0.20771395976E+02  0.65773852508E+02  0.51100000000E-03 0.  1.
<mgrwt>
<rscale>  0 0.12500128E+03</rscale>
<asrwt>0</asrwt>
<pdfrwt beam="2">  1        1 0.12627110E-01 0.12500128E+03</pdfrwt>
<pdfrwt beam="1">  1       -1 0.73221444E-02 0.12500128E+03</pdfrwt>
<totfact> 0.41710450E+04</totfact>
</mgrwt>
</event>
<event>
 5    1  0.8303392E-059  0.1250001E+03  0.7818608E-02  0.1235069E+00
          1   -1    0    0  501    0  0.00000000000E+00  0.00000000000E+00  0.24524376630E+02  0.24524377075E+02  0.46700000000E-02 0. -1.
         -1   -1    0    0    0  501 -0.00000000000E+00 -0.00000000000E+00 -0.15928042798E+03  0.15928042805E+03  0.46700000000E-02 0.  1.
         25    2    1    2    0    0  0.00000000000E+00  0.00000000000E+00 -0.13475605135E+03  0.18380480512E+03  0.12500005204E+03 0.  0.
        -11    1    3    3    0    0 -0.43946103018E+02  0.93963218685E+01 -0.13124823947E+03  0.13872869638E+03  0.51100000000E-03 0.  1.
         11    1    3    3    0    0  0.43946103018E+02 -0.93963218685E+01 -0.35078118823E+01  0.45076108745E+02  0.51100000000E-03 0. -1.
<mgrwt>
<rscale>  0 0.12500005E+03</rscale>
<asrwt>0</asrwt>
<pdfrwt beam="1">  1        1 0.37729812E-02 0.12500005E+03</pdfrwt>
<pdfrwt beam="2">  1       -1 0.24504681E-01 0.12500005E+03</pdfrwt>
<totfact> 0.32294109E+04</totfact>
</mgrwt>
</event>
<event>
 5    1  0.1020631E-058  0.1250010E+03  0.7818608E-02  0.1235068E+00
          1   -1    0    0  501    0  0.00000000000E+00  0.00000000000E+00  0.46734524762E+02  0.46734524996E+02  0.46700000000E-02 0. -1.
         -1   -1    0    0    0  501 -0.00000000000E+00 -0.00000000000E+00 -0.83585114500E+02  0.83585114630E+02  0.46700000000E-02 0.  1.
         25    2    1    2    0    0  0.00000000000E+00  0.00000000000E+00 -0.36850589737E+02  0.13031963963E+03  0.12500097003E+03 0.  0.
        -11    1    3    3    0    0 -0.11606749399E+02 -0.58664469417E+02 -0.37366262439E+02  0.70515772509E+02  0.51100000000E-03 0.  1.
         11    1    3    3    0    0  0.11606749399E+02  0.58664469417E+02  0.51567270185E+00  0.59803867117E+02  0.51100000000E-03 0. -1.
<mgrwt>
<rscale>  0 0.12500097E+03</rscale>
<asrwt>0</asrwt>
<pdfrwt beam="1">  1        1 0.71899269E-02 0.12500097E+03</pdfrwt>
<pdfrwt beam="2">  1       -1 0.12859248E-01 0.12500097E+03</pdfrwt>
<totfact> 0.37360718E+04</totfact>
</mgrwt>
</event>
<event>
 5    1  0.8303392E-059  0.1250017E+03  0.7818608E-02  0.1235067E+00
          1   -1    0    0  501    0  0.00000000000E+00  0.00000000000E+00  0.19098238501E+02  0.19098239072E+02  0.46700000000E-02 0. -1.
         -1   -1    0    0    0  501 -0.00000000000E+00 -0.00000000000E+00 -0.20454018867E+03  0.20454018873E+03  0.46700000000E-02 0.  1.
         25    2    1    2    0    0  0.00000000000E+00  0.00000000000E+00 -0.18544195017E+03  0.22363842780E+03  0.12500171801E+03 0.  0.
        -11    1    3    3    0    0 -0.55860233926E+02 -0.25245603310E+02 -0.11453393457E+03  0.12990661411E+03  0.51100000000E-03 0. -1.
         11    1    3    3    0    0  0.55860233926E+02  0.25245603310E+02 -0.70908015602E+02  0.93731813690E+02  0.51100000000E-03 0.  1.
<mgrwt>
<rscale>  0 0.12500172E+03</rscale>
<asrwt>0</asrwt>
<pdfrwt beam="1">  1        1 0.29381907E-02 0.12500172E+03</pdfrwt>
<pdfrwt beam="2">  1       -1 0.31467720E-01 0.12500172E+03</pdfrwt>
<totfact> 0.30099493E+04</totfact>
</mgrwt>
</event>
<event>
 5    1  0.8303392E-059  0.1250023E+03  0.7818608E-02  0.1235066E+00
          1   -1    0    0  501    0  0.00000000000E+00  0.00000000000E+00  0.25636651142E+03  0.25636651147E+03  0.46700000000E-02 0. -1.
         -1   -1    0    0    0  501 -0.00000000000E+00 -0.00000000000E+00 -0.15237534004E+02  0.15237534720E+02  0.46700000000E-02 0.  1.
         25    2    1    2    0    0  0.00000000000E+00  0.00000000000E+00  0.24112897742E+03  0.27160404619E+03  0.12500229659E+03 0.  0.
        -11    1    3    3    0    0 -0.20676652982E+02 -0.58361628167E+02  0.13910210361E+03  0.15225964288E+03  0.51100000000E-03 0.  1.
         11    1    3    3    0    0  0.20676652982E+02  0.58361628167E+02  0.10202687381E+03  0.11934440331E+03  0.51100000000E-03 0. -1.
<mgrwt>
<rscale>  0 0.12500230E+03</rscale>
<asrwt>0</asrwt>
<pdfrwt beam="1">  1        1 0.39441002E-01 0.12500230E+03</pdfrwt>
<pdfrwt beam="2">  1       -1 0.23442360E-02 0.12500230E+03</pdfrwt>
<totfact> 0.52719529E+04</totfact>
</mgrwt>
</event>
<event>
 5    1  0.8303392E-059  0.1250038E+03  0.7818608E-02  0.1235063E+00
         -1   -1    0    0    0  501 -0.00000000000E+00  0.00000000000E+00  0.87698381941E+01  0.87698394375E+01  0.46700000000E-02 0.  1.
          1   -1    0    0  501    0  0.00000000000E+00 -0.00000000000E+00 -0.44544598449E+03  0.44544598451E+03  0.46700000000E-02 0. -1.
         25    2    1    2    0    0  0.00000000000E+00  0.00000000000E+00 -0.43667614630E+03  0.45421582395E+03  0.12500383188E+03 0.  0.
        -11    1    3    3    0    0  0.44206991437E+01 -0.60846413749E+02 -0.26771526049E+03  0.27457838471E+03  0.51100000000E-03 0.  1.
         11    1    3    3    0    0 -0.44206991437E+01  0.60846413749E+02 -0.16896088580E+03  0.17963743925E+03  0.51100000000E-03 0. -1.
<mgrwt>
<rscale>  0 0.12500383E+03</rscale>
<asrwt>0</asrwt>
<pdfrwt beam="2">  1        1 0.68530134E-01 0.12500383E+03</pdfrwt>
<pdfrwt beam="1">  1       -1 0.13492063E-02 0.12500383E+03</pdfrwt>
<totfact> 0.58598532E+04</totfact>
</mgrwt>
</event>
<event>
 5    1  0.8684650E-059  0.1250022E+03  0.7818608E-02  0.1235066E+00
         -1   -1    0    0    0  501 -0.00000000000E+00  0.00000000000E+00  0.77680051169E+02  0.77680051310E+02  0.46700000000E-02 0.  1.
          1   -1    0    0  501    0  0.00000000000E+00 -0.00000000000E+00 -0.50288143700E+02  0.50288143916E+02  0.46700000000E-02 0. -1.
         25    2    1    2    0    0  0.00000000000E+00  0.00000000000E+00  0.27391907470E+02  0.12796819523E+03  0.12500216956E+03 0.  0.
        -11    1    3    3    0    0 -0.47359497154E+02 -0.37090121751E+02  0.31062749624E+02  0.67701503061E+02  0.51100000000E-03 0.  1.
         11    1    3    3    0    0  0.47359497154E+02  0.37090121751E+02 -0.36708421544E+01  0.60266692166E+02  0.51100000000E-03 0. -1.
<mgrwt>
<rscale>  0 0.12500217E+03</rscale>
<asrwt>0</asrwt>
<pdfrwt beam="2">  1        1 0.77366376E-02 0.12500217E+03</pdfrwt>
<pdfrwt beam="1">  1       -1 0.11950777E-01 0.12500217E+03</pdfrwt>
<totfact> 0.37912873E+04</totfact>
</mgrwt>
</event>
<event>
 5    1  0.8303392E-059  0.1250004E+03  0.7818608E-02  0.1235069E+00
         -1   -1    0    0    0  501 -0.00000000000E+00  0.00000000000E+00  0.14455134116E+03  0.14455134123E+03  0.46700000000E-02 0.  1.
          1   -1    0    0  501    0  0.00000000000E+00 -0.00000000000E+00 -0.27023450459E+02  0.27023450863E+02  0.46700000000E-02 0. -1.
         25    2    1    2    0    0  0.00000000000E+00  0.00000000000E+00  0.11752789070E+03  0.17157479209E+03  0.12500041676E+03 0.  0.
        -11    1    3    3    0    0  0.18246072481E+02 -0.58689742297E+02  0.74345819030E+02  0.96460903061E+02  0.51100000000E-03 0.  1.
         11    1    3    3    0    0 -0.18246072481E+02  0.58689742297E+02  0.43182071666E+02  0.75113889032E+02  0.51100000000E-03 0. -1.
<mgrwt>
<rscale>  0 0.12500042E+03</rscale>
<asrwt>0</asrwt>
<pdfrwt beam="2">  1        1 0.41574539E-02 0.12500042E+03</pdfrwt>
<pdfrwt beam="1">  1       -1 0.22238668E-01 0.12500042E+03</pdfrwt>
<totfact> 0.33099598E+04</totfact>
</mgrwt>
</event>
<event>
 5    1  0.8725478E-059  0.1250015E+03  0.7818608E-02  0.1235067E+00
          1   -1    0    0  501    0  0.00000000000E+00  0.00000000000E+00  0.34031365194E+03  0.34031365197E+03  0.46700000000E-02 0.  1.
         -1   -1    0    0    0  501 -0.00000000000E+00 -0.00000000000E+00 -0.11478662009E+02  0.11478662959E+02  0.46700000000E-02 0. -1.
         25    2    1    2    0    0  0.00000000000E+00  0.00000000000E+00  0.32883498993E+03  0.35179231493E+03  0.12500152896E+03 0.  0.
        -11    1    3    3    0    0 -0.60446711872E+02 -0.26770132521E+01  0.12033304191E+03  0.13468857543E+03  0.51100000000E-03 0. -1.
         11    1    3    3    0    0  0.60446711872E+02  0.26770132521E+01  0.20850194801E+03  0.21710373949E+03  0.51100000000E-03 0.  1.
<mgrwt>
<rscale>  0 0.12500153E+03</rscale>
<asrwt>0</asrwt>
<pdfrwt beam="1">  1        1 0.52355945E-01 0.12500153E+03</pdfrwt>
<pdfrwt beam="2">  1       -1 0.17659481E-02 0.12500153E+03</pdfrwt>
<totfact> 0.55873475E+04</totfact>
</mgrwt>
</event>
<event>
 5    1  0.8303392E-059  0.1250007E+03  0.7818608E-02  0.1235068E+00
          1   -1    0    0  501    0  0.00000000000E+00  0.00000000000E+00  0.14498883468E+02  0.14498884220E+02  0.46700000000E-02 0. -1.
         -1   -1    0    0    0  501 -0.00000000000E+00 -0.00000000000E+00 -0.26942009687E+03  0.26942009691E+03  0.46700000000E-02 0.  1.
         25    2    1    2    0    0  0.00000000000E+00  0.00000000000E+00 -0.25492121340E+03  0.28391898113E+03  0.12500065121E+03 0.  0.
        -11    1    3    3    0    0 -0.57241081552E+01 -0.61964357841E+02 -0.11422751313E+03  0.13007794515E+03  0.51100000000E-03 0.  1.
         11    1    3    3    0    0  0.57241081552E+01  0.61964357841E+02 -0.14069370027E+03  0.15384103599E+03  0.51100000000E-03 0. -1.
<mgrwt>
<rscale>  0 0.12500065E+03</rscale>
<asrwt>0</asrwt>
<pdfrwt beam="1">  1        1 0.22305977E-02 0.12500065E+03</pdfrwt>
<pdfrwt beam="2">  1       -1 0.41449242E-01 0.12500065E+03</pdfrwt>
<totfact> 0.27443905E+04</totfact>
</mgrwt>
</event>
<event>
 5    1  0.8303392E-059  0.1249993E+03  0.7818608E-02  0.1235070E+00
          1   -1    0    0  501    0  0.00000000000E+00  0.00000000000E+00  0.37657698849E+02  0.37657699138E+02  0.46700000000E-02 0. -1.
         -1   -1    0    0    0  501 -0.00000000000E+00 -0.00000000000E+00 -0.10372922624E+03  0.10372922635E+03  0.46700000000E-02 0.  1.
         25    2    1    2    0    0  0.00000000000E+00  0.00000000000E+00 -0.66071527393E+02  0.14138692548E+03  0.12499926386E+03 0.  0.
        -11    1    3    3    0    0  0.18694774208E+02 -0.57849990211E+02 -0.16641101932E+02  0.63032072977E+02  0.51100000000E-03 0.  1.
         11    1    3    3    0    0 -0.18694774208E+02  0.57849990211E+02 -0.49430425461E+02  0.78354852508E+02  0.51100000000E-03 0. -1.
<mgrwt>
<rscale>  0 0.12499926E+03</rscale>
<asrwt>0</asrwt>
<pdfrwt beam="1">  1        1 0.57934922E-02 0.12499926E+03</pdfrwt>
<pdfrwt beam="2">  1       -1 0.15958342E-01 0.12499926E+03</pdfrwt>
<totfact> 0.35721172E+04</totfact>
</mgrwt>
</event>
<event>
 5    1  0.8303392E-059  0.1249986E+03  0.7818608E-02  0.1235072E+00
          1   -1    0    0  501    0  0.00000000000E+00  0.00000000000E+00  0.49770199495E+03  0.49770199497E+03  0.46700000000E-02 0. -1.
         -1   -1    0    0    0  501 -0.00000000000E+00 -0.00000000000E+00 -0.78483917941E+01  0.78483931834E+01  0.46700000000E-02 0.  1.
         25    2    1    2    0    0  0.00000000000E+00  0.00000000000E+00  0.48985360315E+03  0.50555038815E+03  0.12499856975E+03 0.  0.
        -11    1    3    3    0    0 -0.59877368309E+02 -0.63676804846E+01  0.17721228013E+03  0.18716313425E+03  0.51100000000E-03 0.  1.
         11    1    3    3    0    0  0.59877368309E+02  0.63676804846E+01  0.31264132302E+03  0.31838725390E+03  0.51100000000E-03 0. -1.
<mgrwt>
<rscale>  0 0.12499857E+03</rscale>
<asrwt>0</asrwt>
<pdfrwt beam="1">  1        1 0.76569540E-01 0.12499857E+03</pdfrwt>
<pdfrwt beam="2">  1       -1 0.12074450E-02 0.12499857E+03</pdfrwt>
<totfact> 0.59532735E+04</totfact>
</mgrwt>
</event>
<event>
 5    1  0.8303392E-059  0.1250033E+03  0.7818608E-02  0.1235064E+00
          1   -1    0    0  501    0  0.00000000000E+00  0.00000000000E+00  0.19166749955E+02  0.19166750524E+02  0.46700000000E-02 0. -1.
         -1   -1    0    0    0  501 -0.00000000000E+00 -0.00000000000E+00 -0.20381407570E+03  0.20381407575E+03  0.46700000000E-02 0.  1.
         25    2    1    2    0    0  0.00000000000E+00  0.00000000000E+00 -0.18464732574E+03  0.22298082628E+03  0.12500325589E+03 0.  0.
        -11    1    3    3    0    0  0.44941930153E+02 -0.43435884368E+02 -0.92289876106E+02  0.11146243479E+03  0.51100000000E-03 0. -1.
         11    1    3    3    0    0 -0.44941930153E+02  0.43435884368E+02 -0.92357449637E+02  0.11151839149E+03  0.51100000000E-03 0.  1.
<mgrwt>
<rscale>  0 0.12500326E+03</rscale>
<asrwt>0</asrwt>
<pdfrwt beam="1">  1        1 0.29487310E-02 0.12500326E+03</pdfrwt>
<pdfrwt beam="2">  1       -1 0.31356010E-01 0.12500326E+03</pdfrwt>
<totfact> 0.30131044E+04</totfact>
</mgrwt>
</event>
<event>
 5    1  0.8303392E-059  0.1249999E+03  0.7818608E-02  0.1235070E+00
         -1   -1    0    0    0  501 -0.00000000000E+00  0.00000000000E+00  0.13384685565E+03  0.13384685573E+03  0.46700000000E-02 0. -1.
          1   -1    0    0  501    0  0.00000000000E+00 -0.00000000000E+00 -0.29184407557E+02  0.29184407930E+02  0.46700000000E-02 0.  1.
         25    2    1    2    0    0  0.00000000000E+00  0.00000000000E+00  0.10466244809E+03  0.16303126366E+03  0.12499985956E+03 0.  0.
        -11    1    3    3    0    0  0.32760918922E+02  0.53120468595E+02  0.56692035533E+02  0.84315175891E+02  0.51100000000E-03 0. -1.
         11    1    3    3    0    0 -0.32760918922E+02 -0.53120468595E+02  0.47970412559E+02  0.78716087770E+02  0.51100000000E-03 0.  1.
<mgrwt>
<rscale>  0 0.12499986E+03</rscale>
<asrwt>0</asrwt>
<pdfrwt beam="2">  1        1 0.44899088E-02 0.12499986E+03</pdfrwt>
<pdfrwt beam="1">  1       -1 0.20591824E-01 0.12499986E+03</pdfrwt>
<totfact> 0.33724264E+04</totfact>
</mgrwt>
</event>
<event>
 5    1  0.8303392E-059  0.1249698E+03  0.7818608E-02  0.1235116E+00
          1   -1    0    0  501    0  0.00000000000E+00  0.00000000000E+00  0.35307530760E+03  0.35307530763E+03  0.46700000000E-02 0. -1.
         -1   -1    0    0    0  501 -0.00000000000E+00 -0.00000000000E+00 -0.11058157776E+02  0.11058158762E+02  0.46700000000E-02 0.  1.
         25    2    1    2    0    0  0.00000000000E+00  0.00000000000E+00  0.34201714983E+03  0.36413346639E+03  0.12496979864E+03 0.  0.
        -11    1    3    3    0    0 -0.29248477684E+02 -0.52961404631E+02  0.12549598134E+03  0.13931843079E+03  0.51100000000E-03 0.  1.
         11    1    3    3    0    0  0.29248477684E+02  0.52961404631E+02  0.21652116849E+03  0.22481503560E+03  0.51100000000E-03 0. -1.
<mgrwt>
<rscale>  0 0.12496980E+03</rscale>
<asrwt>0</asrwt>
<pdfrwt beam="1">  1        1 0.54319285E-01 0.12496980E+03</pdfrwt>
<pdfrwt beam="2">  1       -1 0.17012549E-02 0.12496980E+03</pdfrwt>
<totfact> 0.56309429E+04</totfact>
</mgrwt>
</event>
<event>
 5    1  0.8303392E-059  0.1250104E+03  0.7818608E-02  0.1235053E+00
         -1   -1    0    0    0  501 -0.00000000000E+00  0.00000000000E+00  0.35717738607E+02  0.35717738912E+02  0.46700000000E-02 0.  1.
          1   -1    0    0  501    0  0.00000000000E+00 -0.00000000000E+00 -0.10938253981E+03  0.10938253991E+03  0.46700000000E-02 0. -1.
         25    2    1    2    0    0  0.00000000000E+00  0.00000000000E+00 -0.73664801200E+02  0.14510027882E+03  0.12501035148E+03 0.  0.
        -11    1    3    3    0    0 -0.24215017575E+02  0.51373868142E+02 -0.65369574065E+01  0.57169687916E+02  0.51100000000E-03 0.  1.
         11    1    3    3    0    0  0.24215017575E+02 -0.51373868142E+02 -0.67127843793E+02  0.87930590903E+02  0.51100000000E-03 0. -1.
<mgrwt>
<rscale>  0 0.12501035E+03</rscale>
<asrwt>0</asrwt>
<pdfrwt beam="2">  1        1 0.16828083E-01 0.12501035E+03</pdfrwt>
<pdfrwt beam="1">  1       -1 0.54950368E-02 0.12501035E+03</pdfrwt>
<totfact> 0.44121866E+04</totfact>
</mgrwt>
</event>
<event>
 5    1  0.8303392E-059  0.1249994E+03  0.7818608E-02  0.1235070E+00
         -1   -1    0    0    0  501 -0.00000000000E+00  0.00000000000E+00  0.14833262288E+03  0.14833262295E+03  0.46700000000E-02 0.  1.
          1   -1    0    0  501    0  0.00000000000E+00 -0.00000000000E+00 -0.26334150745E+02  0.26334151159E+02  0.46700000000E-02 0. -1.
         25    2    1    2    0    0  0.00000000000E+00  0.00000000000E+00  0.12199847213E+03  0.17466677411E+03  0.12499941910E+03 0.  0.
        -11    1    3    3    0    0 -0.28656391292E+02 -0.53841973191E+02  0.80059846829E+02  0.10064653950E+03  0.51100000000E-03 0.  1.
         11    1    3    3    0    0  0.28656391292E+02  0.53841973191E+02  0.41938625304E+02  0.74020234610E+02  0.51100000000E-03 0. -1.
<mgrwt>
<rscale>  0 0.12499942E+03</rscale>
<asrwt>0</asrwt>
<pdfrwt beam="2">  1        1 0.40514078E-02 0.12499942E+03</pdfrwt>
<pdfrwt beam="1">  1       -1 0.22820404E-01 0.12499942E+03</pdfrwt>
<totfact> 0.32887936E+04</totfact>
</mgrwt>
</event>
<event>
 5    1  0.8303392E-059  0.1250243E+03  0.7818608E-02  0.1235031E+00
          1   -1    0    0  501    0  0.00000000000E+00  0.00000000000E+00  0.42848169370E+03  0.42848169373E+03  0.46700000000E-02 0. -1.
         -1   -1    0    0    0  501 -0.00000000000E+00 -0.00000000000E+00 -0.91200313232E+01  0.91200325188E+01  0.46700000000E-02 0.  1.
         25    2    1    2    0    0  0.00000000000E+00  0.00000000000E+00  0.41936166238E+03  0.43760172624E+03  0.12502426541E+03 0.  0.
        -11    1    3    3    0    0 -0.58948882277E+02 -0.13311853632E+02  0.26563817936E+03  0.27242580366E+03  0.51100000000E-03 0. -1.
         11    1    3    3    0    0  0.58948882277E+02  0.13311853632E+02  0.15372348302E+03  0.16517592258E+03  0.51100000000E-03 0.  1.
<mgrwt>
<rscale>  0 0.12502427E+03</rscale>
<asrwt>0</asrwt>
<pdfrwt beam="1">  1        1 0.65920254E-01 0.12502427E+03</pdfrwt>
<pdfrwt beam="2">  1       -1 0.14030820E-02 0.12502427E+03</pdfrwt>
<totfact> 0.58213072E+04</totfact>
</mgrwt>
</event>
<event>
 5    1  0.8303392E-059  0.1250000E+03  0.7818608E-02  0.1235069E+00
         -1   -1    0    0    0  501 -0.00000000000E+00  0.00000000000E+00  0.14094061334E+03  0.14094061342E+03  0.46700000000E-02 0.  1.
          1   -1    0    0  501    0  0.00000000000E+00 -0.00000000000E+00 -0.27715577471E+02  0.27715577864E+02  0.46700000000E-02 0. -1.
         25    2    1    2    0    0  0.00000000000E+00  0.00000000000E+00  0.11322503587E+03  0.16865619128E+03  0.12500000844E+03 0.  0.
        -11    1    3    3    0    0 -0.15408975990E+02  0.44506134391E+02  0.11779353975E+01  0.47112844019E+02  0.51100000000E-03 0. -1.
         11    1    3    3    0    0  0.15408975990E+02 -0.44506134391E+02  0.11204710047E+03  0.12154334726E+03  0.51100000000E-03 0.  1.
<mgrwt>
<rscale>  0 0.12500001E+03</rscale>
<asrwt>0</asrwt>
<pdfrwt beam="2">  1        1 0.42639350E-02 0.12500001E+03</pdfrwt>
<pdfrwt beam="1">  1       -1 0.21683171E-01 0.12500001E+03</pdfrwt>
<totfact> 0.33306497E+04</totfact>
</mgrwt>
</event>
<event>
 5    1  0.8303392E-059  0.1249998E+03  0.7818608E-02  0.1235070E+00
         -1   -1    0    0    0  501 -0.00000000000E+00  0.00000000000E+00  0.20737479085E+03  0.20737479090E+03  0.46700000000E-02 0.  1.
          1   -1    0    0  501    0  0.00000000000E+00 -0.00000000000E+00 -0.18836593686E+02  0.18836594265E+02  0.46700000000E-02 0. -1.
         25    2    1    2    0    0  0.00000000000E+00  0.00000000000E+00  0.18853819716E+03  0.22621138516E+03  0.12499975596E+03 0.  0.
        -11    1    3    3    0    0 -0.77771796760E+01  0.61991654231E+02  0.97289190456E+02  0.11562281911E+03  0.51100000000E-03 0.  1.
         11    1    3    3    0    0  0.77771796760E+01 -0.61991654231E+02  0.91249006703E+02  0.11058856606E+03  0.51100000000E-03 0. -1.
<mgrwt>
<rscale>  0 0.12499976E+03</rscale>
<asrwt>0</asrwt>
<pdfrwt beam="2">  1        1 0.28979375E-02 0.12499976E+03</pdfrwt>
<pdfrwt beam="1">  1       -1 0.31903814E-01 0.12499976E+03</pdfrwt>
<totfact> 0.29974421E+04</totfact>
</mgrwt>
</event>
<event>
 5    1  0.8303392E-059  0.1249929E+03  0.7818608E-02  0.1235080E+00
          1   -1    0    0  501    0  0.00000000000E+00  0.00000000000E+00  0.56697683980E+03  0.56697683982E+03  0.46700000000E-02 0. -1.
         -1   -1    0    0    0  501 -0.00000000000E+00 -0.00000000000E+00 -0.68888224419E+01  0.68888240248E+01  0.46700000000E-02 0.  1.
         25    2    1    2    0    0  0.00000000000E+00  0.00000000000E+00  0.56008801736E+03  0.57386566384E+03  0.12499285160E+03 0.  0.
        -11    1    3    3    0    0  0.19541115035E+02  0.57465979753E+02  0.34839093497E+03  0.35363885191E+03  0.51100000000E-03 0.  1.
         11    1    3    3    0    0 -0.19541115035E+02 -0.57465979753E+02  0.21169708239E+03  0.22022681194E+03  0.51100000000E-03 0. -1.
<mgrwt>
<rscale>  0 0.12499285E+03</rscale>
<asrwt>0</asrwt>
<pdfrwt beam="1">  1        1 0.87227235E-01 0.12499285E+03</pdfrwt>
<pdfrwt beam="2">  1       -1 0.10598186E-02 0.12499285E+03</pdfrwt>
<totfact> 0.60385613E+04</totfact>
</mgrwt>
</event>
<event>
 5    1  0.8303392E-059  0.1250061E+03  0.7818608E-02  0.1235060E+00
          1   -1    0    0  501    0  0.00000000000E+00  0.00000000000E+00  0.88369832339E+01  0.88369844679E+01  0.46700000000E-02 0. -1.
         -1   -1    0    0    0  501 -0.00000000000E+00 -0.00000000000E+00 -0.44207748684E+03  0.44207748687E+03  0.46700000000E-02 0.  1.
         25    2    1    2    0    0  0.00000000000E+00  0.00000000000E+00 -0.43324050361E+03  0.45091447133E+03  0.12500610582E+03 0.  0.
        -11    1    3    3    0    0  0.48353302667E+02 -0.39471591485E+02 -0.20488556108E+03  0.21418249590E+03  0.51100000000E-03 0.  1.
         11    1    3    3    0    0 -0.48353302667E+02  0.39471591485E+02 -0.22835494253E+03  0.23673197543E+03  0.51100000000E-03 0. -1.
<mgrwt>
<rscale>  0 0.12500611E+03</rscale>
<asrwt>0</asrwt>
<pdfrwt beam="1">  1        1 0.13595363E-02 0.12500611E+03</pdfrwt>
<pdfrwt beam="2">  1       -1 0.68011904E-01 0.12500611E+03</pdfrwt>
<totfact> 0.21897679E+04</totfact>
</mgrwt>
</event>
<event>
 5    1  0.8303392E-059  0.1249952E+03  0.7818608E-02  0.1235077E+00
          1   -1    0    0  501    0  0.00000000000E+00  0.00000000000E+00  0.21262765892E+02  0.21262766405E+02  0.46700000000E-02 0.  1.
         -1   -1    0    0    0  501 -0.00000000000E+00 -0.00000000000E+00 -0.18369918473E+03  0.18369918479E+03  0.46700000000E-02 0. -1.
         25    2    1    2    0    0  0.00000000000E+00  0.00000000000E+00 -0.16243641884E+03  0.20496195120E+03  0.12499524500E+03 0.  0.
        -11    1    3    3    0    0  0.28269581026E+02 -0.51671473888E+02 -0.11549042203E+03  0.12964238506E+03  0.51100000000E-03 0. -1.
         11    1    3    3    0    0 -0.28269581026E+02  0.51671473888E+02 -0.46945996813E+02  0.75319566131E+02  0.51100000000E-03 0.  1.
<mgrwt>
<rscale>  0 0.12499524E+03</rscale>
<asrwt>0</asrwt>
<pdfrwt beam="1">  1        1 0.32711949E-02 0.12499524E+03</pdfrwt>
<pdfrwt beam="2">  1       -1 0.28261412E-01 0.12499524E+03</pdfrwt>
<totfact> 0.31069290E+04</totfact>
</mgrwt>
</event>
<event>
 5    1  0.8303392E-059  0.1249985E+03  0.7818608E-02  0.1235072E+00
          1   -1    0    0  501    0  0.00000000000E+00  0.00000000000E+00  0.44441288124E+03  0.44441288127E+03  0.46700000000E-02 0. -1.
         -1   -1    0    0    0  501 -0.00000000000E+00 -0.00000000000E+00 -0.87894818540E+01  0.87894830947E+01  0.46700000000E-02 0.  1.
         25    2    1    2    0    0  0.00000000000E+00  0.00000000000E+00  0.43562339939E+03  0.45320236436E+03  0.12499854786E+03 0.  0.
        -11    1    3    3    0    0  0.56630228082E+02  0.40166191731E+01  0.12305469795E+03  0.13551964673E+03  0.51100000000E-03 0.  1.
         11    1    3    3    0    0 -0.56630228082E+02 -0.40166191731E+01  0.31256870144E+03  0.31768271763E+03  0.51100000000E-03 0. -1.
<mgrwt>
<rscale>  0 0.12499855E+03</rscale>
<asrwt>0</asrwt>
<pdfrwt beam="1">  1        1 0.68371221E-01 0.12499855E+03</pdfrwt>
<pdfrwt beam="2">  1       -1 0.13522279E-02 0.12499855E+03</pdfrwt>
<totfact> 0.58584278E+04</totfact>
</mgrwt>
</event>
<event>
 5    1  0.8303392E-059  0.1249972E+03  0.7818608E-02  0.1235074E+00
         -1   -1    0    0    0  501 -0.00000000000E+00  0.00000000000E+00  0.20678828298E+03  0.20678828303E+03  0.46700000000E-02 0.  1.
          1   -1    0    0  501    0  0.00000000000E+00 -0.00000000000E+00 -0.18889244856E+02  0.18889245434E+02  0.46700000000E-02 0. -1.
         25    2    1    2    0    0  0.00000000000E+00  0.00000000000E+00  0.18789903812E+03  0.22567752847E+03  0.12499719328E+03 0.  0.
        -11    1    3    3    0    0 -0.78411871317E+01 -0.57432068817E+02  0.51756251011E+02  0.77708662730E+02  0.51100000000E-03 0. -1.
         11    1    3    3    0    0  0.78411871317E+01  0.57432068817E+02  0.13614278711E+03  0.14796886574E+03  0.51100000000E-03 0.  1.
<mgrwt>
<rscale>  0 0.12499719E+03</rscale>
<asrwt>0</asrwt>
<pdfrwt beam="2">  1        1 0.29060378E-02 0.12499719E+03</pdfrwt>
<pdfrwt beam="1">  1       -1 0.31813581E-01 0.12499719E+03</pdfrwt>
<totfact> 0.30002102E+04</totfact>
</mgrwt>
</event>
<event>
 5    1  0.8303392E-059  0.1249992E+03  0.7818608E-02  0.1235071E+00
         -1   -1    0    0    0  501 -0.00000000000E+00  0.00000000000E+00  0.41164507295E+02  0.41164507560E+02  0.46700000000E-02 0.  1.
          1   -1    0    0  501    0  0.00000000000E+00 -0.00000000000E+00 -0.94892402291E+02  0.94892402405E+02  0.46700000000E-02 0. -1.
         25    2    1    2    0    0  0.00000000000E+00  0.00000000000E+00 -0.53727894996E+02  0.13605690997E+03  0.12499918419E+03 0.  0.
        -11    1    3    3    0    0  0.61567153349E+02  0.90082409758E+01 -0.33260572916E+02  0.70554436345E+02  0.51100000000E-03 0.  1.
         11    1    3    3    0    0 -0.61567153349E+02 -0.90082409758E+01 -0.20467322079E+02  0.65502473620E+02  0.51100000000E-03 0. -1.
<mgrwt>
<rscale>  0 0.12499918E+03</rscale>
<asrwt>0</asrwt>
<pdfrwt beam="2">  1        1 0.14598831E-01 0.12499918E+03</pdfrwt>
<pdfrwt beam="1">  1       -1 0.63330012E-02 0.12499918E+03</pdfrwt>
<totfact> 0.42910694E+04</totfact>
</mgrwt>
</event>
<event>
 5    1  0.8303392E-059  0.1250005E+03  0.7818608E-02  0.1235068E+00
         -1   -1    0    0    0  501 -0.00000000000E+00  0.00000000000E+00  0.29391024426E+02  0.29391024797E+02  0.46700000000E-02 0.  1.
          1   -1    0    0  501    0  0.00000000000E+00 -0.00000000000E+00 -0.13290733717E+03  0.13290733725E+03  0.46700000000E-02 0. -1.
         25    2    1    2    0    0  0.00000000000E+00  0.00000000000E+00 -0.10351631274E+03  0.16229836205E+03  0.12500052528E+03 0.  0.
        -11    1    3    3    0    0 -0.10489718732E+02  0.40500472324E+02  0.85287065875E+01  0.42697321858E+02  0.51100000000E-03 0.  1.
         11    1    3    3    0    0  0.10489718732E+02 -0.40500472324E+02 -0.11204501933E+03  0.11960104019E+03  0.51100000000E-03 0. -1.
<mgrwt>
<rscale>  0 0.12500053E+03</rscale>
<asrwt>0</asrwt>
<pdfrwt beam="2">  1        1 0.20447282E-01 0.12500053E+03</pdfrwt>
<pdfrwt beam="1">  1       -1 0.45216962E-02 0.12500053E+03</pdfrwt>
<totfact> 0.45902435E+04</totfact>
</mgrwt>
</event>
<event>
 5    1  0.9497345E-059  0.1250294E+03  0.7818608E-02  0.1235023E+00
         -1   -1    0    0    0  501 -0.00000000000E+00  0.00000000000E+00  0.45012137066E+02  0.45012137308E+02  0.46700000000E-02 0.  1.
          1   -1    0    0  501    0  0.00000000000E+00 -0.00000000000E+00 -0.86823000553E+02  0.86823000678E+02  0.46700000000E-02 0. -1.
         25    2    1    2    0    0  0.00000000000E+00  0.00000000000E+00 -0.41810863487E+02  0.13183513799E+03  0.12502941775E+03 0.  0.
        -11    1    3    3    0    0 -0.35246155755E+02  0.49119436705E+02 -0.41310548830E+01  0.60597658143E+02  0.51100000000E-03 0.  1.
         11    1    3    3    0    0  0.35246155755E+02 -0.49119436705E+02 -0.37679808604E+02  0.71237479843E+02  0.51100000000E-03 0. -1.
<mgrwt>
<rscale>  0 0.12502942E+03</rscale>
<asrwt>0</asrwt>
<pdfrwt beam="2">  1        1 0.13357385E-01 0.12502942E+03</pdfrwt>
<pdfrwt beam="1">  1       -1 0.69249442E-02 0.12502942E+03</pdfrwt>
<totfact> 0.42141860E+04</totfact>
</mgrwt>
</event>
<event>
 5    1  0.8303392E-059  0.1249996E+03  0.7818608E-02  0.1235070E+00
         -1   -1    0    0    0  501 -0.00000000000E+00  0.00000000000E+00  0.10469170022E+03  0.10469170033E+03  0.46700000000E-02 0.  1.
          1   -1    0    0  501    0  0.00000000000E+00 -0.00000000000E+00 -0.37311707659E+02  0.37311707952E+02  0.46700000000E-02 0. -1.
         25    2    1    2    0    0  0.00000000000E+00  0.00000000000E+00  0.67379992562E+02  0.14200340828E+03  0.12499961826E+03 0.  0.
        -11    1    3    3    0    0 -0.49615588545E+02 -0.21007318980E+02  0.69672091990E+02  0.88075050269E+02  0.51100000000E-03 0.  1.
         11    1    3    3    0    0  0.49615588545E+02  0.21007318980E+02 -0.22920994274E+01  0.53928358008E+02  0.51100000000E-03 0. -1.
<mgrwt>
<rscale>  0 0.12499962E+03</rscale>
<asrwt>0</asrwt>
<pdfrwt beam="2">  1        1 0.57402628E-02 0.12499962E+03</pdfrwt>
<pdfrwt beam="1">  1       -1 0.16106415E-01 0.12499962E+03</pdfrwt>
<totfact> 0.35650026E+04</totfact>
</mgrwt>
</event>
<event>
 5    1  0.8303392E-059  0.1250088E+03  0.7818608E-02  0.1235056E+00
         -1   -1    0    0    0  501 -0.00000000000E+00  0.00000000000E+00  0.20890851697E+03  0.20890851702E+03  0.46700000000E-02 0.  1.
          1   -1    0    0  501    0  0.00000000000E+00 -0.00000000000E+00 -0.18701009175E+02  0.18701009758E+02  0.46700000000E-02 0. -1.
         25    2    1    2    0    0  0.00000000000E+00  0.00000000000E+00  0.19020750779E+03  0.22760952678E+03  0.12500880233E+03 0.  0.
        -11    1    3    3    0    0  0.16858898212E+02  0.31111007906E+02  0.18891527284E+03  0.19220067007E+03  0.51100000000E-03 0.  1.
         11    1    3    3    0    0 -0.16858898212E+02 -0.31111007906E+02  0.12922349493E+01  0.35408856707E+02  0.51100000000E-03 0. -1.
<mgrwt>
<rscale>  0 0.12500880E+03</rscale>
<asrwt>0</asrwt>
<pdfrwt beam="2">  1        1 0.28770785E-02 0.12500880E+03</pdfrwt>
<pdfrwt beam="1">  1       -1 0.32139770E-01 0.12500880E+03</pdfrwt>
<totfact> 0.29900790E+04</totfact>
</mgrwt>
</event>
<event>
 5    1  0.8303392E-059  0.1250013E+03  0.7818608E-02  0.1235067E+00
          1   -1    0    0  501    0  0.00000000000E+00  0.00000000000E+00  0.46264883408E+03  0.46264883410E+03  0.46700000000E-02 0. -1.
         -1   -1    0    0    0  501 -0.00000000000E+00 -0.00000000000E+00 -0.84434079830E+01  0.84434092745E+01  0.46700000000E-02 0.  1.
         25    2    1    2    0    0  0.00000000000E+00  0.00000000000E+00  0.45420542610E+03  0.47109224338E+03  0.12500133069E+03 0.  0.
        -11    1    3    3    0    0 -0.49572178541E+01 -0.62167888048E+02  0.24260157407E+03  0.25048940907E+03  0.51100000000E-03 0.  1.
         11    1    3    3    0    0  0.49572178541E+01  0.62167888048E+02  0.21160385202E+03  0.22060283431E+03  0.51100000000E-03 0. -1.
<mgrwt>
<rscale>  0 0.12500133E+03</rscale>
<asrwt>0</asrwt>
<pdfrwt beam="1">  1        1 0.71176735E-01 0.12500133E+03</pdfrwt>
<pdfrwt beam="2">  1       -1 0.12989861E-02 0.12500133E+03</pdfrwt>
<totfact> 0.58936314E+04</totfact>
</mgrwt>
</event>
<event>
 5    1  0.8303392E-059  0.1249996E+03  0.7818608E-02  0.1235070E+00
         -1   -1    0    0    0  501 -0.00000000000E+00  0.00000000000E+00  0.34107128041E+02  0.34107128361E+02  0.46700000000E-02 0.  1.
          1   -1    0    0  501    0  0.00000000000E+00 -0.00000000000E+00 -0.11452812070E+03  0.11452812080E+03  0.46700000000E-02 0. -1.
         25    2    1    2    0    0  0.00000000000E+00  0.00000000000E+00 -0.80420992660E+02  0.14863524916E+03  0.12499960493E+03 0.  0.
        -11    1    3    3    0    0 -0.55487717444E+02 -0.12790885996E+02 -0.95760896462E+01  0.57742489077E+02  0.51100000000E-03 0.  1.
         11    1    3    3    0    0  0.55487717444E+02  0.12790885996E+02 -0.70844903014E+02  0.90892760080E+02  0.51100000000E-03 0. -1.
<mgrwt>
<rscale>  0 0.12499960E+03</rscale>
<asrwt>0</asrwt>
<pdfrwt beam="2">  1        1 0.17619711E-01 0.12499960E+03</pdfrwt>
<pdfrwt beam="1">  1       -1 0.52472505E-02 0.12499960E+03</pdfrwt>
<totfact> 0.44539757E+04</totfact>
</mgrwt>
</event>
<event>
 5    1  0.8303392E-059  0.1249963E+03  0.7818608E-02  0.1235075E+00
          1   -1    0    0  501    0  0.00000000000E+00  0.00000000000E+00  0.47091758081E+02  0.47091758312E+02  0.46700000000E-02 0. -1.
         -1   -1    0    0    0  501 -0.00000000000E+00 -0.00000000000E+00 -0.82944800828E+02  0.82944800960E+02  0.46700000000E-02 0.  1.
         25    2    1    2    0    0  0.00000000000E+00  0.00000000000E+00 -0.35853042748E+02  0.13003655927E+03  0.12499626424E+03 0.  0.
        -11    1    3    3    0    0  0.47784983706E+02 -0.38156050138E+02 -0.31359499274E+02  0.68721954461E+02  0.51100000000E-03 0.  1.
         11    1    3    3    0    0 -0.47784983706E+02  0.38156050138E+02 -0.44935434733E+01  0.61314604811E+02  0.51100000000E-03 0. -1.
<mgrwt>
<rscale>  0 0.12499626E+03</rscale>
<asrwt>0</asrwt>
<pdfrwt beam="1">  1        1 0.72448859E-02 0.12499626E+03</pdfrwt>
<pdfrwt beam="2">  1       -1 0.12760739E-01 0.12499626E+03</pdfrwt>
<totfact> 0.37422380E+04</totfact>
</mgrwt>
</event>
<event>
 5    1  0.8303392E-059  0.1249996E+03  0.7818608E-02  0.1235070E+00
         -1   -1    0    0    0  501 -0.00000000000E+00  0.00000000000E+00  0.12746699401E+02  0.12746700256E+02  0.46700000000E-02 0.  1.
          1   -1    0    0  501    0  0.00000000000E+00 -0.00000000000E+00 -0.30645005582E+03  0.30645005586E+03  0.46700000000E-02 0. -1.
         25    2    1    2    0    0  0.00000000000E+00  0.00000000000E+00 -0.29370335642E+03  0.31919675611E+03  0.12499963016E+03 0.  0.
        -11    1    3    3    0    0 -0.58305992574E+02 -0.20160183702E+02 -0.17241366883E+03  0.18311880018E+03  0.51100000000E-03 0.  1.
         11    1    3    3    0    0  0.58305992574E+02  0.20160183702E+02 -0.12128968759E+03  0.13607795594E+03  0.51100000000E-03 0. -1.
<mgrwt>
<rscale>  0 0.12499963E+03</rscale>
<asrwt>0</asrwt>
<pdfrwt beam="2">  1        1 0.47146157E-01 0.12499963E+03</pdfrwt>
<pdfrwt beam="1">  1       -1 0.19610310E-02 0.12499963E+03</pdfrwt>
<totfact> 0.54722374E+04</totfact>
</mgrwt>
</event>
<event>
 5    1  0.8303392E-059  0.1250004E+03  0.7818608E-02  0.1235069E+00
          1   -1    0    0  501    0  0.00000000000E+00  0.00000000000E+00  0.20592047200E+03  0.20592047205E+03  0.46700000000E-02 0. -1.
         -1   -1    0    0    0  501 -0.00000000000E+00 -0.00000000000E+00 -0.18969809058E+02  0.18969809632E+02  0.46700000000E-02 0.  1.
         25    2    1    2    0    0  0.00000000000E+00  0.00000000000E+00  0.18695066294E+03  0.22489028168E+03  0.12500035369E+03 0.  0.
        -11    1    3    3    0    0 -0.31516188090E+02 -0.22949875726E+02  0.55887766824E+01  0.39385293355E+02  0.51100000000E-03 0.  1.
         11    1    3    3    0    0  0.31516188090E+02  0.22949875726E+02  0.18136188626E+03  0.18550498833E+03  0.51100000000E-03 0. -1.
<mgrwt>
<rscale>  0 0.12500035E+03</rscale>
<asrwt>0</asrwt>
<pdfrwt beam="1">  1        1 0.31680072E-01 0.12500035E+03</pdfrwt>
<pdfrwt beam="2">  1       -1 0.29184323E-02 0.12500035E+03</pdfrwt>
<totfact> 0.50320860E+04</totfact>
</mgrwt>
</event>
<event>
 5    1  0.8303392E-059  0.1249945E+03  0.7818608E-02  0.1235078E+00
         -1   -1    0    0    0  501 -0.00000000000E+00  0.00000000000E+00  0.28381648246E+02  0.28381648630E+02  0.46700000000E-02 0.  1.
          1   -1    0    0  501    0  0.00000000000E+00 -0.00000000000E+00 -0.13762082488E+03  0.13762082496E+03  0.46700000000E-02 0. -1.
         25    2    1    2    0    0  0.00000000000E+00  0.00000000000E+00 -0.10923917663E+03  0.16600247359E+03  0.12499449398E+03 0.  0.
        -11    1    3    3    0    0 -0.60271961057E+02 -0.16243621731E+02 -0.58678675465E+02  0.85672349630E+02  0.51100000000E-03 0. -1.
         11    1    3    3    0    0  0.60271961057E+02  0.16243621731E+02 -0.50560501167E+02  0.80330123958E+02  0.51100000000E-03 0.  1.
<mgrwt>
<rscale>  0 0.12499449E+03</rscale>
<asrwt>0</asrwt>
<pdfrwt beam="2">  1        1 0.21172434E-01 0.12499449E+03</pdfrwt>
<pdfrwt beam="1">  1       -1 0.43664076E-02 0.12499449E+03</pdfrwt>
<totfact> 0.46238306E+04</totfact>
</mgrwt>
</event>
<event>
 5    1  0.8303392E-059  0.1250047E+03  0.7818608E-02  0.1235062E+00
          1   -1    0    0  501    0  0.00000000000E+00  0.00000000000E+00  0.10174176318E+03  0.10174176328E+03  0.46700000000E-02 0. -1.
         -1   -1    0    0    0  501 -0.00000000000E+00 -0.00000000000E+00 -0.38396682092E+02  0.38396682376E+02  0.46700000000E-02 0.  1.
         25    2    1    2    0    0  0.00000000000E+00  0.00000000000E+00  0.63345081084E+02  0.14013844566E+03  0.12500473853E+03 0.  0.
        -11    1    3    3    0    0 -0.44252108403E+02  0.66530036163E+01 -0.17245408372E+02  0.47957435976E+02  0.51100000000E-03 0.  1.
         11    1    3    3    0    0  0.44252108403E+02 -0.66530036163E+01  0.80590489456E+02  0.92181009683E+02  0.51100000000E-03 0. -1.
<mgrwt>
<rscale>  0 0.12500474E+03</rscale>
<asrwt>0</asrwt>
<pdfrwt beam="1">  1        1 0.15652579E-01 0.12500474E+03</pdfrwt>
<pdfrwt beam="2">  1       -1 0.59071819E-02 0.12500474E+03</pdfrwt>
<totfact> 0.43498195E+04</totfact>
</mgrwt>
</event>
<event>
 5    1  0.8303392E-059  0.1249881E+03  0.7818608E-02  0.1235088E+00
          1   -1    0    0  501    0  0.00000000000E+00  0.00000000000E+00  0.11786673589E+03  0.11786673598E+03  0.46700000000E-02 0.  1.
         -1   -1    0    0    0  501 -0.00000000000E+00 -0.00000000000E+00 -0.33134924304E+02  0.33134924633E+02  0.46700000000E-02 0. -1.
         25    2    1    2    0    0  0.00000000000E+00  0.00000000000E+00  0.84731811582E+02  0.15100166061E+03  0.12498808589E+03 0.  0.
        -11    1    3    3    0    0  0.47077542992E+02  0.21157659173E+02 -0.20350393575E+00  0.51613787014E+02  0.51100000000E-03 0. -1.
         11    1    3    3    0    0 -0.47077542992E+02 -0.21157659173E+02  0.84935315518E+02  0.99387873597E+02  0.51100000000E-03 0.  1.
<mgrwt>
<rscale>  0 0.12498809E+03</rscale>
<asrwt>0</asrwt>
<pdfrwt beam="1">  1        1 0.18133344E-01 0.12498809E+03</pdfrwt>
<pdfrwt beam="2">  1       -1 0.50976807E-02 0.12498809E+03</pdfrwt>
<totfact> 0.44809050E+04</totfact>
</mgrwt>
</event>
<event>
 5    1  0.1479360E-058  0.1249955E+03  0.7818608E-02  0.1235076E+00
         -1   -1    0    0    0  501 -0.00000000000E+00  0.00000000000E+00  0.18131457930E+03  0.18131457936E+03  0.46700000000E-02 0.  1.
          1   -1    0    0  501    0  0.00000000000E+00 -0.00000000000E+00 -0.21542489574E+02  0.21542490080E+02  0.46700000000E-02 0. -1.
         25    2    1    2    0    0  0.00000000000E+00  0.00000000000E+00  0.15977208972E+03  0.20285706944E+03  0.12499547978E+03 0.  0.
        -11    1    3    3    0    0 -0.44348528528E+02 -0.41544923380E+02  0.10358254426E+03  0.12009211514E+03  0.51100000000E-03 0.  1.
         11    1    3    3    0    0  0.44348528528E+02  0.41544923380E+02  0.56189545457E+02  0.82764954299E+02  0.51100000000E-03 0. -1.
<mgrwt>
<rscale>  0 0.12499548E+03</rscale>
<asrwt>0</asrwt>
<pdfrwt beam="2">  1        1 0.33142291E-02 0.12499548E+03</pdfrwt>
<pdfrwt beam="1">  1       -1 0.27894551E-01 0.12499548E+03</pdfrwt>
<totfact> 0.31184164E+04</totfact>
</mgrwt>
</event>
<event>
 5    1  0.8303392E-059  0.1249998E+03  0.7818608E-02  0.1235070E+00
         -1   -1    0    0    0  501 -0.00000000000E+00  0.00000000000E+00  0.86134585626E+01  0.86134598286E+01  0.46700000000E-02 0.  1.
          1   -1    0    0  501    0  0.00000000000E+00 -0.00000000000E+00 -0.45350402934E+03  0.45350402937E+03  0.46700000000E-02 0. -1.
         25    2    1    2    0    0  0.00000000000E+00  0.00000000000E+00 -0.44489057078E+03  0.46211748920E+03  0.12499981540E+03 0.  0.
        -11    1    3    3    0    0  0.24857372677E+02  0.56197779893E+02 -0.18026784984E+03  0.19045360886E+03  0.51100000000E-03 0.  1.
         11    1    3    3    0    0 -0.24857372677E+02 -0.56197779893E+02 -0.26462272094E+03  0.27166388034E+03  0.51100000000E-03 0. -1.
<mgrwt>
<rscale>  0 0.12499982E+03</rscale>
<asrwt>0</asrwt>
<pdfrwt beam="2">  1        1 0.69769832E-01 0.12499982E+03</pdfrwt>
<pdfrwt beam="1">  1       -1 0.13251479E-02 0.12499982E+03</pdfrwt>
<totfact> 0.58764083E+04</totfact>
</mgrwt>
</event>
<event>
 5    1  0.8303392E-059  0.1249936E+03  0.7818608E-02  0.1235079E+00
         -1   -1    0    0    0  501 -0.00000000000E+00  0.00000000000E+00  0.34109413182E+02  0.34109413502E+02  0.46700000000E-02 0.  1.
          1   -1    0    0  501    0  0.00000000000E+00 -0.00000000000E+00 -0.11450943058E+03  0.11450943068E+03  0.46700000000E-02 0. -1.
         25    2    1    2    0    0  0.00000000000E+00  0.00000000000E+00 -0.80400017400E+02  0.14861884418E+03  0.12499359202E+03 0.  0.
        -11    1    3    3    0    0 -0.38594746951E+02 -0.14622225842E+02  0.15601078756E+02  0.44122076554E+02  0.51100000000E-03 0.  1.
         11    1    3    3    0    0  0.38594746951E+02  0.14622225842E+02 -0.96001096155E+02  0.10449676763E+03  0.51100000000E-03 0. -1.
<mgrwt>
<rscale>  0 0.12499359E+03</rscale>
<asrwt>0</asrwt>
<pdfrwt beam="2">  1        1 0.17616835E-01 0.12499359E+03</pdfrwt>
<pdfrwt beam="1">  1       -1 0.52476021E-02 0.12499359E+03</pdfrwt>
<totfact> 0.44544373E+04</totfact>
</mgrwt>
</event>
<event>
 5    1  0.8303392E-059  0.1249964E+03  0.7818608E-02  0.1235075E+00
          1   -1    0    0  501    0  0.00000000000E+00  0.00000000000E+00  0.24759867235E+02  0.24759867675E+02  0.46700000000E-02 0. -1.
         -1   -1    0    0    0  501 -0.00000000000E+00 -0.00000000000E+00 -0.15775625933E+03  0.15775625940E+03  0.46700000000E-02 0.  1.
         25    2    1    2    0    0  0.00000000000E+00  0.00000000000E+00 -0.13299639209E+03  0.18251612707E+03  0.12499638527E+03 0.  0.
        -11    1    3    3    0    0 -0.49623507730E+01  0.29031320160E+02 -0.14698769853E+03  0.14990939262E+03  0.51100000000E-03 0.  1.
         11    1    3    3    0    0  0.49623507730E+01 -0.29031320160E+02  0.13991306440E+02  0.32606734452E+02  0.51100000000E-03 0. -1.
<mgrwt>
<rscale>  0 0.12499639E+03</rscale>
<asrwt>0</asrwt>
<pdfrwt beam="1">  1        1 0.38092105E-02 0.12499639E+03</pdfrwt>
<pdfrwt beam="2">  1       -1 0.24270193E-01 0.12499639E+03</pdfrwt>
<totfact> 0.32377426E+04</totfact>
</mgrwt>
</event>
<event>
 5    1  0.8303392E-059  0.1249938E+03  0.7818608E-02  0.1235079E+00
         -1   -1    0    0    0  501 -0.00000000000E+00  0.00000000000E+00  0.16893533191E+02  0.16893533837E+02  0.46700000000E-02 0.  1.
          1   -1    0    0  501    0  0.00000000000E+00 -0.00000000000E+00 -0.23120459867E+03  0.23120459872E+03  0.46700000000E-02 0. -1.
         25    2    1    2    0    0  0.00000000000E+00  0.00000000000E+00 -0.21431106548E+03  0.24809813256E+03  0.12499380221E+03 0.  0.
        -11    1    3    3    0    0  0.48837836264E+02 -0.38529299746E+02 -0.95209657432E+02  0.11373003147E+03  0.51100000000E-03 0.  1.
         11    1    3    3    0    0 -0.48837836264E+02  0.38529299746E+02 -0.11910140805E+03  0.13436810109E+03  0.51100000000E-03 0. -1.
<mgrwt>
<rscale>  0 0.12499380E+03</rscale>
<asrwt>0</asrwt>
<pdfrwt beam="2">  1        1 0.35569936E-01 0.12499380E+03</pdfrwt>
<pdfrwt beam="1">  1       -1 0.25990053E-02 0.12499380E+03</pdfrwt>
<totfact> 0.51587280E+04</totfact>
</mgrwt>
</event>
<event>
 4    1  0.8303392E-059  0.1250826E+03  0.7818608E-02  0.1234940E+00
         -1   -1    0    0    0  501 -0.00000000000E+00  0.00000000000E+00  0.14636554302E+02  0.14636555047E+02  0.46700000000E-02 0. -1.
          1   -1    0    0  501    0  0.00000000000E+00 -0.00000000000E+00 -0.26723585127E+03  0.26723585131E+03  0.46700000000E-02 0.  1.
        -11    1    1    2    0    0  0.21811631806E+00  0.62171566254E+02 -0.14159368582E+03  0.15464191892E+03  0.51100000000E-03 0. -1.
         11    1    1    2    0    0 -0.21811631806E+00 -0.62171566254E+02 -0.11100561115E+03  0.12723048743E+03  0.51100000000E-03 0.  1.
<mgrwt>
<rscale>  0 0.12508257E+03</rscale>
<asrwt>0</asrwt>
<pdfrwt beam="2">  1        1 0.41113204E-01 0.12508257E+03</pdfrwt>
<pdfrwt beam="1">  1       -1 0.22517778E-02 0.12508257E+03</pdfrwt>
<totfact> 0.53090901E+04</totfact>
</mgrwt>
</event>
<event>
 5    1  0.8303392E-059  0.1250019E+03  0.7818608E-02  0.1235066E+00
          1   -1    0    0  501    0  0.00000000000E+00  0.00000000000E+00  0.18629686739E+02  0.18629687324E+02  0.46700000000E-02 0. -1.
         -1   -1    0    0    0  501 -0.00000000000E+00 -0.00000000000E+00 -0.20968527166E+03  0.20968527171E+03  0.46700000000E-02 0.  1.
         25    2    1    2    0    0  0.00000000000E+00  0.00000000000E+00 -0.19105558492E+03  0.22831495904E+03  0.12500193595E+03 0.  0.
        -11    1    3    3    0    0 -0.58909956396E+02  0.20698672290E+02 -0.90508096943E+02  0.10995696253E+03  0.51100000000E-03 0.  1.
         11    1    3    3    0    0  0.58909956396E+02 -0.20698672290E+02 -0.10054748798E+03  0.11835799651E+03  0.51100000000E-03 0. -1.
<mgrwt>
<rscale>  0 0.12500194E+03</rscale>
<asrwt>0</asrwt>
<pdfrwt beam="1">  1        1 0.28661058E-02 0.12500194E+03</pdfrwt>
<pdfrwt beam="2">  1       -1 0.32259271E-01 0.12500194E+03</pdfrwt>
<totfact> 0.29870869E+04</totfact>
</mgrwt>
</event>
<event>
 5    1  0.8303392E-059  0.1250007E+03  0.7818608E-02  0.1235068E+00
         -1   -1    0    0    0  501 -0.00000000000E+00  0.00000000000E+00  0.42410641154E+02  0.42410641411E+02  0.46700000000E-02 0.  1.
          1   -1    0    0  501    0  0.00000000000E+00 -0.00000000000E+00 -0.92106414036E+02  0.92106414155E+02  0.46700000000E-02 0. -1.
         25    2    1    2    0    0  0.00000000000E+00  0.00000000000E+00 -0.49695772882E+02  0.13451705557E+03  0.12500067358E+03 0.  0.
        -11    1    3    3    0    0 -0.40895819911E+02  0.46862441549E+02 -0.18237291603E+02  0.64816319854E+02  0.51100000000E-03 0.  1.
         11    1    3    3    0    0  0.40895819911E+02 -0.46862441549E+02 -0.31458481280E+02  0.69700735712E+02  0.51100000000E-03 0. -1.
<mgrwt>
<rscale>  0 0.12500067E+03</rscale>
<asrwt>0</asrwt>
<pdfrwt beam="2">  1        1 0.14170218E-01 0.12500067E+03</pdfrwt>
<pdfrwt beam="1">  1       -1 0.65247141E-02 0.12500067E+03</pdfrwt>
<totfact> 0.42659201E+04</totfact>
</mgrwt>
</event>
<event>
 5    1  0.8303392E-059  0.1250027E+03  0.7818608E-02  0.1235065E+00
         -1   -1    0    0    0  501 -0.00000000000E+00  0.00000000000E+00  0.66091366916E+02  0.66091367081E+02  0.46700000000E-02 0.  1.
          1   -1    0    0  501    0  0.00000000000E+00 -0.00000000000E+00 -0.59106384071E+02  0.59106384256E+02  0.46700000000E-02 0. -1.
         25    2    1    2    0    0  0.00000000000E+00  0.00000000000E+00  0.69849828442E+01  0.12519775134E+03  0.12500274779E+03 0.  0.
        -11    1    3    3    0    0 -0.29812340928E+02 -0.43574462253E+02  0.36994820031E+02  0.64468024180E+02  0.51100000000E-03 0.  1.
         11    1    3    3    0    0  0.29812340928E+02  0.43574462253E+02 -0.30009837187E+02  0.60729727157E+02  0.51100000000E-03 0. -1.
<mgrwt>
<rscale>  0 0.12500275E+03</rscale>
<asrwt>0</asrwt>
<pdfrwt beam="2">  1        1 0.90932900E-02 0.12500275E+03</pdfrwt>
<pdfrwt beam="1">  1       -1 0.10167903E-01 0.12500275E+03</pdfrwt>
<totfact> 0.39137982E+04</totfact>
</mgrwt>
</event>
<event>
 5    1  0.8303392E-059  0.1250006E+03  0.7818608E-02  0.1235068E+00
          1   -1    0    0  501    0  0.00000000000E+00  0.00000000000E+00  0.49134709545E+02  0.49134709767E+02  0.46700000000E-02 0. -1.
         -1   -1    0    0    0  501 -0.00000000000E+00 -0.00000000000E+00 -0.79501571912E+02  0.79501572049E+02  0.46700000000E-02 0.  1.
         25    2    1    2    0    0  0.00000000000E+00  0.00000000000E+00 -0.30366862367E+02  0.12863628182E+03  0.12500058668E+03 0.  0.
        -11    1    3    3    0    0 -0.38103693102E+02 -0.49488985873E+02 -0.12828755022E+02  0.63762278084E+02  0.51100000000E-03 0.  1.
         11    1    3    3    0    0  0.38103693102E+02  0.49488985873E+02 -0.17538107345E+02  0.64874003732E+02  0.51100000000E-03 0. -1.
<mgrwt>
<rscale>  0 0.12500059E+03</rscale>
<asrwt>0</asrwt>
<pdfrwt beam="1">  1        1 0.75591861E-02 0.12500059E+03</pdfrwt>
<pdfrwt beam="2">  1       -1 0.12231011E-01 0.12500059E+03</pdfrwt>
<totfact> 0.37739087E+04</totfact>
</mgrwt>
</event>
<event>
 5    1  0.8303392E-059  0.1250000E+03  0.7818608E-02  0.1235069E+00
         -1   -1    0    0    0  501 -0.00000000000E+00  0.00000000000E+00  0.10608438755E+02  0.10608439783E+02  0.46700000000E-02 0.  1.
          1   -1    0    0  501    0  0.00000000000E+00 -0.00000000000E+00 -0.36822074623E+03  0.36822074626E+03  0.46700000000E-02 0. -1.
         25    2    1    2    0    0  0.00000000000E+00  0.00000000000E+00 -0.35761230748E+03  0.37882918605E+03  0.12499995896E+03 0.  0.
        -11    1    3    3    0    0  0.44433384737E+02 -0.29862005377E+02 -0.27654974891E+03  0.28168391624E+03  0.51100000000E-03 0.  1.
         11    1    3    3    0    0 -0.44433384737E+02  0.29862005377E+02 -0.81062558565E+02  0.97145269806E+02  0.51100000000E-03 0. -1.
<mgrwt>
<rscale>  0 0.12499996E+03</rscale>
<asrwt>0</asrwt>
<pdfrwt beam="2">  1        1 0.56649336E-01 0.12499996E+03</pdfrwt>
<pdfrwt beam="1">  1       -1 0.16320679E-02 0.12499996E+03</pdfrwt>
<totfact> 0.56717326E+04</totfact>
</mgrwt>
</event>
<event>
 5    1  0.8303392E-059  0.1250078E+03  0.7818608E-02  0.1235057E+00
         -1   -1    0    0    0  501 -0.00000000000E+00  0.00000000000E+00  0.15487694947E+02  0.15487695651E+02  0.46700000000E-02 0.  1.
          1   -1    0    0  501    0  0.00000000000E+00 -0.00000000000E+00 -0.25224781853E+03  0.25224781857E+03  0.46700000000E-02 0. -1.
         25    2    1    2    0    0  0.00000000000E+00  0.00000000000E+00 -0.23676012358E+03  0.26773551422E+03  0.12500779759E+03 0.  0.
        -11    1    3    3    0    0 -0.54350054116E+02  0.94878042363E+01 -0.18129033474E+03  0.18949968940E+03  0.51100000000E-03 0.  1.
         11    1    3    3    0    0  0.54350054116E+02 -0.94878042363E+01 -0.55469788839E+02  0.78235824823E+02  0.51100000000E-03 0. -1.
<mgrwt>
<rscale>  0 0.12500780E+03</rscale>
<asrwt>0</asrwt>
<pdfrwt beam="2">  1        1 0.38807354E-01 0.12500780E+03</pdfrwt>
<pdfrwt beam="1">  1       -1 0.23827225E-02 0.12500780E+03</pdfrwt>
<totfact> 0.52533263E+04</totfact>
</mgrwt>
</event>
<event>
 5    1  0.8303392E-059  0.1249988E+03  0.7818608E-02  0.1235071E+00
         -1   -1    0    0    0  501 -0.00000000000E+00  0.00000000000E+00  0.70265991422E+02  0.70265991577E+02  0.46700000000E-02 0.  1.
          1   -1    0    0  501    0  0.00000000000E+00 -0.00000000000E+00 -0.55591294718E+02  0.55591294915E+02  0.46700000000E-02 0. -1.
         25    2    1    2    0    0  0.00000000000E+00  0.00000000000E+00  0.14674696703E+02  0.12585728649E+03  0.12499883935E+03 0.  0.
        -11    1    3    3    0    0  0.61927710133E+02 -0.74327170214E+01  0.33236330654E+01  0.62460652428E+02  0.51100000000E-03 0. -1.
         11    1    3    3    0    0 -0.61927710133E+02  0.74327170214E+01  0.11351063638E+02  0.63396634064E+02  0.51100000000E-03 0.  1.
<mgrwt>
<rscale>  0 0.12499884E+03</rscale>
<asrwt>0</asrwt>
<pdfrwt beam="2">  1        1 0.85525069E-02 0.12499884E+03</pdfrwt>
<pdfrwt beam="1">  1       -1 0.10810153E-01 0.12499884E+03</pdfrwt>
<totfact> 0.38674763E+04</totfact>
</mgrwt>
</event>
<event>
 5    1  0.8303392E-059  0.1250052E+03  0.7818608E-02  0.1235061E+00
          1   -1    0    0  501    0  0.00000000000E+00  0.00000000000E+00  0.36813522241E+03  0.36813522244E+03  0.46700000000E-02 0. -1.
         -1   -1    0    0    0  501 -0.00000000000E+00 -0.00000000000E+00 -0.10611798092E+02  0.10611799120E+02  0.46700000000E-02 0.  1.
         25    2    1    2    0    0  0.00000000000E+00  0.00000000000E+00  0.35752342432E+03  0.37874702156E+03  0.12500522951E+03 0.  0.
        -11    1    3    3    0    0 -0.23702408713E+02 -0.57729293955E+02  0.16822180208E+03  0.17942421870E+03  0.51100000000E-03 0.  1.
         11    1    3    3    0    0  0.23702408713E+02  0.57729293955E+02  0.18930162224E+03  0.19932280286E+03  0.51100000000E-03 0. -1.
<mgrwt>
<rscale>  0 0.12500523E+03</rscale>
<asrwt>0</asrwt>
<pdfrwt beam="1">  1        1 0.56636192E-01 0.12500523E+03</pdfrwt>
<pdfrwt beam="2">  1       -1 0.16325843E-02 0.12500523E+03</pdfrwt>
<totfact> 0.56708326E+04</totfact>
</mgrwt>
</event>
<event>
 5    1  0.8303392E-059  0.1249997E+03  0.7818608E-02  0.1235070E+00
         -1   -1    0    0    0  501 -0.00000000000E+00  0.00000000000E+00  0.64469381370E+02  0.64469381540E+02  0.46700000000E-02 0.  1.
          1   -1    0    0  501    0  0.00000000000E+00 -0.00000000000E+00 -0.60590521317E+02  0.60590521497E+02  0.46700000000E-02 0. -1.
         25    2    1    2    0    0  0.00000000000E+00  0.00000000000E+00  0.38788600536E+01  0.12505990304E+03  0.12499973517E+03 0.  0.
        -11    1    3    3    0    0  0.32160409748E+02 -0.27026821938E+02  0.48237966435E+02  0.63965947701E+02  0.51100000000E-03 0.  1.
         11    1    3    3    0    0 -0.32160409748E+02  0.27026821938E+02 -0.44359106382E+02  0.61093955335E+02  0.51100000000E-03 0. -1.
<mgrwt>
<rscale>  0 0.12499974E+03</rscale>
<asrwt>0</asrwt>
<pdfrwt beam="2">  1        1 0.93216188E-02 0.12499974E+03</pdfrwt>
<pdfrwt beam="1">  1       -1 0.99183663E-02 0.12499974E+03</pdfrwt>
<totfact> 0.39330392E+04</totfact>
</mgrwt>
</event>
<event>
 5    1  0.8303392E-059  0.1249997E+03  0.7818608E-02  0.1235070E+00
          1   -1    0    0  501    0  0.00000000000E+00  0.00000000000E+00  0.26566766718E+03  0.26566766722E+03  0.46700000000E-02 0. -1.
         -1   -1    0    0    0  501 -0.00000000000E+00 -0.00000000000E+00 -0.14703441471E+02  0.14703442213E+02  0.46700000000E-02 0.  1.
         25    2    1    2    0    0  0.00000000000E+00  0.00000000000E+00  0.25096422571E+03  0.28037110943E+03  0.12499966568E+03 0.  0.
        -11    1    3    3    0    0  0.26868871206E+02  0.48249510201E+02  0.59847684380E+02  0.81435230708E+02  0.51100000000E-03 0.  1.
         11    1    3    3    0    0 -0.26868871206E+02 -0.48249510201E+02  0.19111654133E+03  0.19893587872E+03  0.51100000000E-03 0. -1.
<mgrwt>
<rscale>  0 0.12499967E+03</rscale>
<asrwt>0</asrwt>
<pdfrwt beam="1">  1        1 0.40871946E-01 0.12499967E+03</pdfrwt>
<pdfrwt beam="2">  1       -1 0.22620681E-02 0.12499967E+03</pdfrwt>
<totfact> 0.53122174E+04</totfact>
</mgrwt>
</event>
<event>
 5    1  0.8303392E-059  0.1249999E+03  0.7818608E-02  0.1235069E+00
         -1   -1    0    0    0  501 -0.00000000000E+00  0.00000000000E+00  0.88304905124E+02  0.88304905247E+02  0.46700000000E-02 0.  1.
          1   -1    0    0  501    0  0.00000000000E+00 -0.00000000000E+00 -0.44235866335E+02  0.44235866581E+02  0.46700000000E-02 0. -1.
         25    2    1    2    0    0  0.00000000000E+00  0.00000000000E+00  0.44069038789E+02  0.13254077183E+03  0.12499990407E+03 0.  0.
        -11    1    3    3    0    0 -0.40603876608E+02  0.44985854277E+02  0.38248930817E+02  0.71661583778E+02  0.51100000000E-03 0.  1.
         11    1    3    3    0    0  0.40603876608E+02 -0.44985854277E+02  0.58201079721E+01  0.60879188051E+02  0.51100000000E-03 0. -1.
<mgrwt>
<rscale>  0 0.12499990E+03</rscale>
<asrwt>0</asrwt>
<pdfrwt beam="2">  1        1 0.68055180E-02 0.12499990E+03</pdfrwt>
<pdfrwt beam="1">  1       -1 0.13585370E-01 0.12499990E+03</pdfrwt>
<totfact> 0.36946111E+04</totfact>
</mgrwt>
</event>
<event>
 5    1  0.8303392E-059  0.1250024E+03  0.7818608E-02  0.1235066E+00
          1   -1    0    0  501    0  0.00000000000E+00  0.00000000000E+00  0.35624321164E+02  0.35624321470E+02  0.46700000000E-02 0. -1.
         -1   -1    0    0    0  501 -0.00000000000E+00 -0.00000000000E+00 -0.10965535809E+03  0.10965535819E+03  0.46700000000E-02 0.  1.
         25    2    1    2    0    0  0.00000000000E+00  0.00000000000E+00 -0.74031036926E+02  0.14527967966E+03  0.12500236355E+03 0.  0.
        -11    1    3    3    0    0 -0.53075619826E+02 -0.31507039815E+02 -0.25587757817E+02  0.66816527358E+02  0.51100000000E-03 0.  1.
         11    1    3    3    0    0  0.53075619826E+02  0.31507039815E+02 -0.48443279109E+02  0.78463152300E+02  0.51100000000E-03 0. -1.
<mgrwt>
<rscale>  0 0.12500236E+03</rscale>
<asrwt>0</asrwt>
<pdfrwt beam="1">  1        1 0.54806649E-02 0.12500236E+03</pdfrwt>
<pdfrwt beam="2">  1       -1 0.16870055E-01 0.12500236E+03</pdfrwt>
<totfact> 0.35291233E+04</totfact>
</mgrwt>
</event>
<event>
 5    1  0.8303392E-059  0.1250004E+03  0.7818608E-02  0.1235069E+00
          1   -1    0    0  501    0  0.00000000000E+00  0.00000000000E+00  0.20464182232E+03  0.20464182237E+03  0.46700000000E-02 0.  1.
         -1   -1    0    0    0  501 -0.00000000000E+00 -0.00000000000E+00 -0.19088360606E+02  0.19088361177E+02  0.46700000000E-02 0. -1.
         25    2    1    2    0    0  0.00000000000E+00  0.00000000000E+00  0.18555346171E+03  0.22373018355E+03  0.12500043151E+03 0.  0.
        -11    1    3    3    0    0  0.47602152901E+02  0.77096108427E+01  0.21612512655E+02  0.52844145974E+02  0.51100000000E-03 0. -1.
         11    1    3    3    0    0 -0.47602152901E+02 -0.77096108427E+01  0.16394094905E+03  0.17088603757E+03  0.51100000000E-03 0.  1.
<mgrwt>
<rscale>  0 0.12500043E+03</rscale>
<asrwt>0</asrwt>
<pdfrwt beam="1">  1        1 0.31483358E-01 0.12500043E+03</pdfrwt>
<pdfrwt beam="2">  1       -1 0.29366708E-02 0.12500043E+03</pdfrwt>
<totfact> 0.50253815E+04</totfact>
</mgrwt>
</event>
<event>
 5    1  0.8303392E-059  0.1249991E+03  0.7818608E-02  0.1235071E+00
         -1   -1    0    0    0  501 -0.00000000000E+00  0.00000000000E+00  0.55841377265E+02  0.55841377461E+02  0.46700000000E-02 0.  1.
          1   -1    0    0  501    0  0.00000000000E+00 -0.00000000000E+00 -0.69951594795E+02  0.69951594951E+02  0.46700000000E-02 0. -1.
         25    2    1    2    0    0  0.00000000000E+00  0.00000000000E+00 -0.14110217530E+02  0.12579297241E+03  0.12499909467E+03 0.  0.
        -11    1    3    3    0    0 -0.48450456161E+02  0.22517379012E+02  0.25581003104E+02  0.59235688397E+02  0.51100000000E-03 0.  1.
         11    1    3    3    0    0  0.48450456161E+02 -0.22517379012E+02 -0.39691220634E+02  0.66557284015E+02  0.51100000000E-03 0. -1.
<mgrwt>
<rscale>  0 0.12499909E+03</rscale>
<asrwt>0</asrwt>
<pdfrwt beam="2">  1        1 0.10761784E-01 0.12499909E+03</pdfrwt>
<pdfrwt beam="1">  1       -1 0.85909811E-02 0.12499909E+03</pdfrwt>
<totfact> 0.40442086E+04</totfact>
</mgrwt>
</event>
<event>
 5    1  0.8303392E-059  0.1249824E+03  0.7818608E-02  0.1235097E+00
         -1   -1    0    0    0  501 -0.00000000000E+00  0.00000000000E+00  0.79841939167E+02  0.79841939304E+02  0.46700000000E-02 0.  1.
          1   -1    0    0  501    0  0.00000000000E+00 -0.00000000000E+00 -0.48911012210E+02  0.48911012433E+02  0.46700000000E-02 0. -1.
         25    2    1    2    0    0  0.00000000000E+00  0.00000000000E+00  0.30930926958E+02  0.12875295174E+03  0.12498240011E+03 0.  0.
        -11    1    3    3    0    0  0.60266975615E+02  0.64668698401E+01 -0.19924367740E+00  0.60613269617E+02  0.51100000000E-03 0. -1.
         11    1    3    3    0    0 -0.60266975615E+02 -0.64668698401E+01  0.31130170635E+02  0.68139682120E+02  0.51100000000E-03 0.  1.
<mgrwt>
<rscale>  0 0.12498240E+03</rscale>
<asrwt>0</asrwt>
<pdfrwt beam="2">  1        1 0.75247713E-02 0.12498240E+03</pdfrwt>
<pdfrwt beam="1">  1       -1 0.12283375E-01 0.12498240E+03</pdfrwt>
<totfact> 0.37720888E+04</totfact>
</mgrwt>
</event>
<event>
 5    1  0.8303392E-059  0.1250005E+03  0.7818608E-02  0.1235068E+00
          1   -1    0    0  501    0  0.00000000000E+00  0.00000000000E+00  0.17686975578E+03  0.17686975584E+03  0.46700000000E-02 0. -1.
         -1   -1    0    0    0  501 -0.00000000000E+00 -0.00000000000E+00 -0.22085640732E+02  0.22085641226E+02  0.46700000000E-02 0.  1.
         25    2    1    2    0    0  0.00000000000E+00  0.00000000000E+00  0.15478411504E+03  0.19895539706E+03  0.12500051100E+03 0.  0.
        -11    1    3    3    0    0 -0.11033741042E+02  0.57329139438E+02  0.41876502579E+02  0.71847165140E+02  0.51100000000E-03 0.  1.
         11    1    3    3    0    0  0.11033741042E+02 -0.57329139438E+02  0.11290761247E+03  0.12710823192E+03  0.51100000000E-03 0. -1.
<mgrwt>
<rscale>  0 0.12500051E+03</rscale>
<asrwt>0</asrwt>
<pdfrwt beam="1">  1        1 0.27210731E-01 0.12500051E+03</pdfrwt>
<pdfrwt beam="2">  1       -1 0.33977910E-02 0.12500051E+03</pdfrwt>
<totfact> 0.48715302E+04</totfact>
</mgrwt>
</event>
<event>
 5    1  0.8303392E-059  0.1250004E+03  0.7818608E-02  0.1235069E+00
          1   -1    0    0  501    0  0.00000000000E+00  0.00000000000E+00  0.11761575125E+03  0.11761575135E+03  0.46700000000E-02 0. -1.
         -1   -1    0    0    0  501 -0.00000000000E+00 -0.00000000000E+00 -0.33212169081E+02  0.33212169410E+02  0.46700000000E-02 0.  1.
         25    2    1    2    0    0  0.00000000000E+00  0.00000000000E+00  0.84403582172E+02  0.15082792076E+03  0.12500038798E+03 0.  0.
        -11    1    3    3    0    0 -0.41434339344E+02 -0.23580051699E+02 -0.65649158312E+01  0.48124021393E+02  0.51100000000E-03 0.  1.
         11    1    3    3    0    0  0.41434339344E+02  0.23580051699E+02  0.90968498003E+02  0.10270389936E+03  0.51100000000E-03 0. -1.
<mgrwt>
<rscale>  0 0.12500039E+03</rscale>
<asrwt>0</asrwt>
<pdfrwt beam="1">  1        1 0.18094731E-01 0.12500039E+03</pdfrwt>
<pdfrwt beam="2">  1       -1 0.51095644E-02 0.12500039E+03</pdfrwt>
<totfact> 0.44777373E+04</totfact>
</mgrwt>
</event>
<event>
 5    1  0.8303392E-059  0.1249983E+03  0.7818608E-02  0.1235072E+00
         -1   -1    0    0    0  501 -0.00000000000E+00  0.00000000000E+00  0.99603086940E+02  0.99603087050E+02  0.46700000000E-02 0.  1.
          1   -1    0    0  501    0  0.00000000000E+00 -0.00000000000E+00 -0.39217076876E+02  0.39217077154E+02  0.46700000000E-02 0. -1.
         25    2    1    2    0    0  0.00000000000E+00  0.00000000000E+00  0.60386010064E+02  0.13882016420E+03  0.12499827110E+03 0.  0.
        -11    1    3    3    0    0  0.24623975241E+02  0.18733071667E+02 -0.30115233245E+02  0.43176329214E+02  0.51100000000E-03 0. -1.
         11    1    3    3    0    0 -0.24623975241E+02 -0.18733071667E+02  0.90501243309E+02  0.95643834990E+02  0.51100000000E-03 0.  1.
<mgrwt>
<rscale>  0 0.12499827E+03</rscale>
<asrwt>0</asrwt>
<pdfrwt beam="2">  1        1 0.60333966E-02 0.12499827E+03</pdfrwt>
<pdfrwt beam="1">  1       -1 0.15323552E-01 0.12499827E+03</pdfrwt>
<totfact> 0.36032564E+04</totfact>
</mgrwt>
</event>
<event>
 5    1  0.8303392E-059  0.1249992E+03  0.7818608E-02  0.1235070E+00
         -1   -1    0    0    0  501 -0.00000000000E+00  0.00000000000E+00  0.19523337842E+02  0.19523338401E+02  0.46700000000E-02 0.  1.
          1   -1    0    0  501    0  0.00000000000E+00 -0.00000000000E+00 -0.20007862160E+03  0.20007862165E+03  0.46700000000E-02 0. -1.
         25    2    1    2    0    0  0.00000000000E+00  0.00000000000E+00 -0.18055528375E+03  0.21960196005E+03  0.12499924147E+03 0.  0.
        -11    1    3    3    0    0  0.61562028876E+02 -0.83820909120E+01 -0.10220075309E+03  0.11960408346E+03  0.51100000000E-03 0.  1.
         11    1    3    3    0    0 -0.61562028876E+02  0.83820909120E+01 -0.78354530660E+02  0.99997876590E+02  0.51100000000E-03 0. -1.
<mgrwt>
<rscale>  0 0.12499924E+03</rscale>
<asrwt>0</asrwt>
<pdfrwt beam="2">  1        1 0.30781325E-01 0.12499924E+03</pdfrwt>
<pdfrwt beam="1">  1       -1 0.30035906E-02 0.12499924E+03</pdfrwt>
<totfact> 0.50013513E+04</totfact>
</mgrwt>
</event>
<event>
 5    1  0.8303392E-059  0.1249999E+03  0.7818608E-02  0.1235069E+00
          1   -1    0    0  501    0  0.00000000000E+00  0.00000000000E+00  0.20899368248E+02  0.20899368770E+02  0.46700000000E-02 0. -1.
         -1   -1    0    0    0  501 -0.00000000000E+00 -0.00000000000E+00 -0.18690717112E+03  0.18690717118E+03  0.46700000000E-02 0.  1.
         25    2    1    2    0    0  0.00000000000E+00  0.00000000000E+00 -0.16600780287E+03  0.20780653995E+03  0.12499986972E+03 0.  0.
        -11    1    3    3    0    0 -0.16358007079E+01 -0.59939927843E+02 -0.11231080519E+03  0.12731530841E+03  0.51100000000E-03 0. -1.
         11    1    3    3    0    0  0.16358007079E+01  0.59939927843E+02 -0.53696997685E+02  0.80491231538E+02  0.51100000000E-03 0.  1.
<mgrwt>
<rscale>  0 0.12499987E+03</rscale>
<asrwt>0</asrwt>
<pdfrwt beam="1">  1        1 0.32152876E-02 0.12499987E+03</pdfrwt>
<pdfrwt beam="2">  1       -1 0.28754948E-01 0.12499987E+03</pdfrwt>
<totfact> 0.30913085E+04</totfact>
</mgrwt>
</event>
<event>
 5    1  0.8303392E-059  0.1249999E+03  0.7818608E-02  0.1235069E+00
          1   -1    0    0  501    0  0.00000000000E+00  0.00000000000E+00  0.25380381214E+02  0.25380381643E+02  0.46700000000E-02 0. -1.
         -1   -1    0    0    0  501 -0.00000000000E+00 -0.00000000000E+00 -0.15390801785E+03  0.15390801792E+03  0.46700000000E-02 0.  1.
         25    2    1    2    0    0  0.00000000000E+00  0.00000000000E+00 -0.12852763663E+03  0.17928839956E+03  0.12499990735E+03 0.  0.
        -11    1    3    3    0    0 -0.45842469287E+02 -0.41786592487E+02 -0.75242874903E+02  0.97514827210E+02  0.51100000000E-03 0.  1.
         11    1    3    3    0    0  0.45842469287E+02  0.41786592487E+02 -0.53284761730E+02  0.81773572350E+02  0.51100000000E-03 0. -1.
<mgrwt>
<rscale>  0 0.12499991E+03</rscale>
<asrwt>0</asrwt>
<pdfrwt beam="1">  1        1 0.39046742E-02 0.12499991E+03</pdfrwt>
<pdfrwt beam="2">  1       -1 0.23678156E-01 0.12499991E+03</pdfrwt>
<totfact> 0.32581600E+04</totfact>
</mgrwt>
</event>
<event>
 5    1  0.8303392E-059  0.1249945E+03  0.7818608E-02  0.1235078E+00
         -1   -1    0    0    0  501 -0.00000000000E+00  0.00000000000E+00  0.11655685979E+02  0.11655686914E+02  0.46700000000E-02 0.  1.
          1   -1    0    0  501    0  0.00000000000E+00 -0.00000000000E+00 -0.33510726107E+03  0.33510726110E+03  0.46700000000E-02 0. -1.
         25    2    1    2    0    0  0.00000000000E+00  0.00000000000E+00 -0.32345157509E+03  0.34676294802E+03  0.12499448263E+03 0.  0.
        -11    1    3    3    0    0  0.61108745173E+02 -0.12085800595E+02 -0.14770019976E+03  0.16029876582E+03  0.51100000000E-03 0. -1.
         11    1    3    3    0    0 -0.61108745173E+02  0.12085800595E+02 -0.17575137533E+03  0.18646418220E+03  0.51100000000E-03 0.  1.
<mgrwt>
<rscale>  0 0.12499448E+03</rscale>
<asrwt>0</asrwt>
<pdfrwt beam="2">  1        1 0.51554956E-01 0.12499448E+03</pdfrwt>
<pdfrwt beam="1">  1       -1 0.17931828E-02 0.12499448E+03</pdfrwt>
<totfact> 0.55714447E+04</totfact>
</mgrwt>
</event>
<event>
 5    1  0.8303392E-059  0.1249582E+03  0.7818608E-02  0.1235135E+00
         -1   -1    0    0    0  501 -0.00000000000E+00  0.00000000000E+00  0.42189254076E+03  0.42189254079E+03  0.46700000000E-02 0.  1.
          1   -1    0    0  501    0  0.00000000000E+00 -0.00000000000E+00 -0.92526827533E+01  0.92526839319E+01  0.46700000000E-02 0. -1.
         25    2    1    2    0    0  0.00000000000E+00  0.00000000000E+00  0.41263985801E+03  0.43114522472E+03  0.12495820254E+03 0.  0.
        -11    1    3    3    0    0  0.59104400536E+02 -0.97382278985E+01  0.26760309335E+03  0.27422541606E+03  0.51100000000E-03 0.  1.
         11    1    3    3    0    0 -0.59104400536E+02  0.97382278985E+01  0.14503676466E+03  0.15691980866E+03  0.51100000000E-03 0. -1.
<mgrwt>
<rscale>  0 0.12495820E+03</rscale>
<asrwt>0</asrwt>
<pdfrwt beam="2">  1        1 0.14234897E-02 0.12495820E+03</pdfrwt>
<pdfrwt beam="1">  1       -1 0.64906545E-01 0.12495820E+03</pdfrwt>
<totfact> 0.22487856E+04</totfact>
</mgrwt>
</event>
<event>
 5    1  0.8303392E-059  0.1250005E+03  0.7818608E-02  0.1235068E+00
          1   -1    0    0  501    0  0.00000000000E+00  0.00000000000E+00  0.18024477178E+03  0.18024477184E+03  0.46700000000E-02 0. -1.
         -1   -1    0    0    0  501 -0.00000000000E+00 -0.00000000000E+00 -0.21672099802E+02  0.21672100305E+02  0.46700000000E-02 0.  1.
         25    2    1    2    0    0  0.00000000000E+00  0.00000000000E+00  0.15857267198E+03  0.20191687215E+03  0.12500052383E+03 0.  0.
        -11    1    3    3    0    0 -0.50623925497E+02  0.41522591540E+01  0.20459558896E+02  0.54759625996E+02  0.51100000000E-03 0.  1.
         11    1    3    3    0    0  0.50623925497E+02 -0.41522591540E+01  0.13811311308E+03  0.14715724615E+03  0.51100000000E-03 0. -1.
<mgrwt>
<rscale>  0 0.12500052E+03</rscale>
<asrwt>0</asrwt>
<pdfrwt beam="1">  1        1 0.27729964E-01 0.12500052E+03</pdfrwt>
<pdfrwt beam="2">  1       -1 0.33341694E-02 0.12500052E+03</pdfrwt>
<totfact> 0.48911238E+04</totfact>
</mgrwt>
</event>
<event>
 5    1  0.8303392E-059  0.1249778E+03  0.7818608E-02  0.1235104E+00
          1   -1    0    0  501    0  0.00000000000E+00  0.00000000000E+00  0.25415885553E+02  0.25415885982E+02  0.46700000000E-02 0. -1.
         -1   -1    0    0    0  501 -0.00000000000E+00 -0.00000000000E+00 -0.15363856363E+03  0.15363856370E+03  0.46700000000E-02 0.  1.
         25    2    1    2    0    0  0.00000000000E+00  0.00000000000E+00 -0.12822267807E+03  0.17905444968E+03  0.12497776113E+03 0.  0.
        -11    1    3    3    0    0  0.20057313940E+02  0.58995948374E+02 -0.57384948401E+02  0.84710389388E+02  0.51100000000E-03 0.  1.
         11    1    3    3    0    0 -0.20057313940E+02 -0.58995948374E+02 -0.70837729673E+02  0.94344060293E+02  0.51100000000E-03 0. -1.
<mgrwt>
<rscale>  0 0.12497776E+03</rscale>
<asrwt>0</asrwt>
<pdfrwt beam="1">  1        1 0.39101364E-02 0.12497776E+03</pdfrwt>
<pdfrwt beam="2">  1       -1 0.23636702E-01 0.12497776E+03</pdfrwt>
<totfact> 0.32611370E+04</totfact>
</mgrwt>
</event>
<event>
 5    1  0.8303392E-059  0.1249994E+03  0.7818608E-02  0.1235070E+00
          1   -1    0    0  501    0  0.00000000000E+00  0.00000000000E+00  0.53929592936E+02  0.53929593138E+02  0.46700000000E-02 0. -1.
         -1   -1    0    0    0  501 -0.00000000000E+00 -0.00000000000E+00 -0.72431754135E+02  0.72431754285E+02  0.46700000000E-02 0.  1.
         25    2    1    2    0    0  0.00000000000E+00  0.00000000000E+00 -0.18502161198E+02  0.12636134742E+03  0.12499944061E+03 0.  0.
        -11    1    3    3    0    0  0.52388527568E+01 -0.44808302156E+02 -0.52977245847E+02  0.69583173958E+02  0.51100000000E-03 0.  1.
         11    1    3    3    0    0 -0.52388527568E+01  0.44808302156E+02  0.34475084648E+02  0.56778173465E+02  0.51100000000E-03 0. -1.
<mgrwt>
<rscale>  0 0.12499944E+03</rscale>
<asrwt>0</asrwt>
<pdfrwt beam="1">  1        1 0.82968605E-02 0.12499944E+03</pdfrwt>
<pdfrwt beam="2">  1       -1 0.11143347E-01 0.12499944E+03</pdfrwt>
<totfact> 0.38444055E+04</totfact>
</mgrwt>
</event>
<event>
 5    1  0.8303392E-059  0.1249943E+03  0.7818608E-02  0.1235078E+00
          1   -1    0    0  501    0  0.00000000000E+00  0.00000000000E+00  0.16154336907E+03  0.16154336914E+03  0.46700000000E-02 0. -1.
         -1   -1    0    0    0  501 -0.00000000000E+00 -0.00000000000E+00 -0.24178590869E+02  0.24178591320E+02  0.46700000000E-02 0.  1.
         25    2    1    2    0    0  0.00000000000E+00  0.00000000000E+00  0.13736477821E+03  0.18572196046E+03  0.12499425709E+03 0.  0.
        -11    1    3    3    0    0 -0.41382068788E+02 -0.44033571689E+02  0.44980498943E+02  0.75330447618E+02  0.51100000000E-03 0.  1.
         11    1    3    3    0    0  0.41382068788E+02  0.44033571689E+02  0.92384279263E+02  0.11039151284E+03  0.51100000000E-03 0. -1.
<mgrwt>
<rscale>  0 0.12499426E+03</rscale>
<asrwt>0</asrwt>
<pdfrwt beam="1">  1        1 0.24852827E-01 0.12499426E+03</pdfrwt>
<pdfrwt beam="2">  1       -1 0.37197832E-02 0.12499426E+03</pdfrwt>
<totfact> 0.47802249E+04</totfact>
</mgrwt>
</event>
<event>
 5    1  0.8303392E-059  0.1249988E+03  0.7818608E-02  0.1235071E+00
         -1   -1    0    0    0  501 -0.00000000000E+00  0.00000000000E+00  0.14586918111E+02  0.14586918858E+02  0.46700000000E-02 0.  1.
          1   -1    0    0  501    0  0.00000000000E+00 -0.00000000000E+00 -0.26778608626E+03  0.26778608630E+03  0.46700000000E-02 0. -1.
         25    2    1    2    0    0  0.00000000000E+00  0.00000000000E+00 -0.25319916815E+03  0.28237300516E+03  0.12499878116E+03 0.  0.
        -11    1    3    3    0    0  0.21757178597E+01  0.49454089491E+02 -0.40409306957E+02  0.63901117397E+02  0.51100000000E-03 0.  1.
         11    1    3    3    0    0 -0.21757178597E+01 -0.49454089491E+02 -0.21278986119E+03  0.21847188776E+03  0.51100000000E-03 0. -1.
<mgrwt>
<rscale>  0 0.12499878E+03</rscale>
<asrwt>0</asrwt>
<pdfrwt beam="2">  1        1 0.41197856E-01 0.12499878E+03</pdfrwt>
<pdfrwt beam="1">  1       -1 0.22441415E-02 0.12499878E+03</pdfrwt>
<totfact> 0.53212365E+04</totfact>
</mgrwt>
</event>
<event>
 5    1  0.8303392E-059  0.1249984E+03  0.7818608E-02  0.1235072E+00
          1   -1    0    0  501    0  0.00000000000E+00  0.00000000000E+00  0.18129451151E+02  0.18129451753E+02  0.46700000000E-02 0. -1.
         -1   -1    0    0    0  501 -0.00000000000E+00 -0.00000000000E+00 -0.21545891053E+03  0.21545891058E+03  0.46700000000E-02 0.  1.
         25    2    1    2    0    0  0.00000000000E+00  0.00000000000E+00 -0.19732945938E+03  0.23358836234E+03  0.12499842991E+03 0.  0.
        -11    1    3    3    0    0  0.45229607182E+02  0.35340120109E+02 -0.14487607084E+03  0.15583233733E+03  0.51100000000E-03 0.  1.
         11    1    3    3    0    0 -0.45229607182E+02 -0.35340120109E+02 -0.52453388539E+02  0.77756025005E+02  0.51100000000E-03 0. -1.
<mgrwt>
<rscale>  0 0.12499843E+03</rscale>
<asrwt>0</asrwt>
<pdfrwt beam="1">  1        1 0.27891465E-02 0.12499843E+03</pdfrwt>
<pdfrwt beam="2">  1       -1 0.33147523E-01 0.12499843E+03</pdfrwt>
<totfact> 0.29620883E+04</totfact>
</mgrwt>
</event>
<event>
 5    1  0.8303392E-059  0.1249956E+03  0.7818608E-02  0.1235076E+00
          1   -1    0    0  501    0  0.00000000000E+00  0.00000000000E+00  0.35585653601E+03  0.35585653604E+03  0.46700000000E-02 0. -1.
         -1   -1    0    0    0  501 -0.00000000000E+00 -0.00000000000E+00 -0.10976266799E+02  0.10976267792E+02  0.46700000000E-02 0.  1.
         25    2    1    2    0    0  0.00000000000E+00  0.00000000000E+00  0.34488026921E+03  0.36683280383E+03  0.12499562343E+03 0.  0.
        -11    1    3    3    0    0 -0.43358075892E+02  0.31331786900E+02  0.77598038090E+02  0.94249982128E+02  0.51100000000E-03 0.  1.
         11    1    3    3    0    0  0.43358075892E+02 -0.31331786900E+02  0.26728223112E+03  0.27258282170E+03  0.51100000000E-03 0. -1.
<mgrwt>
<rscale>  0 0.12499562E+03</rscale>
<asrwt>0</asrwt>
<pdfrwt beam="1">  1        1 0.54747156E-01 0.12499562E+03</pdfrwt>
<pdfrwt beam="2">  1       -1 0.16886566E-02 0.12499562E+03</pdfrwt>
<totfact> 0.56361292E+04</totfact>
</mgrwt>
</event>
<event>
 5    1  0.8303392E-059  0.1250022E+03  0.7818608E-02  0.1235066E+00
         -1   -1    0    0    0  501 -0.00000000000E+00  0.00000000000E+00  0.12161888514E+03  0.12161888523E+03  0.46700000000E-02 0.  1.
          1   -1    0    0  501    0  0.00000000000E+00 -0.00000000000E+00 -0.32119893346E+02  0.32119893685E+02  0.46700000000E-02 0. -1.
         25    2    1    2    0    0  0.00000000000E+00  0.00000000000E+00  0.89498991792E+02  0.15373877891E+03  0.12500217042E+03 0.  0.
        -11    1    3    3    0    0 -0.57707257272E+02 -0.20120859041E+02  0.60851608659E+02  0.86243230384E+02  0.51100000000E-03 0.  1.
         11    1    3    3    0    0  0.57707257272E+02  0.20120859041E+02  0.28647383133E+02  0.67495548528E+02  0.51100000000E-03 0. -1.
<mgrwt>
<rscale>  0 0.12500217E+03</rscale>
<asrwt>0</asrwt>
<pdfrwt beam="2">  1        1 0.49415220E-02 0.12500217E+03</pdfrwt>
<pdfrwt beam="1">  1       -1 0.18710598E-01 0.12500217E+03</pdfrwt>
<totfact> 0.34484639E+04</totfact>
</mgrwt>
</event>
<event>
 5    1  0.8303392E-059  0.1250001E+03  0.7818608E-02  0.1235069E+00
         -1   -1    0    0    0  501 -0.00000000000E+00  0.00000000000E+00  0.23343833557E+02  0.23343834024E+02  0.46700000000E-02 0.  1.
          1   -1    0    0  501    0  0.00000000000E+00 -0.00000000000E+00 -0.16733580974E+03  0.16733580980E+03  0.46700000000E-02 0. -1.
         25    2    1    2    0    0  0.00000000000E+00  0.00000000000E+00 -0.14399197618E+03  0.19067964383E+03  0.12500014946E+03 0.  0.
        -11    1    3    3    0    0  0.48335297835E+02  0.21423702702E+02 -0.21151068766E+02  0.56944216252E+02  0.51100000000E-03 0.  1.
         11    1    3    3    0    0 -0.48335297835E+02 -0.21423702702E+02 -0.12284090742E+03  0.13373542758E+03  0.51100000000E-03 0. -1.
<mgrwt>
<rscale>  0 0.12500015E+03</rscale>
<asrwt>0</asrwt>
<pdfrwt beam="2">  1        1 0.25743970E-01 0.12500015E+03</pdfrwt>
<pdfrwt beam="1">  1       -1 0.35913592E-02 0.12500015E+03</pdfrwt>
<totfact> 0.48150376E+04</totfact>
</mgrwt>
</event>
<event>
 5    1  0.8303392E-059  0.1249987E+03  0.7818608E-02  0.1235071E+00
          1   -1    0    0  501    0  0.00000000000E+00  0.00000000000E+00  0.31196396428E+02  0.31196396777E+02  0.46700000000E-02 0. -1.
         -1   -1    0    0    0  501 -0.00000000000E+00 -0.00000000000E+00 -0.12521212302E+03  0.12521212311E+03  0.46700000000E-02 0.  1.
         25    2    1    2    0    0  0.00000000000E+00  0.00000000000E+00 -0.94015726593E+02  0.15640851989E+03  0.12499867298E+03 0.  0.
        -11    1    3    3    0    0 -0.41242691519E+02 -0.45689263741E+02 -0.33432835757E+02  0.70044435410E+02  0.51100000000E-03 0. -1.
         11    1    3    3    0    0  0.41242691519E+02  0.45689263741E+02 -0.60582890837E+02  0.86364084476E+02  0.51100000000E-03 0.  1.
<mgrwt>
<rscale>  0 0.12499867E+03</rscale>
<asrwt>0</asrwt>
<pdfrwt beam="1">  1        1 0.47994457E-02 0.12499867E+03</pdfrwt>
<pdfrwt beam="2">  1       -1 0.19263403E-01 0.12499867E+03</pdfrwt>
<totfact> 0.34257185E+04</totfact>
</mgrwt>
</event>
<event>
 5    1  0.8303392E-059  0.1249999E+03  0.7818608E-02  0.1235069E+00
         -1   -1    0    0    0  501 -0.00000000000E+00  0.00000000000E+00  0.33707426331E+02  0.33707426655E+02  0.46700000000E-02 0.  1.
          1   -1    0    0  501    0  0.00000000000E+00 -0.00000000000E+00 -0.11588675004E+03  0.11588675013E+03  0.46700000000E-02 0. -1.
         25    2    1    2    0    0  0.00000000000E+00  0.00000000000E+00 -0.82179323709E+02  0.14959417679E+03  0.12499990594E+03 0.  0.
        -11    1    3    3    0    0 -0.29345978907E+01 -0.54595366200E+02 -0.48499681618E+01  0.54888870154E+02  0.51100000000E-03 0.  1.
         11    1    3    3    0    0  0.29345978907E+01  0.54595366200E+02 -0.77329355547E+02  0.94705306635E+02  0.51100000000E-03 0. -1.
<mgrwt>
<rscale>  0 0.12499991E+03</rscale>
<asrwt>0</asrwt>
<pdfrwt beam="2">  1        1 0.17828731E-01 0.12499991E+03</pdfrwt>
<pdfrwt beam="1">  1       -1 0.51857580E-02 0.12499991E+03</pdfrwt>
<totfact> 0.44644883E+04</totfact>
</mgrwt>
</event>
<event>
 5    1  0.8303392E-059  0.1250001E+03  0.7818608E-02  0.1235069E+00
         -1   -1    0    0    0  501 -0.00000000000E+00  0.00000000000E+00  0.20756202417E+03  0.20756202423E+03  0.46700000000E-02 0.  1.
          1   -1    0    0  501    0  0.00000000000E+00 -0.00000000000E+00 -0.18819712900E+02  0.18819713480E+02  0.46700000000E-02 0. -1.
         25    2    1    2    0    0  0.00000000000E+00  0.00000000000E+00  0.18874231127E+03  0.22638173771E+03  0.12500012441E+03 0.  0.
        -11    1    3    3    0    0  0.24762670149E+02  0.56743631238E+02  0.10986896415E+03  0.12611192966E+03  0.51100000000E-03 0.  1.
         11    1    3    3    0    0 -0.24762670149E+02 -0.56743631238E+02  0.78873347127E+02  0.10026980805E+03  0.51100000000E-03 0. -1.
<mgrwt>
<rscale>  0 0.12500012E+03</rscale>
<asrwt>0</asrwt>
<pdfrwt beam="2">  1        1 0.28953405E-02 0.12500012E+03</pdfrwt>
<pdfrwt beam="1">  1       -1 0.31932619E-01 0.12500012E+03</pdfrwt>
<totfact> 0.29965880E+04</totfact>
</mgrwt>
</event>
<event>
 5    1  0.8303392E-059  0.1249942E+03  0.7818608E-02  0.1235078E+00
          1   -1    0    0  501    0  0.00000000000E+00  0.00000000000E+00  0.19345962409E+02  0.19345962972E+02  0.46700000000E-02 0. -1.
         -1   -1    0    0    0  501 -0.00000000000E+00 -0.00000000000E+00 -0.20189673777E+03  0.20189673783E+03  0.46700000000E-02 0.  1.
         25    2    1    2    0    0  0.00000000000E+00  0.00000000000E+00 -0.18255077536E+03  0.22124270080E+03  0.12499418815E+03 0.  0.
        -11    1    3    3    0    0 -0.40032634100E+02  0.47559230830E+02 -0.10266347131E+03  0.12001783439E+03  0.51100000000E-03 0.  1.
         11    1    3    3    0    0  0.40032634100E+02 -0.47559230830E+02 -0.79887304056E+02  0.10122486641E+03  0.51100000000E-03 0. -1.
<mgrwt>
<rscale>  0 0.12499419E+03</rscale>
<asrwt>0</asrwt>
<pdfrwt beam="1">  1        1 0.29763021E-02 0.12499419E+03</pdfrwt>
<pdfrwt beam="2">  1       -1 0.31061035E-01 0.12499419E+03</pdfrwt>
<totfact> 0.30223101E+04</totfact>
</mgrwt>
</event>
<event>
 5    1  0.8303392E-059  0.1249997E+03  0.7818608E-02  0.1235070E+00
         -1   -1    0    0    0  501 -0.00000000000E+00  0.00000000000E+00  0.56552352050E+02  0.56552352243E+02  0.46700000000E-02 0.  1.
          1   -1    0    0  501    0  0.00000000000E+00 -0.00000000000E+00 -0.69072800752E+02  0.69072800909E+02  0.46700000000E-02 0. -1.
         25    2    1    2    0    0  0.00000000000E+00  0.00000000000E+00 -0.12520448701E+02  0.12562515315E+03  0.12499966988E+03 0.  0.
        -11    1    3    3    0    0 -0.57392141749E+02  0.11355749071E+02  0.15836572576E+02  0.60610296178E+02  0.51100000000E-03 0.  1.
         11    1    3    3    0    0  0.57392141749E+02 -0.11355749071E+02 -0.28357021277E+02  0.65014856975E+02  0.51100000000E-03 0. -1.
<mgrwt>
<rscale>  0 0.12499967E+03</rscale>
<asrwt>0</asrwt>
<pdfrwt beam="2">  1        1 0.10626585E-01 0.12499967E+03</pdfrwt>
<pdfrwt beam="1">  1       -1 0.87003619E-02 0.12499967E+03</pdfrwt>
<totfact> 0.40342826E+04</totfact>
</mgrwt>
</event>
<event>
 5    1  0.8303392E-059  0.1249883E+03  0.7818608E-02  0.1235088E+00
         -1   -1    0    0    0  501 -0.00000000000E+00  0.00000000000E+00  0.23296058267E+03  0.23296058272E+03  0.46700000000E-02 0. -1.
          1   -1    0    0  501    0  0.00000000000E+00 -0.00000000000E+00 -0.16764710441E+02  0.16764711091E+02  0.46700000000E-02 0.  1.
         25    2    1    2    0    0  0.00000000000E+00  0.00000000000E+00  0.21619587223E+03  0.24972529381E+03  0.12498826824E+03 0.  0.
        -11    1    3    3    0    0 -0.21368199168E+02  0.41534516266E+02  0.19105183897E+03  0.19667872572E+03  0.51100000000E-03 0. -1.
         11    1    3    3    0    0  0.21368199168E+02 -0.41534516266E+02  0.25144033262E+02  0.53046568090E+02  0.51100000000E-03 0.  1.
<mgrwt>
<rscale>  0 0.12498827E+03</rscale>
<asrwt>0</asrwt>
<pdfrwt beam="2">  1        1 0.25791864E-02 0.12498827E+03</pdfrwt>
<pdfrwt beam="1">  1       -1 0.35840087E-01 0.12498827E+03</pdfrwt>
<totfact> 0.28887964E+04</totfact>
</mgrwt>
</event>
<event>
 5    1  0.8303392E-059  0.1249912E+03  0.7818608E-02  0.1235083E+00
         -1   -1    0    0    0  501 -0.00000000000E+00  0.00000000000E+00  0.22819246175E+02  0.22819246652E+02  0.46700000000E-02 0.  1.
          1   -1    0    0  501    0  0.00000000000E+00 -0.00000000000E+00 -0.17115808171E+03  0.17115808178E+03  0.46700000000E-02 0. -1.
         25    2    1    2    0    0  0.00000000000E+00  0.00000000000E+00 -0.14833883554E+03  0.19397732843E+03  0.12499117495E+03 0.  0.
        -11    1    3    3    0    0  0.25530270164E+02 -0.23979511356E+02  0.61552251858E+01  0.35562599130E+02  0.51100000000E-03 0.  1.
         11    1    3    3    0    0 -0.25530270164E+02  0.23979511356E+02 -0.15449406072E+03  0.15841472930E+03  0.51100000000E-03 0. -1.
<mgrwt>
<rscale>  0 0.12499117E+03</rscale>
<asrwt>0</asrwt>
<pdfrwt beam="2">  1        1 0.26332012E-01 0.12499117E+03</pdfrwt>
<pdfrwt beam="1">  1       -1 0.35106534E-02 0.12499117E+03</pdfrwt>
<totfact> 0.48389343E+04</totfact>
</mgrwt>
</event>
<event>
 5    1  0.8303392E-059  0.1250006E+03  0.7818608E-02  0.1235068E+00
         -1   -1    0    0    0  501 -0.00000000000E+00  0.00000000000E+00  0.16290299457E+03  0.16290299464E+03  0.46700000000E-02 0.  1.
          1   -1    0    0  501    0  0.00000000000E+00 -0.00000000000E+00 -0.23979239091E+02  0.23979239546E+02  0.46700000000E-02 0. -1.
         25    2    1    2    0    0  0.00000000000E+00  0.00000000000E+00  0.13892375548E+03  0.18688223418E+03  0.12500063847E+03 0.  0.
        -11    1    3    3    0    0 -0.41284834868E+02  0.46923456856E+02  0.69157274067E+02  0.93214682052E+02  0.51100000000E-03 0.  1.
         11    1    3    3    0    0  0.41284834868E+02 -0.46923456856E+02  0.69766481412E+02  0.93667552131E+02  0.51100000000E-03 0. -1.
<mgrwt>
<rscale>  0 0.12500064E+03</rscale>
<asrwt>0</asrwt>
<pdfrwt beam="2">  1        1 0.36891139E-02 0.12500064E+03</pdfrwt>
<pdfrwt beam="1">  1       -1 0.25061998E-01 0.12500064E+03</pdfrwt>
<totfact> 0.32103792E+04</totfact>
</mgrwt>
</event>
<event>
 5    1  0.8303392E-059  0.1249960E+03  0.7818608E-02  0.1235076E+00
         -1   -1    0    0    0  501 -0.00000000000E+00  0.00000000000E+00  0.72670265196E+01  0.72670280202E+01  0.46700000000E-02 0. -1.
          1   -1    0    0  501    0  0.00000000000E+00 -0.00000000000E+00 -0.53749604298E+03  0.53749604300E+03  0.46700000000E-02 0.  1.
         25    2    1    2    0    0  0.00000000000E+00  0.00000000000E+00 -0.53022901646E+03  0.54476307102E+03  0.12499597454E+03 0.  0.
        -11    1    3    3    0    0  0.58233049769E+02 -0.22256195173E+02 -0.24583347133E+03  0.25361490874E+03  0.51100000000E-03 0. -1.
         11    1    3    3    0    0 -0.58233049769E+02  0.22256195173E+02 -0.28439554513E+03  0.29114816228E+03  0.51100000000E-03 0.  1.
<mgrwt>
<rscale>  0 0.12499597E+03</rscale>
<asrwt>0</asrwt>
<pdfrwt beam="2">  1        1 0.82691668E-01 0.12499597E+03</pdfrwt>
<pdfrwt beam="1">  1       -1 0.11180046E-02 0.12499597E+03</pdfrwt>
<totfact> 0.60072451E+04</totfact>
</mgrwt>
</event>
<event>
 5    1  0.8303392E-059  0.1249998E+03  0.7818608E-02  0.1235070E+00
          1   -1    0    0  501    0  0.00000000000E+00  0.00000000000E+00  0.33631736322E+03  0.33631736326E+03  0.46700000000E-02 0. -1.
         -1   -1    0    0    0  501 -0.00000000000E+00 -0.00000000000E+00 -0.11614727474E+02  0.11614728413E+02  0.46700000000E-02 0.  1.
         25    2    1    2    0    0  0.00000000000E+00  0.00000000000E+00  0.32470263575E+03  0.34793209167E+03  0.12499975500E+03 0.  0.
        -11    1    3    3    0    0 -0.46572124002E+02 -0.27684871243E+02  0.75624252413E+02  0.93029255523E+02  0.51100000000E-03 0.  1.
         11    1    3    3    0    0  0.46572124002E+02  0.27684871243E+02  0.24907838334E+03  0.25490283615E+03  0.51100000000E-03 0. -1.
<mgrwt>
<rscale>  0 0.12499976E+03</rscale>
<asrwt>0</asrwt>
<pdfrwt beam="1">  1        1 0.51741137E-01 0.12499976E+03</pdfrwt>
<pdfrwt beam="2">  1       -1 0.17868811E-02 0.12499976E+03</pdfrwt>
<totfact> 0.55747263E+04</totfact>
</mgrwt>
</event>
<event>
 5    1  0.8303392E-059  0.1250011E+03  0.7818608E-02  0.1235067E+00
         -1   -1    0    0    0  501 -0.00000000000E+00  0.00000000000E+00  0.19847425280E+02  0.19847425829E+02  0.46700000000E-02 0.  1.
          1   -1    0    0  501    0  0.00000000000E+00 -0.00000000000E+00 -0.19681755963E+03  0.19681755969E+03  0.46700000000E-02 0. -1.
         25    2    1    2    0    0  0.00000000000E+00  0.00000000000E+00 -0.17697013435E+03  0.21666498552E+03  0.12500114998E+03 0.  0.
        -11    1    3    3    0    0  0.39396666440E+02 -0.33694206951E+02 -0.27970043193E+02  0.58904331124E+02  0.51100000000E-03 0.  1.
         11    1    3    3    0    0 -0.39396666440E+02  0.33694206951E+02 -0.14900009116E+03  0.15776065439E+03  0.51100000000E-03 0. -1.
<mgrwt>
<rscale>  0 0.12500115E+03</rscale>
<asrwt>0</asrwt>
<pdfrwt beam="2">  1        1 0.30279623E-01 0.12500115E+03</pdfrwt>
<pdfrwt beam="1">  1       -1 0.30534502E-02 0.12500115E+03</pdfrwt>
<totfact> 0.49836123E+04</totfact>
</mgrwt>
</event>
<event>
 5    1  0.8303392E-059  0.1249998E+03  0.7818608E-02  0.1235070E+00
          1   -1    0    0  501    0  0.00000000000E+00  0.00000000000E+00  0.11280852714E+02  0.11280853681E+02  0.46700000000E-02 0. -1.
         -1   -1    0    0    0  501 -0.00000000000E+00 -0.00000000000E+00 -0.34627163453E+03  0.34627163456E+03  0.46700000000E-02 0.  1.
         25    2    1    2    0    0  0.00000000000E+00  0.00000000000E+00 -0.33499078181E+03  0.35755248824E+03  0.12499983179E+03 0.  0.
        -11    1    3    3    0    0  0.35556897957E+01 -0.61582733766E+02 -0.19626554647E+03  0.20573099125E+03  0.51100000000E-03 0. -1.
         11    1    3    3    0    0 -0.35556897957E+01  0.61582733766E+02 -0.13872523534E+03  0.15182149699E+03  0.51100000000E-03 0.  1.
<mgrwt>
<rscale>  0 0.12499983E+03</rscale>
<asrwt>0</asrwt>
<pdfrwt beam="1">  1        1 0.17355161E-02 0.12499983E+03</pdfrwt>
<pdfrwt beam="2">  1       -1 0.53272551E-01 0.12499983E+03</pdfrwt>
<totfact> 0.24764232E+04</totfact>
</mgrwt>
</event>
<event>
 5    1  0.8303392E-059  0.1250102E+03  0.7818608E-02  0.1235053E+00
         -1   -1    0    0    0  501 -0.00000000000E+00  0.00000000000E+00  0.64021066875E+02  0.64021067045E+02  0.46700000000E-02 0.  1.
          1   -1    0    0  501    0  0.00000000000E+00 -0.00000000000E+00 -0.61025071222E+02  0.61025071401E+02  0.46700000000E-02 0. -1.
         25    2    1    2    0    0  0.00000000000E+00  0.00000000000E+00  0.29959956530E+01  0.12504613845E+03  0.12501024258E+03 0.  0.
        -11    1    3    3    0    0 -0.35411653198E+02  0.32796305531E+02 -0.38228735055E+02  0.61571251594E+02  0.51100000000E-03 0. -1.
         11    1    3    3    0    0  0.35411653198E+02 -0.32796305531E+02  0.41224730708E+02  0.63474886852E+02  0.51100000000E-03 0.  1.
<mgrwt>
<rscale>  0 0.12501024E+03</rscale>
<asrwt>0</asrwt>
<pdfrwt beam="2">  1        1 0.93884725E-02 0.12501024E+03</pdfrwt>
<pdfrwt beam="1">  1       -1 0.98493949E-02 0.12501024E+03</pdfrwt>
<totfact> 0.39375476E+04</totfact>
</mgrwt>
</event>
<event>
 5    1  0.8303392E-059  0.1250019E+03  0.7818608E-02  0.1235066E+00
          1   -1    0    0  501    0  0.00000000000E+00  0.00000000000E+00  0.87051434712E+02  0.87051434838E+02  0.46700000000E-02 0. -1.
         -1   -1    0    0    0  501 -0.00000000000E+00 -0.00000000000E+00 -0.44874286791E+02  0.44874287034E+02  0.46700000000E-02 0.  1.
         25    2    1    2    0    0  0.00000000000E+00  0.00000000000E+00  0.42177147921E+02  0.13192572187E+03  0.12500193712E+03 0.  0.
        -11    1    3    3    0    0 -0.27015870391E+02 -0.91074170053E+01 -0.37612037301E+02  0.47196055425E+02  0.51100000000E-03 0.  1.
         11    1    3    3    0    0  0.27015870391E+02  0.91074170053E+01  0.79789185222E+02  0.84729666447E+02  0.51100000000E-03 0. -1.
<mgrwt>
<rscale>  0 0.12500194E+03</rscale>
<asrwt>0</asrwt>
<pdfrwt beam="1">  1        1 0.13392528E-01 0.12500194E+03</pdfrwt>
<pdfrwt beam="2">  1       -1 0.69037365E-02 0.12500194E+03</pdfrwt>
<totfact> 0.42190041E+04</totfact>
</mgrwt>
</event>
<event>
 5    1  0.8303392E-059  0.1250055E+03  0.7818608E-02  0.1235061E+00
         -1   -1    0    0    0  501 -0.00000000000E+00  0.00000000000E+00  0.29392785726E+03  0.29392785730E+03  0.46700000000E-02 0.  1.
          1   -1    0    0  501    0  0.00000000000E+00 -0.00000000000E+00 -0.13290996342E+02  0.13290997163E+02  0.46700000000E-02 0. -1.
         25    2    1    2    0    0  0.00000000000E+00  0.00000000000E+00  0.28063686092E+03  0.30721885446E+03  0.12500550720E+03 0.  0.
        -11    1    3    3    0    0  0.40916717621E+02  0.46987846780E+02  0.15249769996E+03  0.16473489011E+03  0.51100000000E-03 0.  1.
         11    1    3    3    0    0 -0.40916717621E+02 -0.46987846780E+02  0.12813916096E+03  0.14248396435E+03  0.51100000000E-03 0. -1.
<mgrwt>
<rscale>  0 0.12500551E+03</rscale>
<asrwt>0</asrwt>
<pdfrwt beam="2">  1        1 0.20447687E-02 0.12500551E+03</pdfrwt>
<pdfrwt beam="1">  1       -1 0.45219671E-01 0.12500551E+03</pdfrwt>
<totfact> 0.26540227E+04</totfact>
</mgrwt>
</event>
<event>
 5    1  0.8303392E-059  0.1250014E+03  0.7818608E-02  0.1235067E+00
          1   -1    0    0  501    0  0.00000000000E+00  0.00000000000E+00  0.37253378360E+03  0.37253378363E+03  0.46700000000E-02 0. -1.
         -1   -1    0    0    0  501 -0.00000000000E+00 -0.00000000000E+00 -0.10485857743E+02  0.10485858783E+02  0.46700000000E-02 0.  1.
         25    2    1    2    0    0  0.00000000000E+00  0.00000000000E+00  0.36204792586E+03  0.38301964241E+03  0.12500138342E+03 0.  0.
        -11    1    3    3    0    0  0.63352380977E+01  0.61318161131E+02  0.14943460041E+03  0.16165009101E+03  0.51100000000E-03 0.  1.
         11    1    3    3    0    0 -0.63352380977E+01 -0.61318161131E+02  0.21261332545E+03  0.22136955140E+03  0.51100000000E-03 0. -1.
<mgrwt>
<rscale>  0 0.12500138E+03</rscale>
<asrwt>0</asrwt>
<pdfrwt beam="1">  1        1 0.57312901E-01 0.12500138E+03</pdfrwt>
<pdfrwt beam="2">  1       -1 0.16132087E-02 0.12500138E+03</pdfrwt>
<totfact> 0.56837531E+04</totfact>
</mgrwt>
</event>
<event>
 5    1  0.8303392E-059  0.1249968E+03  0.7818608E-02  0.1235074E+00
          1   -1    0    0  501    0  0.00000000000E+00  0.00000000000E+00  0.97046815061E+02  0.97046815174E+02  0.46700000000E-02 0. -1.
         -1   -1    0    0    0  501 -0.00000000000E+00 -0.00000000000E+00 -0.40249130609E+02  0.40249130880E+02  0.46700000000E-02 0.  1.
         25    2    1    2    0    0  0.00000000000E+00  0.00000000000E+00  0.56797684452E+02  0.13729594605E+03  0.12499679933E+03 0.  0.
        -11    1    3    3    0    0  0.64470787079E+01  0.62141342108E+02  0.30281794212E+02  0.69426927656E+02  0.51100000000E-03 0. -1.
         11    1    3    3    0    0 -0.64470787079E+01 -0.62141342108E+02  0.26515890240E+02  0.67869018398E+02  0.51100000000E-03 0.  1.
<mgrwt>
<rscale>  0 0.12499680E+03</rscale>
<asrwt>0</asrwt>
<pdfrwt beam="1">  1        1 0.14930279E-01 0.12499680E+03</pdfrwt>
<pdfrwt beam="2">  1       -1 0.61921740E-02 0.12499680E+03</pdfrwt>
<totfact> 0.43102837E+04</totfact>
</mgrwt>
</event>
<event>
 5    1  0.8303392E-059  0.1249997E+03  0.7818608E-02  0.1235070E+00
         -1   -1    0    0    0  501 -0.00000000000E+00  0.00000000000E+00  0.71209571915E+02  0.71209572068E+02  0.46700000000E-02 0.  1.
          1   -1    0    0  501    0  0.00000000000E+00 -0.00000000000E+00 -0.54855381951E+02  0.54855382149E+02  0.46700000000E-02 0. -1.
         25    2    1    2    0    0  0.00000000000E+00  0.00000000000E+00  0.16354189964E+02  0.12606495422E+03  0.12499965261E+03 0.  0.
        -11    1    3    3    0    0 -0.41235092334E+02 -0.41333023077E+02  0.30671365597E+02  0.65950620196E+02  0.51100000000E-03 0.  1.
         11    1    3    3    0    0  0.41235092334E+02  0.41333023077E+02 -0.14317175633E+02  0.60114334021E+02  0.51100000000E-03 0. -1.
<mgrwt>
<rscale>  0 0.12499965E+03</rscale>
<asrwt>0</asrwt>
<pdfrwt beam="2">  1        1 0.84392896E-02 0.12499965E+03</pdfrwt>
<pdfrwt beam="1">  1       -1 0.10955319E-01 0.12499965E+03</pdfrwt>
<totfact> 0.38572893E+04</totfact>
</mgrwt>
</event>
<event>
 5    1  0.8303392E-059  0.1249970E+03  0.7818608E-02  0.1235074E+00
          1   -1    0    0  501    0  0.00000000000E+00  0.00000000000E+00  0.33384946711E+02  0.33384947038E+02  0.46700000000E-02 0. -1.
         -1   -1    0    0    0  501 -0.00000000000E+00 -0.00000000000E+00 -0.11700074133E+03  0.11700074142E+03  0.46700000000E-02 0.  1.
         25    2    1    2    0    0  0.00000000000E+00  0.00000000000E+00 -0.83615794618E+02  0.15038568846E+03  0.12499701670E+03 0.  0.
        -11    1    3    3    0    0 -0.43754954217E+01 -0.61227595303E+02 -0.55946417285E+02  0.83053988430E+02  0.51100000000E-03 0.  1.
         11    1    3    3    0    0  0.43754954217E+01  0.61227595303E+02 -0.27669377333E+02  0.67331700031E+02  0.51100000000E-03 0. -1.
<mgrwt>
<rscale>  0 0.12499702E+03</rscale>
<asrwt>0</asrwt>
<pdfrwt beam="1">  1        1 0.51361458E-02 0.12499702E+03</pdfrwt>
<pdfrwt beam="2">  1       -1 0.18000114E-01 0.12499702E+03</pdfrwt>
<totfact> 0.34791640E+04</totfact>
</mgrwt>
</event>
<event>
 5    1  0.8303392E-059  0.1250013E+03  0.7818608E-02  0.1235067E+00
         -1   -1    0    0    0  501 -0.00000000000E+00  0.00000000000E+00  0.50058040417E+02  0.50058040635E+02  0.46700000000E-02 0.  1.
          1   -1    0    0  501    0  0.00000000000E+00 -0.00000000000E+00 -0.78036092453E+02  0.78036092592E+02  0.46700000000E-02 0. -1.
         25    2    1    2    0    0  0.00000000000E+00  0.00000000000E+00 -0.27978052036E+02  0.12809413323E+03  0.12500134228E+03 0.  0.
        -11    1    3    3    0    0 -0.60499862799E+02  0.14477183693E+02 -0.20181016362E+02  0.65399508163E+02  0.51100000000E-03 0.  1.
         11    1    3    3    0    0  0.60499862799E+02 -0.14477183693E+02 -0.77970356740E+01  0.62694625064E+02  0.51100000000E-03 0. -1.
<mgrwt>
<rscale>  0 0.12500134E+03</rscale>
<asrwt>0</asrwt>
<pdfrwt beam="2">  1        1 0.12005553E-01 0.12500134E+03</pdfrwt>
<pdfrwt beam="1">  1       -1 0.77012370E-02 0.12500134E+03</pdfrwt>
<totfact> 0.41304349E+04</totfact>
</mgrwt>
</event>
<event>
 5    1  0.8303392E-059  0.1250011E+03  0.7818608E-02  0.1235068E+00
         -1   -1    0    0    0  501 -0.00000000000E+00  0.00000000000E+00  0.43222886788E+02  0.43222887040E+02  0.46700000000E-02 0.  1.
          1   -1    0    0  501    0  0.00000000000E+00 -0.00000000000E+00 -0.90376118329E+02  0.90376118450E+02  0.46700000000E-02 0. -1.
         25    2    1    2    0    0  0.00000000000E+00  0.00000000000E+00 -0.47153231541E+02  0.13359900549E+03  0.12500106809E+03 0.  0.
        -11    1    3    3    0    0  0.41074766580E+02 -0.25612256175E+02  0.18680101149E+02  0.51885164500E+02  0.51100000000E-03 0.  1.
         11    1    3    3    0    0 -0.41074766580E+02  0.25612256175E+02 -0.65833332690E+02  0.81713840990E+02  0.51100000000E-03 0. -1.
<mgrwt>
<rscale>  0 0.12500107E+03</rscale>
<asrwt>0</asrwt>
<pdfrwt beam="2">  1        1 0.13904018E-01 0.12500107E+03</pdfrwt>
<pdfrwt beam="1">  1       -1 0.66496749E-02 0.12500107E+03</pdfrwt>
<totfact> 0.42500786E+04</totfact>
</mgrwt>
</event>
<event>
 5    1  0.8303392E-059  0.1250021E+03  0.7818608E-02  0.1235066E+00
         -1   -1    0    0    0  501 -0.00000000000E+00  0.00000000000E+00  0.10667016688E+03  0.10667016698E+03  0.46700000000E-02 0.  1.
          1   -1    0    0  501    0  0.00000000000E+00 -0.00000000000E+00 -0.36621098488E+02  0.36621098786E+02  0.46700000000E-02 0. -1.
         25    2    1    2    0    0  0.00000000000E+00  0.00000000000E+00  0.70049068390E+02  0.14329126577E+03  0.12500205943E+03 0.  0.
        -11    1    3    3    0    0  0.45530013443E+02  0.29765941162E+02  0.70307564725E+02  0.88894021369E+02  0.51100000000E-03 0.  1.
         11    1    3    3    0    0 -0.45530013443E+02 -0.29765941162E+02 -0.25849633450E+00  0.54397244397E+02  0.51100000000E-03 0. -1.
<mgrwt>
<rscale>  0 0.12500206E+03</rscale>
<asrwt>0</asrwt>
<pdfrwt beam="2">  1        1 0.56340153E-02 0.12500206E+03</pdfrwt>
<pdfrwt beam="1">  1       -1 0.16410794E-01 0.12500206E+03</pdfrwt>
<totfact> 0.35504295E+04</totfact>
</mgrwt>
</event>
<event>
 5    1  0.8303392E-059  0.1250007E+03  0.7818608E-02  0.1235068E+00
          1   -1    0    0  501    0  0.00000000000E+00  0.00000000000E+00  0.34545016798E+02  0.34545017114E+02  0.46700000000E-02 0. -1.
         -1   -1    0    0    0  501 -0.00000000000E+00 -0.00000000000E+00 -0.11307838317E+03  0.11307838326E+03  0.46700000000E-02 0.  1.
         25    2    1    2    0    0  0.00000000000E+00  0.00000000000E+00 -0.78533366369E+02  0.14762340038E+03  0.12500071482E+03 0.  0.
        -11    1    3    3    0    0 -0.36250105666E+02  0.11312199198E+02 -0.97892087960E+02  0.10499950903E+03  0.51100000000E-03 0.  1.
         11    1    3    3    0    0  0.36250105666E+02 -0.11312199198E+02  0.19358721592E+02  0.42623891345E+02  0.51100000000E-03 0. -1.
<mgrwt>
<rscale>  0 0.12500071E+03</rscale>
<asrwt>0</asrwt>
<pdfrwt beam="1">  1        1 0.53146181E-02 0.12500071E+03</pdfrwt>
<pdfrwt beam="2">  1       -1 0.17396674E-01 0.12500071E+03</pdfrwt>
<totfact> 0.35054396E+04</totfact>
</mgrwt>
</event>
<event>
 5    1  0.8303392E-059  0.1249951E+03  0.7818608E-02  0.1235077E+00
          1   -1    0    0  501    0  0.00000000000E+00  0.00000000000E+00  0.18045766376E+03  0.18045766382E+03  0.46700000000E-02 0. -1.
         -1   -1    0    0    0  501 -0.00000000000E+00 -0.00000000000E+00 -0.21644644060E+02  0.21644644563E+02  0.46700000000E-02 0.  1.
         25    2    1    2    0    0  0.00000000000E+00  0.00000000000E+00  0.15881301970E+03  0.20210230838E+03  0.12499507121E+03 0.  0.
        -11    1    3    3    0    0  0.38393134262E+02 -0.45026240987E+02  0.11192742677E+03  0.12660625577E+03  0.51100000000E-03 0.  1.
         11    1    3    3    0    0 -0.38393134262E+02  0.45026240987E+02  0.46885592928E+02  0.75496052614E+02  0.51100000000E-03 0. -1.
<mgrwt>
<rscale>  0 0.12499507E+03</rscale>
<asrwt>0</asrwt>
<pdfrwt beam="1">  1        1 0.27762718E-01 0.12499507E+03</pdfrwt>
<pdfrwt beam="2">  1       -1 0.33299452E-02 0.12499507E+03</pdfrwt>
<totfact> 0.48929467E+04</totfact>
</mgrwt>
</event>
<event>
 5    1  0.8303392E-059  0.1249963E+03  0.7818608E-02  0.1235075E+00
         -1   -1    0    0    0  501 -0.00000000000E+00  0.00000000000E+00  0.10458419462E+03  0.10458419473E+03  0.46700000000E-02 0.  1.
          1   -1    0    0  501    0  0.00000000000E+00 -0.00000000000E+00 -0.37348071813E+02  0.37348072105E+02  0.46700000000E-02 0. -1.
         25    2    1    2    0    0  0.00000000000E+00  0.00000000000E+00  0.67236122812E+02  0.14193226683E+03  0.12499628858E+03 0.  0.
        -11    1    3    3    0    0 -0.31946300010E+02  0.26781480404E+02 -0.19254958692E+02  0.45919137748E+02  0.51100000000E-03 0. -1.
         11    1    3    3    0    0  0.31946300010E+02 -0.26781480404E+02  0.86491081504E+02  0.96013129087E+02  0.51100000000E-03 0.  1.
<mgrwt>
<rscale>  0 0.12499629E+03</rscale>
<asrwt>0</asrwt>
<pdfrwt beam="2">  1        1 0.57458573E-02 0.12499629E+03</pdfrwt>
<pdfrwt beam="1">  1       -1 0.16089876E-01 0.12499629E+03</pdfrwt>
<totfact> 0.35660377E+04</totfact>
</mgrwt>
</event>
<event>
 5    1  0.8303392E-059  0.1250002E+03  0.7818608E-02  0.1235069E+00
         -1   -1    0    0    0  501 -0.00000000000E+00  0.00000000000E+00  0.39588459577E+02  0.39588459853E+02  0.46700000000E-02 0.  1.
          1   -1    0    0  501    0  0.00000000000E+00 -0.00000000000E+00 -0.98671821817E+02  0.98671821927E+02  0.46700000000E-02 0. -1.
         25    2    1    2    0    0  0.00000000000E+00  0.00000000000E+00 -0.59083362239E+02  0.13826028178E+03  0.12500024730E+03 0.  0.
        -11    1    3    3    0    0 -0.57169808952E+01  0.34220242907E+02  0.27959128730E+02  0.44558071937E+02  0.51100000000E-03 0.  1.
         11    1    3    3    0    0  0.57169808952E+01 -0.34220242907E+02 -0.87042490969E+02  0.93702209843E+02  0.51100000000E-03 0. -1.
<mgrwt>
<rscale>  0 0.12500025E+03</rscale>
<asrwt>0</asrwt>
<pdfrwt beam="2">  1        1 0.15180280E-01 0.12500025E+03</pdfrwt>
<pdfrwt beam="1">  1       -1 0.60905323E-02 0.12500025E+03</pdfrwt>
<totfact> 0.43240571E+04</totfact>
</mgrwt>
</event>
<event>
 5    1  0.8303392E-059  0.1249999E+03  0.7818608E-02  0.1235069E+00
         -1   -1    0    0    0  501 -0.00000000000E+00  0.00000000000E+00  0.30840817196E+02  0.30840817550E+02  0.46700000000E-02 0.  1.
          1   -1    0    0  501    0  0.00000000000E+00 -0.00000000000E+00 -0.12665823294E+03  0.12665823303E+03  0.46700000000E-02 0. -1.
         25    2    1    2    0    0  0.00000000000E+00  0.00000000000E+00 -0.95817415748E+02  0.15749905058E+03  0.12499989509E+03 0.  0.
        -11    1    3    3    0    0  0.34099947175E+01 -0.55067437287E+02 -0.10911370501E+02  0.56241521314E+02  0.51100000000E-03 0.  1.
         11    1    3    3    0    0 -0.34099947175E+01  0.55067437287E+02 -0.84906045246E+02  0.10125752927E+03  0.51100000000E-03 0. -1.
<mgrwt>
<rscale>  0 0.12499990E+03</rscale>
<asrwt>0</asrwt>
<pdfrwt beam="2">  1        1 0.19485882E-01 0.12499990E+03</pdfrwt>
<pdfrwt beam="1">  1       -1 0.47447412E-02 0.12499990E+03</pdfrwt>
<totfact> 0.45453878E+04</totfact>
</mgrwt>
</event>
<event>
 5    1  0.8303392E-059  0.1250008E+03  0.7818608E-02  0.1235068E+00
         -1   -1    0    0    0  501 -0.00000000000E+00  0.00000000000E+00  0.10383536645E+02  0.10383537695E+02  0.46700000000E-02 0.  1.
          1   -1    0    0  501    0  0.00000000000E+00 -0.00000000000E+00 -0.37620138491E+03  0.37620138494E+03  0.46700000000E-02 0. -1.
         25    2    1    2    0    0  0.00000000000E+00  0.00000000000E+00 -0.36581784826E+03  0.38658492263E+03  0.12500081719E+03 0.  0.
        -11    1    3    3    0    0 -0.58244234981E+02  0.22628217536E+02 -0.17867532675E+03  0.18928628986E+03  0.51100000000E-03 0.  1.
         11    1    3    3    0    0  0.58244234981E+02 -0.22628217536E+02 -0.18714252151E+03  0.19729863278E+03  0.51100000000E-03 0. -1.
<mgrwt>
<rscale>  0 0.12500082E+03</rscale>
<asrwt>0</asrwt>
<pdfrwt beam="2">  1        1 0.57877126E-01 0.12500082E+03</pdfrwt>
<pdfrwt beam="1">  1       -1 0.15974675E-02 0.12500082E+03</pdfrwt>
<totfact> 0.56941032E+04</totfact>
</mgrwt>
</event>
<event>
 5    1  0.8303392E-059  0.1250000E+03  0.7818608E-02  0.1235069E+00
          1   -1    0    0  501    0  0.00000000000E+00  0.00000000000E+00  0.33644983773E+02  0.33644984097E+02  0.46700000000E-02 0. -1.
         -1   -1    0    0    0  501 -0.00000000000E+00 -0.00000000000E+00 -0.11610206632E+03  0.11610206641E+03  0.46700000000E-02 0.  1.
         25    2    1    2    0    0  0.00000000000E+00  0.00000000000E+00 -0.82457082543E+02  0.14974705051E+03  0.12500003470E+03 0.  0.
        -11    1    3    3    0    0  0.47681486969E+01 -0.62307451394E+02 -0.42593617575E+02  0.75625194212E+02  0.51100000000E-03 0.  1.
         11    1    3    3    0    0 -0.47681486969E+01  0.62307451394E+02 -0.39863464968E+02  0.74121856295E+02  0.51100000000E-03 0. -1.
<mgrwt>
<rscale>  0 0.12500003E+03</rscale>
<asrwt>0</asrwt>
<pdfrwt beam="1">  1        1 0.51761514E-02 0.12500003E+03</pdfrwt>
<pdfrwt beam="2">  1       -1 0.17861856E-01 0.12500003E+03</pdfrwt>
<totfact> 0.34849609E+04</totfact>
</mgrwt>
</event>
<event>
 5    1  0.8303392E-059  0.1249716E+03  0.7818608E-02  0.1235114E+00
         -1   -1    0    0    0  501 -0.00000000000E+00  0.00000000000E+00  0.10299666176E+03  0.10299666186E+03  0.46700000000E-02 0.  1.
          1   -1    0    0  501    0  0.00000000000E+00 -0.00000000000E+00 -0.37908734327E+02  0.37908734614E+02  0.46700000000E-02 0. -1.
         25    2    1    2    0    0  0.00000000000E+00  0.00000000000E+00  0.65087927429E+02  0.14090539648E+03  0.12497156660E+03 0.  0.
        -11    1    3    3    0    0  0.62273668250E+02 -0.30852334425E+01  0.27902732020E+02  0.68308790629E+02  0.51100000000E-03 0.  1.
         11    1    3    3    0    0 -0.62273668250E+02  0.30852334425E+01  0.37185195408E+02  0.72596605847E+02  0.51100000000E-03 0. -1.
<mgrwt>
<rscale>  0 0.12497157E+03</rscale>
<asrwt>0</asrwt>
<pdfrwt beam="2">  1        1 0.58321129E-02 0.12497157E+03</pdfrwt>
<pdfrwt beam="1">  1       -1 0.15845641E-01 0.12497157E+03</pdfrwt>
<totfact> 0.35796050E+04</totfact>
</mgrwt>
</event>
<event>
 5    1  0.8303392E-059  0.1249581E+03  0.7818608E-02  0.1235135E+00
         -1   -1    0    0    0  501 -0.00000000000E+00  0.00000000000E+00  0.13273304847E+03  0.13273304855E+03  0.46700000000E-02 0.  1.
          1   -1    0    0  501    0  0.00000000000E+00 -0.00000000000E+00 -0.29409643492E+02  0.29409643863E+02  0.46700000000E-02 0. -1.
         25    2    1    2    0    0  0.00000000000E+00  0.00000000000E+00  0.10332340498E+03  0.16214269241E+03  0.12495809973E+03 0.  0.
        -11    1    3    3    0    0  0.82097173894E+01 -0.59037376764E+02  0.27357836539E+02  0.65584011276E+02  0.51100000000E-03 0. -1.
         11    1    3    3    0    0 -0.82097173894E+01  0.59037376764E+02  0.75965568436E+02  0.96558681137E+02  0.51100000000E-03 0.  1.
<mgrwt>
<rscale>  0 0.12495810E+03</rscale>
<asrwt>0</asrwt>
<pdfrwt beam="2">  1        1 0.45245606E-02 0.12495810E+03</pdfrwt>
<pdfrwt beam="1">  1       -1 0.20420469E-01 0.12495810E+03</pdfrwt>
<totfact> 0.33820895E+04</totfact>
</mgrwt>
</event>
<event>
 5    1  0.8303392E-059  0.1250032E+03  0.7818608E-02  0.1235064E+00
         -1   -1    0    0    0  501 -0.00000000000E+00  0.00000000000E+00  0.13091146268E+03  0.13091146276E+03  0.46700000000E-02 0.  1.
          1   -1    0    0  501    0  0.00000000000E+00 -0.00000000000E+00 -0.29840384383E+02  0.29840384749E+02  0.46700000000E-02 0. -1.
         25    2    1    2    0    0  0.00000000000E+00  0.00000000000E+00  0.10107107830E+03  0.16075184751E+03  0.12500317440E+03 0.  0.
        -11    1    3    3    0    0  0.34788602743E+02 -0.31016125925E+02  0.10408865005E+03  0.11404689394E+03  0.51100000000E-03 0.  1.
         11    1    3    3    0    0 -0.34788602743E+02  0.31016125925E+02 -0.30175717573E+01  0.46704953567E+02  0.51100000000E-03 0. -1.
<mgrwt>
<rscale>  0 0.12500317E+03</rscale>
<asrwt>0</asrwt>
<pdfrwt beam="2">  1        1 0.45908283E-02 0.12500317E+03</pdfrwt>
<pdfrwt beam="1">  1       -1 0.20140225E-01 0.12500317E+03</pdfrwt>
<totfact> 0.33899709E+04</totfact>
</mgrwt>
</event>
<event>
 5    1  0.8303392E-059  0.1250025E+03  0.7818608E-02  0.1235065E+00
         -1   -1    0    0    0  501 -0.00000000000E+00  0.00000000000E+00  0.20680175539E+03  0.20680175544E+03  0.46700000000E-02 0.  1.
          1   -1    0    0  501    0  0.00000000000E+00 -0.00000000000E+00 -0.18889630890E+02  0.18889631468E+02  0.46700000000E-02 0. -1.
         25    2    1    2    0    0  0.00000000000E+00  0.00000000000E+00  0.18791212449E+03  0.22569138691E+03  0.12500254234E+03 0.  0.
        -11    1    3    3    0    0  0.22743656420E+02 -0.51272124789E+02  0.44172056623E+02  0.71395204841E+02  0.51100000000E-03 0. -1.
         11    1    3    3    0    0 -0.22743656420E+02  0.51272124789E+02  0.14374006787E+03  0.15429618206E+03  0.51100000000E-03 0.  1.
<mgrwt>
<rscale>  0 0.12500254E+03</rscale>
<asrwt>0</asrwt>
<pdfrwt beam="2">  1        1 0.29060971E-02 0.12500254E+03</pdfrwt>
<pdfrwt beam="1">  1       -1 0.31815655E-01 0.12500254E+03</pdfrwt>
<totfact> 0.29998106E+04</totfact>
</mgrwt>
</event>
<event>
 5    1  0.8303392E-059  0.1250000E+03  0.7818608E-02  0.1235069E+00
          1   -1    0    0  501    0  0.00000000000E+00  0.00000000000E+00  0.18407625533E+02  0.18407626126E+02  0.46700000000E-02 0. -1.
         -1   -1    0    0    0  501 -0.00000000000E+00 -0.00000000000E+00 -0.21220825032E+03  0.21220825037E+03  0.46700000000E-02 0.  1.
         25    2    1    2    0    0  0.00000000000E+00  0.00000000000E+00 -0.19380062478E+03  0.23061587649E+03  0.12500000130E+03 0.  0.
        -11    1    3    3    0    0 -0.67130852627E+01  0.60773128318E+02 -0.12079987589E+03  0.13539220308E+03  0.51100000000E-03 0.  1.
         11    1    3    3    0    0  0.67130852627E+01 -0.60773128318E+02 -0.73000748893E+02  0.95223673414E+02  0.51100000000E-03 0. -1.
<mgrwt>
<rscale>  0 0.12500000E+03</rscale>
<asrwt>0</asrwt>
<pdfrwt beam="1">  1        1 0.28319426E-02 0.12500000E+03</pdfrwt>
<pdfrwt beam="2">  1       -1 0.32647421E-01 0.12500000E+03</pdfrwt>
<totfact> 0.29761346E+04</totfact>
</mgrwt>
</event>
<event>
 5    1  0.8303392E-059  0.1250001E+03  0.7818608E-02  0.1235069E+00
         -1   -1    0    0    0  501 -0.00000000000E+00  0.00000000000E+00  0.10053618319E+02  0.10053619404E+02  0.46700000000E-02 0.  1.
          1   -1    0    0  501    0  0.00000000000E+00 -0.00000000000E+00 -0.38854224297E+03  0.38854224300E+03  0.46700000000E-02 0. -1.
         25    2    1    2    0    0  0.00000000000E+00  0.00000000000E+00 -0.37848862465E+03  0.39859586240E+03  0.12500009014E+03 0.  0.
        -11    1    3    3    0    0 -0.46090917027E+02  0.32532522098E+02 -0.10347199727E+03  0.11785241553E+03  0.51100000000E-03 0.  1.
         11    1    3    3    0    0  0.46090917027E+02 -0.32532522098E+02 -0.27501662738E+03  0.28074344687E+03  0.51100000000E-03 0. -1.
<mgrwt>
<rscale>  0 0.12500009E+03</rscale>
<asrwt>0</asrwt>
<pdfrwt beam="2">  1        1 0.59775718E-01 0.12500009E+03</pdfrwt>
<pdfrwt beam="1">  1       -1 0.15467109E-02 0.12500009E+03</pdfrwt>
<totfact> 0.57276543E+04</totfact>
</mgrwt>
</event>
<event>
 5    1  0.8303392E-059  0.1249914E+03  0.7818608E-02  0.1235083E+00
         -1   -1    0    0    0  501 -0.00000000000E+00  0.00000000000E+00  0.22831228883E+02  0.22831229361E+02  0.46700000000E-02 0.  1.
          1   -1    0    0  501    0  0.00000000000E+00 -0.00000000000E+00 -0.17106876320E+03  0.17106876326E+03  0.46700000000E-02 0. -1.
         25    2    1    2    0    0  0.00000000000E+00  0.00000000000E+00 -0.14823753432E+03  0.19389999262E+03  0.12499136194E+03 0.  0.
        -11    1    3    3    0    0  0.59001457132E+02 -0.54683284673E+01 -0.43301373131E+02  0.73389941240E+02  0.51100000000E-03 0.  1.
         11    1    3    3    0    0 -0.59001457132E+02  0.54683284673E+01 -0.10493616118E+03  0.12051005138E+03  0.51100000000E-03 0. -1.
<mgrwt>
<rscale>  0 0.12499136E+03</rscale>
<asrwt>0</asrwt>
<pdfrwt beam="2">  1        1 0.26318270E-01 0.12499136E+03</pdfrwt>
<pdfrwt beam="1">  1       -1 0.35124969E-02 0.12499136E+03</pdfrwt>
<totfact> 0.48383823E+04</totfact>
</mgrwt>
</event>
<event>
 5    1  0.8303392E-059  0.1249984E+03  0.7818608E-02  0.1235072E+00
         -1   -1    0    0    0  501 -0.00000000000E+00  0.00000000000E+00  0.71643161159E+01  0.71643176379E+01  0.46700000000E-02 0.  1.
          1   -1    0    0  501    0  0.00000000000E+00 -0.00000000000E+00 -0.54522321547E+03  0.54522321549E+03  0.46700000000E-02 0. -1.
         25    2    1    2    0    0  0.00000000000E+00  0.00000000000E+00 -0.53805889936E+03  0.55238753313E+03  0.12499843031E+03 0.  0.
        -11    1    3    3    0    0 -0.59180758749E+02  0.17069219318E+02 -0.22217150913E+03  0.23055129565E+03  0.51100000000E-03 0.  1.
         11    1    3    3    0    0  0.59180758749E+02 -0.17069219318E+02 -0.31588739022E+03  0.32183623748E+03  0.51100000000E-03 0. -1.
<mgrwt>
<rscale>  0 0.12499843E+03</rscale>
<asrwt>0</asrwt>
<pdfrwt beam="2">  1        1 0.83880462E-01 0.12499843E+03</pdfrwt>
<pdfrwt beam="1">  1       -1 0.11022030E-02 0.12499843E+03</pdfrwt>
<totfact> 0.60157278E+04</totfact>
</mgrwt>
</event>
<event>
 5    1  0.8303392E-059  0.1250018E+03  0.7818608E-02  0.1235066E+00
         -1   -1    0    0    0  501 -0.00000000000E+00  0.00000000000E+00  0.96844472408E+01  0.96844483668E+01  0.46700000000E-02 0.  1.
          1   -1    0    0  501    0  0.00000000000E+00 -0.00000000000E+00 -0.40336465110E+03  0.40336465113E+03  0.46700000000E-02 0. -1.
         25    2    1    2    0    0  0.00000000000E+00  0.00000000000E+00 -0.39368020386E+03  0.41304909950E+03  0.12500182272E+03 0.  0.
        -11    1    3    3    0    0 -0.67840588882E+01  0.62101767539E+02 -0.20320552010E+03  0.21259147769E+03  0.51100000000E-03 0.  1.
         11    1    3    3    0    0  0.67840588882E+01 -0.62101767539E+02 -0.19047468376E+03  0.20045762181E+03  0.51100000000E-03 0. -1.
<mgrwt>
<rscale>  0 0.12500182E+03</rscale>
<asrwt>0</asrwt>
<pdfrwt beam="2">  1        1 0.62056087E-01 0.12500182E+03</pdfrwt>
<pdfrwt beam="1">  1       -1 0.14899154E-02 0.12500182E+03</pdfrwt>
<totfact> 0.57653626E+04</totfact>
</mgrwt>
</event>
<event>
 5    1  0.8303392E-059  0.1250001E+03  0.7818608E-02  0.1235069E+00
          1   -1    0    0  501    0  0.00000000000E+00  0.00000000000E+00  0.30073810871E+03  0.30073810875E+03  0.46700000000E-02 0. -1.
         -1   -1    0    0    0  501 -0.00000000000E+00 -0.00000000000E+00 -0.12988906271E+02  0.12988907111E+02  0.46700000000E-02 0.  1.
         25    2    1    2    0    0  0.00000000000E+00  0.00000000000E+00  0.28774920244E+03  0.31372701586E+03  0.12500014790E+03 0.  0.
        -11    1    3    3    0    0  0.29247753038E+02 -0.49036480420E+02  0.80071429909E+02  0.98343486606E+02  0.51100000000E-03 0.  1.
         11    1    3    3    0    0 -0.29247753038E+02  0.49036480420E+02  0.20767777253E+03  0.21538352925E+03  0.51100000000E-03 0. -1.
<mgrwt>
<rscale>  0 0.12500015E+03</rscale>
<asrwt>0</asrwt>
<pdfrwt beam="1">  1        1 0.46267400E-01 0.12500015E+03</pdfrwt>
<pdfrwt beam="2">  1       -1 0.19982934E-02 0.12500015E+03</pdfrwt>
<totfact> 0.54512106E+04</totfact>
</mgrwt>
</event>
<event>
 5    1  0.8303392E-059  0.1250004E+03  0.7818608E-02  0.1235069E+00
          1   -1    0    0  501    0  0.00000000000E+00  0.00000000000E+00  0.38789119272E+03  0.38789119274E+03  0.46700000000E-02 0. -1.
         -1   -1    0    0    0  501 -0.00000000000E+00 -0.00000000000E+00 -0.10070548169E+02  0.10070549251E+02  0.46700000000E-02 0.  1.
         25    2    1    2    0    0  0.00000000000E+00  0.00000000000E+00  0.37782064455E+03  0.39796174199E+03  0.12500043458E+03 0.  0.
        -11    1    3    3    0    0 -0.51946503472E+02  0.33791375377E+02  0.21477093912E+03  0.22353266554E+03  0.51100000000E-03 0.  1.
         11    1    3    3    0    0  0.51946503472E+02 -0.33791375377E+02  0.16304970543E+03  0.17442907646E+03  0.51100000000E-03 0. -1.
<mgrwt>
<rscale>  0 0.12500043E+03</rscale>
<asrwt>0</asrwt>
<pdfrwt beam="1">  1        1 0.59675561E-01 0.12500043E+03</pdfrwt>
<pdfrwt beam="2">  1       -1 0.15493154E-02 0.12500043E+03</pdfrwt>
<totfact> 0.57258891E+04</totfact>
</mgrwt>
</event>
<event>
 5    1  0.8303392E-059  0.1250036E+03  0.7818608E-02  0.1235064E+00
          1   -1    0    0  501    0  0.00000000000E+00  0.00000000000E+00  0.20392180124E+02  0.20392180658E+02  0.46700000000E-02 0. -1.
         -1   -1    0    0    0  501 -0.00000000000E+00 -0.00000000000E+00 -0.19156717079E+03  0.19156717085E+03  0.46700000000E-02 0.  1.
         25    2    1    2    0    0  0.00000000000E+00  0.00000000000E+00 -0.17117499067E+03  0.21195935151E+03  0.12500355699E+03 0.  0.
        -11    1    3    3    0    0  0.52654725597E+02  0.25021807591E+02 -0.47375229990E+02  0.75120059902E+02  0.51100000000E-03 0. -1.
         11    1    3    3    0    0 -0.52654725597E+02 -0.25021807591E+02 -0.12379976068E+03  0.13683929161E+03  0.51100000000E-03 0.  1.
<mgrwt>
<rscale>  0 0.12500356E+03</rscale>
<asrwt>0</asrwt>
<pdfrwt beam="1">  1        1 0.31372587E-02 0.12500356E+03</pdfrwt>
<pdfrwt beam="2">  1       -1 0.29471871E-01 0.12500356E+03</pdfrwt>
<totfact> 0.30691265E+04</totfact>
</mgrwt>
</event>
<event>
 5    1  0.8303392E-059  0.1250017E+03  0.7818608E-02  0.1235067E+00
          1   -1    0    0  501    0  0.00000000000E+00  0.00000000000E+00  0.14200022665E+03  0.14200022673E+03  0.46700000000E-02 0. -1.
         -1   -1    0    0    0  501 -0.00000000000E+00 -0.00000000000E+00 -0.27509507482E+02  0.27509507878E+02  0.46700000000E-02 0.  1.
         25    2    1    2    0    0  0.00000000000E+00  0.00000000000E+00  0.11449071917E+03  0.16950973461E+03  0.12500170139E+03 0.  0.
        -11    1    3    3    0    0 -0.37284088827E+00  0.62495235549E+02  0.58262730090E+02  0.85442022415E+02  0.51100000000E-03 0.  1.
         11    1    3    3    0    0  0.37284088827E+00 -0.62495235549E+02  0.56227989080E+02  0.84067712191E+02  0.51100000000E-03 0. -1.
<mgrwt>
<rscale>  0 0.12500170E+03</rscale>
<asrwt>0</asrwt>
<pdfrwt beam="1">  1        1 0.21846188E-01 0.12500170E+03</pdfrwt>
<pdfrwt beam="2">  1       -1 0.42322320E-02 0.12500170E+03</pdfrwt>
<totfact> 0.46530318E+04</totfact>
</mgrwt>
</event>
<event>
 5    1  0.8303392E-059  0.1250021E+03  0.7818608E-02  0.1235066E+00
          1   -1    0    0  501    0  0.00000000000E+00  0.00000000000E+00  0.29355832025E+03  0.29355832029E+03  0.46700000000E-02 0. -1.
         -1   -1    0    0    0  501 -0.00000000000E+00 -0.00000000000E+00 -0.13306999443E+02  0.13307000262E+02  0.46700000000E-02 0.  1.
         25    2    1    2    0    0  0.00000000000E+00  0.00000000000E+00  0.28025132081E+03  0.30686532055E+03  0.12500208855E+03 0.  0.
        -11    1    3    3    0    0  0.48232855447E+01 -0.62021633767E+02  0.12530797494E+03  0.13990009193E+03  0.51100000000E-03 0.  1.
         11    1    3    3    0    0 -0.48232855447E+01  0.62021633767E+02  0.15494334587E+03  0.16696522862E+03  0.51100000000E-03 0. -1.
<mgrwt>
<rscale>  0 0.12500209E+03</rscale>
<asrwt>0</asrwt>
<pdfrwt beam="1">  1        1 0.45162813E-01 0.12500209E+03</pdfrwt>
<pdfrwt beam="2">  1       -1 0.20472310E-02 0.12500209E+03</pdfrwt>
<totfact> 0.54239617E+04</totfact>
</mgrwt>
</event>
<event>
 5    1  0.8303392E-059  0.1250006E+03  0.7818608E-02  0.1235068E+00
         -1   -1    0    0    0  501 -0.00000000000E+00  0.00000000000E+00  0.11545754430E+02  0.11545755375E+02  0.46700000000E-02 0.  1.
          1   -1    0    0  501    0  0.00000000000E+00 -0.00000000000E+00 -0.33833115309E+03  0.33833115312E+03  0.46700000000E-02 0. -1.
         25    2    1    2    0    0  0.00000000000E+00  0.00000000000E+00 -0.32678539866E+03  0.34987690849E+03  0.12500061729E+03 0.  0.
        -11    1    3    3    0    0 -0.59892472676E+02  0.13029790616E+02 -0.19760525174E+03  0.20689301400E+03  0.51100000000E-03 0.  1.
         11    1    3    3    0    0  0.59892472676E+02 -0.13029790616E+02 -0.12918014691E+03  0.14298389449E+03  0.51100000000E-03 0. -1.
<mgrwt>
<rscale>  0 0.12500062E+03</rscale>
<asrwt>0</asrwt>
<pdfrwt beam="2">  1        1 0.52050939E-01 0.12500062E+03</pdfrwt>
<pdfrwt beam="1">  1       -1 0.17762702E-02 0.12500062E+03</pdfrwt>
<totfact> 0.55811153E+04</totfact>
</mgrwt>
</event>
<event>
 5    1  0.8303392E-059  0.1249974E+03  0.7818608E-02  0.1235073E+00
          1   -1    0    0  501    0  0.00000000000E+00  0.00000000000E+00  0.38589529868E+03  0.38589529871E+03  0.46700000000E-02 0. -1.
         -1   -1    0    0    0  501 -0.00000000000E+00 -0.00000000000E+00 -0.10122149365E+02  0.10122150442E+02  0.46700000000E-02 0.  1.
         25    2    1    2    0    0  0.00000000000E+00  0.00000000000E+00  0.37577314931E+03  0.39601744915E+03  0.12499744112E+03 0.  0.
        -11    1    3    3    0    0 -0.58544965745E+02 -0.21798901128E+02  0.19371552556E+03  0.20353970116E+03  0.51100000000E-03 0.  1.
         11    1    3    3    0    0  0.58544965745E+02  0.21798901128E+02  0.18205762375E+03  0.19247774799E+03  0.51100000000E-03 0. -1.
<mgrwt>
<rscale>  0 0.12499744E+03</rscale>
<asrwt>0</asrwt>
<pdfrwt beam="1">  1        1 0.59368502E-01 0.12499744E+03</pdfrwt>
<pdfrwt beam="2">  1       -1 0.15572540E-02 0.12499744E+03</pdfrwt>
<totfact> 0.57209559E+04</totfact>
</mgrwt>
</event>
<event>
 5    1  0.8303392E-059  0.1249994E+03  0.7818608E-02  0.1235070E+00
          1   -1    0    0  501    0  0.00000000000E+00  0.00000000000E+00  0.49887203395E+03  0.49887203397E+03  0.46700000000E-02 0. -1.
         -1   -1    0    0    0  501 -0.00000000000E+00 -0.00000000000E+00 -0.78300849645E+01  0.78300863571E+01  0.46700000000E-02 0.  1.
         25    2    1    2    0    0  0.00000000000E+00  0.00000000000E+00  0.49104194899E+03  0.50670212033E+03  0.12499937233E+03 0.  0.
        -11    1    3    3    0    0 -0.46021585484E+02  0.39197350838E+02  0.18119802318E+03  0.19101607851E+03  0.51100000000E-03 0.  1.
         11    1    3    3    0    0  0.46021585484E+02 -0.39197350838E+02  0.30984392580E+03  0.31568604182E+03  0.51100000000E-03 0. -1.
<mgrwt>
<rscale>  0 0.12499937E+03</rscale>
<asrwt>0</asrwt>
<pdfrwt beam="1">  1        1 0.76749531E-01 0.12499937E+03</pdfrwt>
<pdfrwt beam="2">  1       -1 0.12046288E-02 0.12499937E+03</pdfrwt>
<totfact> 0.59549486E+04</totfact>
</mgrwt>
</event>
<event>
 5    1  0.8303392E-059  0.1249997E+03  0.7818608E-02  0.1235070E+00
          1   -1    0    0  501    0  0.00000000000E+00  0.00000000000E+00  0.50184728104E+03  0.50184728106E+03  0.46700000000E-02 0. -1.
         -1   -1    0    0    0  501 -0.00000000000E+00 -0.00000000000E+00 -0.77837047681E+01  0.77837061690E+01  0.46700000000E-02 0.  1.
         25    2    1    2    0    0  0.00000000000E+00  0.00000000000E+00  0.49406357627E+03  0.50963098723E+03  0.12499970299E+03 0.  0.
        -11    1    3    3    0    0  0.58604274618E+02 -0.20562080191E+02  0.27556282947E+03  0.28247501329E+03  0.51100000000E-03 0.  1.
         11    1    3    3    0    0 -0.58604274618E+02  0.20562080191E+02  0.21850074679E+03  0.22715597394E+03  0.51100000000E-03 0. -1.
<mgrwt>
<rscale>  0 0.12499970E+03</rscale>
<asrwt>0</asrwt>
<pdfrwt beam="1">  1        1 0.77207264E-01 0.12499970E+03</pdfrwt>
<pdfrwt beam="2">  1       -1 0.11974933E-02 0.12499970E+03</pdfrwt>
<totfact> 0.59593747E+04</totfact>
</mgrwt>
</event>
<event>
 5    1  0.8303392E-059  0.1249918E+03  0.7818608E-02  0.1235082E+00
         -1   -1    0    0    0  501 -0.00000000000E+00  0.00000000000E+00  0.12101537907E+02  0.12101538808E+02  0.46700000000E-02 0.  1.
          1   -1    0    0  501    0  0.00000000000E+00 -0.00000000000E+00 -0.32274738062E+03  0.32274738065E+03  0.46700000000E-02 0. -1.
         25    2    1    2    0    0  0.00000000000E+00  0.00000000000E+00 -0.31064584271E+03  0.33484891946E+03  0.12499183681E+03 0.  0.
        -11    1    3    3    0    0  0.40102323662E+02 -0.31034400720E+02 -0.25318440645E+03  0.25821245915E+03  0.51100000000E-03 0. -1.
         11    1    3    3    0    0 -0.40102323662E+02  0.31034400720E+02 -0.57461436260E+02  0.76636460307E+02  0.51100000000E-03 0.  1.
<mgrwt>
<rscale>  0 0.12499184E+03</rscale>
<asrwt>0</asrwt>
<pdfrwt beam="2">  1        1 0.49653437E-01 0.12499184E+03</pdfrwt>
<pdfrwt beam="1">  1       -1 0.18617754E-02 0.12499184E+03</pdfrwt>
<totfact> 0.55305714E+04</totfact>
</mgrwt>
</event>
<event>
 5    1  0.8303392E-059  0.1249996E+03  0.7818608E-02  0.1235070E+00
          1   -1    0    0  501    0  0.00000000000E+00  0.00000000000E+00  0.28322111943E+03  0.28322111947E+03  0.46700000000E-02 0. -1.
         -1   -1    0    0    0  501 -0.00000000000E+00 -0.00000000000E+00 -0.13792138711E+02  0.13792139502E+02  0.46700000000E-02 0.  1.
         25    2    1    2    0    0  0.00000000000E+00  0.00000000000E+00  0.26942898072E+03  0.29701325897E+03  0.12499960141E+03 0.  0.
        -11    1    3    3    0    0  0.35986459659E+02 -0.50461103600E+02  0.11557580826E+03  0.13114539912E+03  0.51100000000E-03 0.  1.
         11    1    3    3    0    0 -0.35986459659E+02  0.50461103600E+02  0.15385317246E+03  0.16586785985E+03  0.51100000000E-03 0. -1.
<mgrwt>
<rscale>  0 0.12499960E+03</rscale>
<asrwt>0</asrwt>
<pdfrwt beam="1">  1        1 0.43572478E-01 0.12499960E+03</pdfrwt>
<pdfrwt beam="2">  1       -1 0.21218676E-02 0.12499960E+03</pdfrwt>
<totfact> 0.53840656E+04</totfact>
</mgrwt>
</event>
<event>
 5    1  0.8303392E-059  0.1249976E+03  0.7818608E-02  0.1235073E+00
          1   -1    0    0  501    0  0.00000000000E+00  0.00000000000E+00  0.15590910793E+03  0.15590910800E+03  0.46700000000E-02 0. -1.
         -1   -1    0    0    0  501 -0.00000000000E+00 -0.00000000000E+00 -0.25053680852E+02  0.25053681287E+02  0.46700000000E-02 0.  1.
         25    2    1    2    0    0  0.00000000000E+00  0.00000000000E+00  0.13085542708E+03  0.18096278929E+03  0.12499755322E+03 0.  0.
        -11    1    3    3    0    0 -0.36849515503E+02 -0.43772753063E+02  0.29027826968E+02  0.64160388421E+02  0.51100000000E-03 0.  1.
         11    1    3    3    0    0  0.36849515503E+02  0.43772753063E+02  0.10182760011E+03  0.11680240087E+03  0.51100000000E-03 0. -1.
<mgrwt>
<rscale>  0 0.12499755E+03</rscale>
<asrwt>0</asrwt>
<pdfrwt beam="1">  1        1 0.23986016E-01 0.12499755E+03</pdfrwt>
<pdfrwt beam="2">  1       -1 0.38544125E-02 0.12499755E+03</pdfrwt>
<totfact> 0.47445472E+04</totfact>
</mgrwt>
</event>
<event>
 5    1  0.8303392E-059  0.1250020E+03  0.7818608E-02  0.1235066E+00
         -1   -1    0    0    0  501 -0.00000000000E+00  0.00000000000E+00  0.44088878657E+02  0.44088878904E+02  0.46700000000E-02 0.  1.
          1   -1    0    0  501    0  0.00000000000E+00 -0.00000000000E+00 -0.88602284009E+02  0.88602284132E+02  0.46700000000E-02 0. -1.
         25    2    1    2    0    0  0.00000000000E+00  0.00000000000E+00 -0.44513405352E+02  0.13269116304E+03  0.12500200595E+03 0.  0.
        -11    1    3    3    0    0 -0.17062338087E+01 -0.29599166291E+02  0.36149179211E+02  0.46752380012E+02  0.51100000000E-03 0.  1.
         11    1    3    3    0    0  0.17062338087E+01  0.29599166291E+02 -0.80662584563E+02  0.85938783024E+02  0.51100000000E-03 0. -1.
<mgrwt>
<rscale>  0 0.12500201E+03</rscale>
<asrwt>0</asrwt>
<pdfrwt beam="2">  1        1 0.13631121E-01 0.12500201E+03</pdfrwt>
<pdfrwt beam="1">  1       -1 0.67829045E-02 0.12500201E+03</pdfrwt>
<totfact> 0.42335584E+04</totfact>
</mgrwt>
</event>
<event>
 5    1  0.8303392E-059  0.1249992E+03  0.7818608E-02  0.1235070E+00
         -1   -1    0    0    0  501 -0.00000000000E+00  0.00000000000E+00  0.18310247314E+03  0.18310247320E+03  0.46700000000E-02 0.  1.
          1   -1    0    0  501    0  0.00000000000E+00 -0.00000000000E+00 -0.21333418381E+02  0.21333418892E+02  0.46700000000E-02 0. -1.
         25    2    1    2    0    0  0.00000000000E+00  0.00000000000E+00  0.16176905476E+03  0.20443589209E+03  0.12499922759E+03 0.  0.
        -11    1    3    3    0    0 -0.17196622322E+02  0.59921092214E+02  0.88187826093E+02  0.10799700821E+03  0.51100000000E-03 0.  1.
         11    1    3    3    0    0  0.17196622322E+02 -0.59921092214E+02  0.73581228664E+02  0.96438883877E+02  0.51100000000E-03 0. -1.
<mgrwt>
<rscale>  0 0.12499923E+03</rscale>
<asrwt>0</asrwt>
<pdfrwt beam="2">  1        1 0.32820644E-02 0.12499923E+03</pdfrwt>
<pdfrwt beam="1">  1       -1 0.28169611E-01 0.12499923E+03</pdfrwt>
<totfact> 0.31095366E+04</totfact>
</mgrwt>
</event>
<event>
 5    1  0.8303392E-059  0.1249990E+03  0.7818608E-02  0.1235071E+00
          1   -1    0    0  501    0  0.00000000000E+00  0.00000000000E+00  0.15157131017E+02  0.15157131736E+02  0.46700000000E-02 0. -1.
         -1   -1    0    0    0  501 -0.00000000000E+00 -0.00000000000E+00 -0.25771279248E+03  0.25771279252E+03  0.46700000000E-02 0.  1.
         25    2    1    2    0    0  0.00000000000E+00  0.00000000000E+00 -0.24255566147E+03  0.27286992426E+03  0.12499898663E+03 0.  0.
        -11    1    3    3    0    0 -0.61981173968E+02  0.65775749833E+01 -0.13134233648E+03  0.14538135978E+03  0.51100000000E-03 0. -1.
         11    1    3    3    0    0  0.61981173968E+02 -0.65775749833E+01 -0.11121332499E+03  0.12748856449E+03  0.51100000000E-03 0.  1.
<mgrwt>
<rscale>  0 0.12499899E+03</rscale>
<asrwt>0</asrwt>
<pdfrwt beam="1">  1        1 0.23318666E-02 0.12499899E+03</pdfrwt>
<pdfrwt beam="2">  1       -1 0.39648119E-01 0.12499899E+03</pdfrwt>
<totfact> 0.27893174E+04</totfact>
</mgrwt>
</event>
<event>
 5    1  0.8303392E-059  0.1250000E+03  0.7818608E-02  0.1235069E+00
         -1   -1    0    0    0  501 -0.00000000000E+00  0.00000000000E+00  0.51794809555E+03  0.51794809558E+03  0.46700000000E-02 0.  1.
          1   -1    0    0  501    0  0.00000000000E+00 -0.00000000000E+00 -0.75417738362E+01  0.75417752821E+01  0.46700000000E-02 0. -1.
         25    2    1    2    0    0  0.00000000000E+00  0.00000000000E+00  0.51040632172E+03  0.52548987086E+03  0.12499996450E+03 0.  0.
        -11    1    3    3    0    0  0.53320991526E+02  0.26685108949E+02  0.17643998153E+03  0.18624255760E+03  0.51100000000E-03 0. -1.
         11    1    3    3    0    0 -0.53320991526E+02 -0.26685108949E+02  0.33396634019E+03  0.33924731326E+03  0.51100000000E-03 0.  1.
<mgrwt>
<rscale>  0 0.12499996E+03</rscale>
<asrwt>0</asrwt>
<pdfrwt beam="2">  1        1 0.11602729E-02 0.12499996E+03</pdfrwt>
<pdfrwt beam="1">  1       -1 0.79684330E-01 0.12499996E+03</pdfrwt>
<totfact> 0.19917110E+04</totfact>
</mgrwt>
</event>
<event>
 5    1  0.8303392E-059  0.1249610E+03  0.7818608E-02  0.1235130E+00
          1   -1    0    0  501    0  0.00000000000E+00  0.00000000000E+00  0.95299410759E+02  0.95299410874E+02  0.46700000000E-02 0. -1.
         -1   -1    0    0    0  501 -0.00000000000E+00 -0.00000000000E+00 -0.40963689945E+02  0.40963690211E+02  0.46700000000E-02 0.  1.
         25    2    1    2    0    0  0.00000000000E+00  0.00000000000E+00  0.54335720814E+02  0.13626310108E+03  0.12496104257E+03 0.  0.
        -11    1    3    3    0    0  0.24376087787E+02  0.55454051871E+02  0.43865200163E+02  0.74789713934E+02  0.51100000000E-03 0. -1.
         11    1    3    3    0    0 -0.24376087787E+02 -0.55454051871E+02  0.10470520651E+02  0.61473387150E+02  0.51100000000E-03 0.  1.
<mgrwt>
<rscale>  0 0.12496104E+03</rscale>
<asrwt>0</asrwt>
<pdfrwt beam="1">  1        1 0.14661448E-01 0.12496104E+03</pdfrwt>
<pdfrwt beam="2">  1       -1 0.63021062E-02 0.12496104E+03</pdfrwt>
<totfact> 0.42984226E+04</totfact>
</mgrwt>
</event>
<event>
 5    1  0.8303392E-059  0.1249998E+03  0.7818608E-02  0.1235070E+00
          1   -1    0    0  501    0  0.00000000000E+00  0.00000000000E+00  0.50583620643E+02  0.50583620858E+02  0.46700000000E-02 0. -1.
         -1   -1    0    0    0  501 -0.00000000000E+00 -0.00000000000E+00 -0.77223354745E+02  0.77223354886E+02  0.46700000000E-02 0.  1.
         25    2    1    2    0    0  0.00000000000E+00  0.00000000000E+00 -0.26639734103E+02  0.12780697574E+03  0.12499979046E+03 0.  0.
        -11    1    3    3    0    0  0.56224193470E+02 -0.27202472100E+02 -0.11010270632E+02  0.63422081954E+02  0.51100000000E-03 0.  1.
         11    1    3    3    0    0 -0.56224193470E+02  0.27202472100E+02 -0.15629463470E+02  0.64384893790E+02  0.51100000000E-03 0. -1.
<mgrwt>
<rscale>  0 0.12499979E+03</rscale>
<asrwt>0</asrwt>
<pdfrwt beam="1">  1        1 0.77820955E-02 0.12499979E+03</pdfrwt>
<pdfrwt beam="2">  1       -1 0.11880516E-01 0.12499979E+03</pdfrwt>
<totfact> 0.37959258E+04</totfact>
</mgrwt>
</event>
<event>
 5    1  0.8303392E-059  0.1250000E+03  0.7818608E-02  0.1235069E+00
         -1   -1    0    0    0  501 -0.00000000000E+00  0.00000000000E+00  0.81440456669E+02  0.81440456803E+02  0.46700000000E-02 0.  1.
          1   -1    0    0  501    0  0.00000000000E+00 -0.00000000000E+00 -0.47964463204E+02  0.47964463431E+02  0.46700000000E-02 0. -1.
         25    2    1    2    0    0  0.00000000000E+00  0.00000000000E+00  0.33475993465E+02  0.12940492023E+03  0.12499996497E+03 0.  0.
        -11    1    3    3    0    0  0.49876304672E+02  0.33388571902E+02 -0.13062425456E+01  0.60034563139E+02  0.51100000000E-03 0.  1.
         11    1    3    3    0    0 -0.49876304672E+02 -0.33388571902E+02  0.34782236011E+02  0.69370357096E+02  0.51100000000E-03 0. -1.
<mgrwt>
<rscale>  0 0.12499996E+03</rscale>
<asrwt>0</asrwt>
<pdfrwt beam="2">  1        1 0.73791482E-02 0.12499996E+03</pdfrwt>
<pdfrwt beam="1">  1       -1 0.12529301E-01 0.12499996E+03</pdfrwt>
<totfact> 0.37557688E+04</totfact>
</mgrwt>
</event>
<event>
 5    1  0.8303392E-059  0.1249999E+03  0.7818608E-02  0.1235069E+00
          1   -1    0    0  501    0  0.00000000000E+00  0.00000000000E+00  0.38985490365E+03  0.38985490368E+03  0.46700000000E-02 0. -1.
         -1   -1    0    0    0  501 -0.00000000000E+00 -0.00000000000E+00 -0.10019743501E+02  0.10019744589E+02  0.46700000000E-02 0.  1.
         25    2    1    2    0    0  0.00000000000E+00  0.00000000000E+00  0.37983516015E+03  0.39987464827E+03  0.12499994176E+03 0.  0.
        -11    1    3    3    0    0 -0.31145987546E+02 -0.52670967862E+02  0.14920814247E+03  0.16126801660E+03  0.51100000000E-03 0.  1.
         11    1    3    3    0    0  0.31145987546E+02  0.52670967862E+02  0.23062701768E+03  0.23860663167E+03  0.51100000000E-03 0. -1.
<mgrwt>
<rscale>  0 0.12499994E+03</rscale>
<asrwt>0</asrwt>
<pdfrwt beam="1">  1        1 0.59977689E-01 0.12499994E+03</pdfrwt>
<pdfrwt beam="2">  1       -1 0.15414988E-02 0.12499994E+03</pdfrwt>
<totfact> 0.57311310E+04</totfact>
</mgrwt>
</event>
<event>
 5    1  0.8303392E-059  0.1249992E+03  0.7818608E-02  0.1235070E+00
         -1   -1    0    0    0  501 -0.00000000000E+00  0.00000000000E+00  0.12218490094E+02  0.12218490987E+02  0.46700000000E-02 0. -1.
          1   -1    0    0  501    0  0.00000000000E+00 -0.00000000000E+00 -0.31969595689E+03  0.31969595692E+03  0.46700000000E-02 0.  1.
         25    2    1    2    0    0  0.00000000000E+00  0.00000000000E+00 -0.30747746679E+03  0.33191444791E+03  0.12499923258E+03 0.  0.
        -11    1    3    3    0    0  0.60883158205E+02  0.46831935080E+00 -0.19121785266E+03  0.20067696792E+03  0.51100000000E-03 0. -1.
         11    1    3    3    0    0 -0.60883158205E+02 -0.46831935080E+00 -0.11625961413E+03  0.13123747999E+03  0.51100000000E-03 0.  1.
<mgrwt>
<rscale>  0 0.12499923E+03</rscale>
<asrwt>0</asrwt>
<pdfrwt beam="2">  1        1 0.49183987E-01 0.12499923E+03</pdfrwt>
<pdfrwt beam="1">  1       -1 0.18797680E-02 0.12499923E+03</pdfrwt>
<totfact> 0.55191959E+04</totfact>
</mgrwt>
</event>
<event>
 5    1  0.8303392E-059  0.1249982E+03  0.7818608E-02  0.1235072E+00
          1   -1    0    0  501    0  0.00000000000E+00  0.00000000000E+00  0.13818761799E+02  0.13818762588E+02  0.46700000000E-02 0. -1.
         -1   -1    0    0    0  501 -0.00000000000E+00 -0.00000000000E+00 -0.28266933700E+03  0.28266933704E+03  0.46700000000E-02 0.  1.
         25    2    1    2    0    0  0.00000000000E+00  0.00000000000E+00 -0.26885057520E+03  0.29648809963E+03  0.12499824573E+03 0.  0.
        -11    1    3    3    0    0 -0.45270914744E+01  0.43230573977E+02 -0.24094520244E+03  0.24483457204E+03  0.51100000000E-03 0.  1.
         11    1    3    3    0    0  0.45270914744E+01 -0.43230573977E+02 -0.27905372760E+02  0.51653527593E+02  0.51100000000E-03 0. -1.
<mgrwt>
<rscale>  0 0.12499825E+03</rscale>
<asrwt>0</asrwt>
<pdfrwt beam="1">  1        1 0.21259636E-02 0.12499825E+03</pdfrwt>
<pdfrwt beam="2">  1       -1 0.43487586E-01 0.12499825E+03</pdfrwt>
<totfact> 0.26952222E+04</totfact>
</mgrwt>
</event>
<event>
 5    1  0.8303392E-059  0.1250044E+03  0.7818608E-02  0.1235062E+00
          1   -1    0    0  501    0  0.00000000000E+00  0.00000000000E+00  0.19203013177E+02  0.19203013745E+02  0.46700000000E-02 0. -1.
         -1   -1    0    0    0  501 -0.00000000000E+00 -0.00000000000E+00 -0.20343291102E+03  0.20343291107E+03  0.46700000000E-02 0.  1.
         25    2    1    2    0    0  0.00000000000E+00  0.00000000000E+00 -0.18422989784E+03  0.22263592482E+03  0.12500439897E+03 0.  0.
        -11    1    3    3    0    0 -0.78060575149E+01  0.55462449889E+02 -0.42709340544E+02  0.70435116609E+02  0.51100000000E-03 0. -1.
         11    1    3    3    0    0  0.78060575149E+01 -0.55462449889E+02 -0.14152055730E+03  0.15220080821E+03  0.51100000000E-03 0.  1.
<mgrwt>
<rscale>  0 0.12500440E+03</rscale>
<asrwt>0</asrwt>
<pdfrwt beam="1">  1        1 0.29543099E-02 0.12500440E+03</pdfrwt>
<pdfrwt beam="2">  1       -1 0.31297370E-01 0.12500440E+03</pdfrwt>
<totfact> 0.30147421E+04</totfact>
</mgrwt>
</event>
<event>
 5    1  0.8303392E-059  0.1249973E+03  0.7818608E-02  0.1235073E+00
          1   -1    0    0  501    0  0.00000000000E+00  0.00000000000E+00  0.14110979292E+03  0.14110979300E+03  0.46700000000E-02 0. -1.
         -1   -1    0    0    0  501 -0.00000000000E+00 -0.00000000000E+00 -0.27681158816E+02  0.27681159210E+02  0.46700000000E-02 0.  1.
         25    2    1    2    0    0  0.00000000000E+00  0.00000000000E+00  0.11342863411E+03  0.16879095221E+03  0.12499732202E+03 0.  0.
        -11    1    3    3    0    0 -0.34502798907E+02 -0.25233185272E+02 -0.48555130119E+01  0.43020143866E+02  0.51100000000E-03 0.  1.
         11    1    3    3    0    0  0.34502798907E+02  0.25233185272E+02  0.11828414712E+03  0.12577080834E+03  0.51100000000E-03 0. -1.
<mgrwt>
<rscale>  0 0.12499732E+03</rscale>
<asrwt>0</asrwt>
<pdfrwt beam="1">  1        1 0.21709199E-01 0.12499732E+03</pdfrwt>
<pdfrwt beam="2">  1       -1 0.42586398E-02 0.12499732E+03</pdfrwt>
<totfact> 0.46474506E+04</totfact>
</mgrwt>
</event>
<event>
 5    1  0.8303392E-059  0.1249977E+03  0.7818608E-02  0.1235073E+00
          1   -1    0    0  501    0  0.00000000000E+00  0.00000000000E+00  0.54490913285E+03  0.54490913287E+03  0.46700000000E-02 0. -1.
         -1   -1    0    0    0  501 -0.00000000000E+00 -0.00000000000E+00 -0.71683651734E+01  0.71683666946E+01  0.46700000000E-02 0.  1.
         25    2    1    2    0    0  0.00000000000E+00  0.00000000000E+00  0.53774076768E+03  0.55207749957E+03  0.12499772920E+03 0.  0.
        -11    1    3    3    0    0 -0.47299526561E+02 -0.40665264042E+02  0.28608937747E+03  0.29281058863E+03  0.51100000000E-03 0.  1.
         11    1    3    3    0    0  0.47299526561E+02  0.40665264042E+02  0.25165139022E+03  0.25926691094E+03  0.51100000000E-03 0. -1.
<mgrwt>
<rscale>  0 0.12499773E+03</rscale>
<asrwt>0</asrwt>
<pdfrwt beam="1">  1        1 0.83832177E-01 0.12499773E+03</pdfrwt>
<pdfrwt beam="2">  1       -1 0.11028255E-02 0.12499773E+03</pdfrwt>
<totfact> 0.60154723E+04</totfact>
</mgrwt>
</event>
<event>
 5    1  0.8303392E-059  0.1250326E+03  0.7818608E-02  0.1235018E+00
         -1   -1    0    0    0  501 -0.00000000000E+00  0.00000000000E+00  0.15203121969E+02  0.15203122686E+02  0.46700000000E-02 0.  1.
          1   -1    0    0  501    0  0.00000000000E+00 -0.00000000000E+00 -0.25707146734E+03  0.25707146738E+03  0.46700000000E-02 0. -1.
         25    2    1    2    0    0  0.00000000000E+00  0.00000000000E+00 -0.24186834537E+03  0.27227459007E+03  0.12503261936E+03 0.  0.
        -11    1    3    3    0    0 -0.34097588255E+02 -0.44000892825E+02 -0.18289391653E+03  0.19117768907E+03  0.51100000000E-03 0. -1.
         11    1    3    3    0    0  0.34097588255E+02  0.44000892825E+02 -0.58974428840E+02  0.81096900998E+02  0.51100000000E-03 0.  1.
<mgrwt>
<rscale>  0 0.12503262E+03</rscale>
<asrwt>0</asrwt>
<pdfrwt beam="2">  1        1 0.39549454E-01 0.12503262E+03</pdfrwt>
<pdfrwt beam="1">  1       -1 0.23389421E-02 0.12503262E+03</pdfrwt>
<totfact> 0.52714914E+04</totfact>
</mgrwt>
</event>
<event>
 5    1  0.8303392E-059  0.1250002E+03  0.7818608E-02  0.1235069E+00
          1   -1    0    0  501    0  0.00000000000E+00  0.00000000000E+00  0.48154809085E+02  0.48154809312E+02  0.46700000000E-02 0. -1.
         -1   -1    0    0    0  501 -0.00000000000E+00 -0.00000000000E+00 -0.81118845000E+02  0.81118845134E+02  0.46700000000E-02 0.  1.
         25    2    1    2    0    0  0.00000000000E+00  0.00000000000E+00 -0.32964035914E+02  0.12927365445E+03  0.12500020028E+03 0.  0.
        -11    1    3    3    0    0 -0.29055810284E+02 -0.52540461841E+02 -0.34440061418E+02  0.69216024679E+02  0.51100000000E-03 0.  1.
         11    1    3    3    0    0  0.29055810284E+02  0.52540461841E+02  0.14760255040E+01  0.60057629767E+02  0.51100000000E-03 0. -1.
<mgrwt>
<rscale>  0 0.12500020E+03</rscale>
<asrwt>0</asrwt>
<pdfrwt beam="1">  1        1 0.74084322E-02 0.12500020E+03</pdfrwt>
<pdfrwt beam="2">  1       -1 0.12479822E-01 0.12500020E+03</pdfrwt>
<totfact> 0.37587373E+04</totfact>
</mgrwt>
</event>
<event>
 5    1  0.8303392E-059  0.1250097E+03  0.7818608E-02  0.1235054E+00
          1   -1    0    0  501    0  0.00000000000E+00  0.00000000000E+00  0.83800708136E+02  0.83800708267E+02  0.46700000000E-02 0. -1.
         -1   -1    0    0    0  501 -0.00000000000E+00 -0.00000000000E+00 -0.46620779562E+02  0.46620779796E+02  0.46700000000E-02 0.  1.
         25    2    1    2    0    0  0.00000000000E+00  0.00000000000E+00  0.37179928574E+02  0.13042148806E+03  0.12500966947E+03 0.  0.
        -11    1    3    3    0    0  0.33352737651E+02  0.51426736188E+02  0.58233849982E+01  0.61571309203E+02  0.51100000000E-03 0.  1.
         11    1    3    3    0    0 -0.33352737651E+02 -0.51426736188E+02  0.31356543576E+02  0.68850178860E+02  0.51100000000E-03 0. -1.
<mgrwt>
<rscale>  0 0.12500967E+03</rscale>
<asrwt>0</asrwt>
<pdfrwt beam="1">  1        1 0.12892417E-01 0.12500967E+03</pdfrwt>
<pdfrwt beam="2">  1       -1 0.71724277E-02 0.12500967E+03</pdfrwt>
<totfact> 0.41871108E+04</totfact>
</mgrwt>
</event>
<event>
 5    1  0.8303392E-059  0.1249997E+03  0.7818608E-02  0.1235070E+00
          1   -1    0    0  501    0  0.00000000000E+00  0.00000000000E+00  0.30554600015E+02  0.30554600372E+02  0.46700000000E-02 0. -1.
         -1   -1    0    0    0  501 -0.00000000000E+00 -0.00000000000E+00 -0.12784427621E+03  0.12784427629E+03  0.46700000000E-02 0.  1.
         25    2    1    2    0    0  0.00000000000E+00  0.00000000000E+00 -0.97289676191E+02  0.15839887666E+03  0.12499969214E+03 0.  0.
        -11    1    3    3    0    0  0.32904859792E+02  0.21841257333E+02 -0.11002807301E+03  0.11690144212E+03  0.51100000000E-03 0.  1.
         11    1    3    3    0    0 -0.32904859792E+02 -0.21841257333E+02  0.12738396817E+02  0.41497434541E+02  0.51100000000E-03 0. -1.
<mgrwt>
<rscale>  0 0.12499969E+03</rscale>
<asrwt>0</asrwt>
<pdfrwt beam="1">  1        1 0.47007078E-02 0.12499969E+03</pdfrwt>
<pdfrwt beam="2">  1       -1 0.19668350E-01 0.12499969E+03</pdfrwt>
<totfact> 0.34091296E+04</totfact>
</mgrwt>
</event>
<event>
 5    1  0.8303392E-059  0.1250024E+03  0.7818608E-02  0.1235066E+00
         -1   -1    0    0    0  501 -0.00000000000E+00  0.00000000000E+00  0.33715780917E+02  0.33715781241E+02  0.46700000000E-02 0.  1.
          1   -1    0    0  501    0  0.00000000000E+00 -0.00000000000E+00 -0.11586269040E+03  0.11586269050E+03  0.46700000000E-02 0. -1.
         25    2    1    2    0    0  0.00000000000E+00  0.00000000000E+00 -0.82146909485E+02  0.14957847174E+03  0.12500241785E+03 0.  0.
        -11    1    3    3    0    0 -0.30567620831E+02 -0.53106078843E+02 -0.26332079089E+02  0.66693428782E+02  0.51100000000E-03 0.  1.
         11    1    3    3    0    0  0.30567620831E+02  0.53106078843E+02 -0.55814830395E+02  0.82885042955E+02  0.51100000000E-03 0. -1.
<mgrwt>
<rscale>  0 0.12500242E+03</rscale>
<asrwt>0</asrwt>
<pdfrwt beam="2">  1        1 0.17825029E-01 0.12500242E+03</pdfrwt>
<pdfrwt beam="1">  1       -1 0.51870433E-02 0.12500242E+03</pdfrwt>
<totfact> 0.44640482E+04</totfact>
</mgrwt>
</event>
<event>
 5    1  0.8303392E-059  0.1249994E+03  0.7818608E-02  0.1235070E+00
         -1   -1    0    0    0  501 -0.00000000000E+00  0.00000000000E+00  0.14327898215E+02  0.14327898976E+02  0.46700000000E-02 0. -1.
          1   -1    0    0  501    0  0.00000000000E+00 -0.00000000000E+00 -0.27262968717E+03  0.27262968721E+03  0.46700000000E-02 0.  1.
         25    2    1    2    0    0  0.00000000000E+00  0.00000000000E+00 -0.25830178896E+03  0.28695758619E+03  0.12499936837E+03 0.  0.
        -11    1    3    3    0    0  0.61552103758E+02  0.60129907397E+01 -0.10843978384E+03  0.12483590931E+03  0.51100000000E-03 0. -1.
         11    1    3    3    0    0 -0.61552103758E+02 -0.60129907397E+01 -0.14986200512E+03  0.16212167688E+03  0.51100000000E-03 0.  1.
<mgrwt>
<rscale>  0 0.12499937E+03</rscale>
<asrwt>0</asrwt>
<pdfrwt beam="2">  1        1 0.41943025E-01 0.12499937E+03</pdfrwt>
<pdfrwt beam="1">  1       -1 0.22042923E-02 0.12499937E+03</pdfrwt>
<totfact> 0.53412961E+04</totfact>
</mgrwt>
</event>
<event>
 5    1  0.8303392E-059  0.1250019E+03  0.7818608E-02  0.1235066E+00
          1   -1    0    0  501    0  0.00000000000E+00  0.00000000000E+00  0.54149560089E+02  0.54149560290E+02  0.46700000000E-02 0. -1.
         -1   -1    0    0    0  501 -0.00000000000E+00 -0.00000000000E+00 -0.72140384686E+02  0.72140384837E+02  0.46700000000E-02 0.  1.
         25    2    1    2    0    0  0.00000000000E+00  0.00000000000E+00 -0.17990824598E+02  0.12628994513E+03  0.12500192187E+03 0.  0.
        -11    1    3    3    0    0 -0.59267955734E+02 -0.15357953812E+02 -0.21687211443E+02  0.64953001952E+02  0.51100000000E-03 0.  1.
         11    1    3    3    0    0  0.59267955734E+02  0.15357953812E+02  0.36963868459E+01  0.61336943175E+02  0.51100000000E-03 0. -1.
<mgrwt>
<rscale>  0 0.12500192E+03</rscale>
<asrwt>0</asrwt>
<pdfrwt beam="1">  1        1 0.83307016E-02 0.12500192E+03</pdfrwt>
<pdfrwt beam="2">  1       -1 0.11098521E-01 0.12500192E+03</pdfrwt>
<totfact> 0.38472653E+04</totfact>
</mgrwt>
</event>
<event>
 5    1  0.8303392E-059  0.1249993E+03  0.7818608E-02  0.1235070E+00
          1   -1    0    0  501    0  0.00000000000E+00  0.00000000000E+00  0.25164614706E+02  0.25164615139E+02  0.46700000000E-02 0. -1.
         -1   -1    0    0    0  501 -0.00000000000E+00 -0.00000000000E+00 -0.15522619879E+03  0.15522619886E+03  0.46700000000E-02 0.  1.
         25    2    1    2    0    0  0.00000000000E+00  0.00000000000E+00 -0.13006158408E+03  0.18039081400E+03  0.12499932048E+03 0.  0.
        -11    1    3    3    0    0 -0.59808911213E+02  0.24239129405E+01 -0.90976177191E+02  0.10890200196E+03  0.51100000000E-03 0.  1.
         11    1    3    3    0    0  0.59808911213E+02 -0.24239129405E+01 -0.39085406893E+02  0.71488812038E+02  0.51100000000E-03 0. -1.
<mgrwt>
<rscale>  0 0.12499932E+03</rscale>
<asrwt>0</asrwt>
<pdfrwt beam="1">  1        1 0.38714793E-02 0.12499932E+03</pdfrwt>
<pdfrwt beam="2">  1       -1 0.23880953E-01 0.12499932E+03</pdfrwt>
<totfact> 0.32510829E+04</totfact>
</mgrwt>
</event>
<event>
 5    1  0.8303392E-059  0.1249988E+03  0.7818608E-02  0.1235071E+00
         -1   -1    0    0    0  501 -0.00000000000E+00  0.00000000000E+00  0.12375541915E+03  0.12375541924E+03  0.46700000000E-02 0.  1.
          1   -1    0    0  501    0  0.00000000000E+00 -0.00000000000E+00 -0.31563654450E+02  0.31563654795E+02  0.46700000000E-02 0. -1.
         25    2    1    2    0    0  0.00000000000E+00  0.00000000000E+00  0.92191764697E+02  0.15531907403E+03  0.12499877311E+03 0.  0.
        -11    1    3    3    0    0 -0.16929032332E+02  0.33527236647E+02  0.10816825064E+03  0.11450344178E+03  0.51100000000E-03 0.  1.
         11    1    3    3    0    0  0.16929032332E+02 -0.33527236647E+02 -0.15976485940E+02  0.40815632252E+02  0.51100000000E-03 0. -1.
<mgrwt>
<rscale>  0 0.12499877E+03</rscale>
<asrwt>0</asrwt>
<pdfrwt beam="2">  1        1 0.48559469E-02 0.12499877E+03</pdfrwt>
<pdfrwt beam="1">  1       -1 0.19039295E-01 0.12499877E+03</pdfrwt>
<totfact> 0.34349706E+04</totfact>
</mgrwt>
</event>
<event>
 5    1  0.8303392E-059  0.1250003E+03  0.7818608E-02  0.1235069E+00
         -1   -1    0    0    0  501 -0.00000000000E+00  0.00000000000E+00  0.33593181854E+03  0.33593181858E+03  0.46700000000E-02 0.  1.
          1   -1    0    0  501    0  0.00000000000E+00 -0.00000000000E+00 -0.11628155130E+02  0.11628156068E+02  0.46700000000E-02 0. -1.
         25    2    1    2    0    0  0.00000000000E+00  0.00000000000E+00  0.32430366341E+03  0.34755997464E+03  0.12500027948E+03 0.  0.
        -11    1    3    3    0    0  0.41470662377E+02 -0.46759508412E+02  0.16214749436E+03  0.17377594020E+03  0.51100000000E-03 0.  1.
         11    1    3    3    0    0 -0.41470662377E+02  0.46759508412E+02  0.16215616906E+03  0.17378403445E+03  0.51100000000E-03 0. -1.
<mgrwt>
<rscale>  0 0.12500028E+03</rscale>
<asrwt>0</asrwt>
<pdfrwt beam="2">  1        1 0.17889471E-02 0.12500028E+03</pdfrwt>
<pdfrwt beam="1">  1       -1 0.51681817E-01 0.12500028E+03</pdfrwt>
<totfact> 0.25101357E+04</totfact>
</mgrwt>
</event>
<event>
 5    1  0.8303392E-059  0.1249958E+03  0.7818608E-02  0.1235076E+00
         -1   -1    0    0    0  501 -0.00000000000E+00  0.00000000000E+00  0.12347372722E+02  0.12347373605E+02  0.46700000000E-02 0.  1.
          1   -1    0    0  501    0  0.00000000000E+00 -0.00000000000E+00 -0.31634141421E+03  0.31634141424E+03  0.46700000000E-02 0. -1.
         25    2    1    2    0    0  0.00000000000E+00  0.00000000000E+00 -0.30399404149E+03  0.32868878785E+03  0.12499576792E+03 0.  0.
        -11    1    3    3    0    0 -0.61541504814E+02  0.10836133487E+02 -0.15488586694E+03  0.16701619796E+03  0.51100000000E-03 0.  1.
         11    1    3    3    0    0  0.61541504814E+02 -0.10836133487E+02 -0.14910817455E+03  0.16167258989E+03  0.51100000000E-03 0. -1.
<mgrwt>
<rscale>  0 0.12499577E+03</rscale>
<asrwt>0</asrwt>
<pdfrwt beam="2">  1        1 0.48667904E-01 0.12499577E+03</pdfrwt>
<pdfrwt beam="1">  1       -1 0.18995961E-02 0.12499577E+03</pdfrwt>
<totfact> 0.55079584E+04</totfact>
</mgrwt>
</event>
<event>
 5    1  0.8303392E-059  0.1250009E+03  0.7818608E-02  0.1235068E+00
          1   -1    0    0  501    0  0.00000000000E+00  0.00000000000E+00  0.98412973841E+02  0.98412973952E+02  0.46700000000E-02 0. -1.
         -1   -1    0    0    0  501 -0.00000000000E+00 -0.00000000000E+00 -0.39692974573E+02  0.39692974848E+02  0.46700000000E-02 0.  1.
         25    2    1    2    0    0  0.00000000000E+00  0.00000000000E+00  0.58719999268E+02  0.13810594880E+03  0.12500085912E+03 0.  0.
        -11    1    3    3    0    0  0.46360560056E+02  0.40825747691E+02  0.39856589664E+02  0.73515923058E+02  0.51100000000E-03 0. -1.
         11    1    3    3    0    0 -0.46360560056E+02 -0.40825747691E+02  0.18863409604E+02  0.64590025742E+02  0.51100000000E-03 0.  1.
<mgrwt>
<rscale>  0 0.12500086E+03</rscale>
<asrwt>0</asrwt>
<pdfrwt beam="1">  1        1 0.15140458E-01 0.12500086E+03</pdfrwt>
<pdfrwt beam="2">  1       -1 0.61066115E-02 0.12500086E+03</pdfrwt>
<totfact> 0.43217611E+04</totfact>
</mgrwt>
</event>
<event>
 4    1  0.8303392E-059  0.1250815E+03  0.7818608E-02  0.1234942E+00
         -1   -1    0    0    0  501 -0.00000000000E+00  0.00000000000E+00  0.30567415494E+03  0.30567415497E+03  0.46700000000E-02 0.  1.
          1   -1    0    0  501    0  0.00000000000E+00 -0.00000000000E+00 -0.12795801925E+02  0.12795802777E+02  0.46700000000E-02 0. -1.
        -11    1    1    2    0    0 -0.35202045005E+02  0.40311547672E+02  0.22882983669E+03  0.23500489145E+03  0.51100000000E-03 0.  1.
         11    1    1    2    0    0  0.35202045005E+02 -0.40311547672E+02  0.64048516325E+02  0.83465066297E+02  0.51100000000E-03 0. -1.
<mgrwt>
<rscale>  0 0.12508151E+03</rscale>
<asrwt>0</asrwt>
<pdfrwt beam="2">  1        1 0.19685851E-02 0.12508151E+03</pdfrwt>
<pdfrwt beam="1">  1       -1 0.47026790E-01 0.12508151E+03</pdfrwt>
<totfact> 0.26082555E+04</totfact>
</mgrwt>
</event>
<event>
 5    1  0.8303392E-059  0.1249998E+03  0.7818608E-02  0.1235070E+00
         -1   -1    0    0    0  501 -0.00000000000E+00  0.00000000000E+00  0.99045931762E+01  0.99045942771E+01  0.46700000000E-02 0.  1.
          1   -1    0    0  501    0  0.00000000000E+00 -0.00000000000E+00 -0.39438643611E+03  0.39438643614E+03  0.46700000000E-02 0. -1.
         25    2    1    2    0    0  0.00000000000E+00  0.00000000000E+00 -0.38448184293E+03  0.40429103041E+03  0.12499979891E+03 0.  0.
        -11    1    3    3    0    0  0.57618022271E+02  0.23992888263E+02 -0.20284157163E+03  0.21222676165E+03  0.51100000000E-03 0.  1.
         11    1    3    3    0    0 -0.57618022271E+02 -0.23992888263E+02 -0.18164027130E+03  0.19206426877E+03  0.51100000000E-03 0. -1.
<mgrwt>
<rscale>  0 0.12499980E+03</rscale>
<asrwt>0</asrwt>
<pdfrwt beam="2">  1        1 0.60674824E-01 0.12499980E+03</pdfrwt>
<pdfrwt beam="1">  1       -1 0.15237840E-02 0.12499980E+03</pdfrwt>
<totfact> 0.57429365E+04</totfact>
</mgrwt>
</event>
<event>
 5    1  0.8303392E-059  0.1250020E+03  0.7818608E-02  0.1235066E+00
         -1   -1    0    0    0  501 -0.00000000000E+00  0.00000000000E+00  0.27899167583E+02  0.27899167974E+02  0.46700000000E-02 0.  1.
          1   -1    0    0  501    0  0.00000000000E+00 -0.00000000000E+00 -0.14001751452E+03  0.14001751460E+03  0.46700000000E-02 0. -1.
         25    2    1    2    0    0  0.00000000000E+00  0.00000000000E+00 -0.11211834694E+03  0.16791668257E+03  0.12500195425E+03 0.  0.
        -11    1    3    3    0    0 -0.51704851427E+01  0.50722422304E+02 -0.74974693591E+01  0.51533582138E+02  0.51100000000E-03 0.  1.
         11    1    3    3    0    0  0.51704851427E+01 -0.50722422304E+02 -0.10462087758E+03  0.11638310043E+03  0.51100000000E-03 0. -1.
<mgrwt>
<rscale>  0 0.12500195E+03</rscale>
<asrwt>0</asrwt>
<pdfrwt beam="2">  1        1 0.21541156E-01 0.12500195E+03</pdfrwt>
<pdfrwt beam="1">  1       -1 0.42921797E-02 0.12500195E+03</pdfrwt>
<totfact> 0.46395231E+04</totfact>
</mgrwt>
</event>
<event>
 5    1  0.8303392E-059  0.1249976E+03  0.7818608E-02  0.1235073E+00
          1   -1    0    0  501    0  0.00000000000E+00  0.00000000000E+00  0.47701551411E+03  0.47701551413E+03  0.46700000000E-02 0. -1.
         -1   -1    0    0    0  501 -0.00000000000E+00 -0.00000000000E+00 -0.81886260918E+01  0.81886274235E+01  0.46700000000E-02 0.  1.
         25    2    1    2    0    0  0.00000000000E+00  0.00000000000E+00  0.46882688801E+03  0.48520414155E+03  0.12499763220E+03 0.  0.
        -11    1    3    3    0    0 -0.12127798830E+02  0.57447341719E+02  0.15126683081E+03  0.16226193231E+03  0.51100000000E-03 0.  1.
         11    1    3    3    0    0  0.12127798830E+02 -0.57447341719E+02  0.31756005721E+03  0.32294220924E+03  0.51100000000E-03 0. -1.
<mgrwt>
<rscale>  0 0.12499763E+03</rscale>
<asrwt>0</asrwt>
<pdfrwt beam="1">  1        1 0.73387026E-01 0.12499763E+03</pdfrwt>
<pdfrwt beam="2">  1       -1 0.12597883E-02 0.12499763E+03</pdfrwt>
<totfact> 0.59198227E+04</totfact>
</mgrwt>
</event>
<event>
 5    1  0.8303392E-059  0.1250041E+03  0.7818608E-02  0.1235063E+00
         -1   -1    0    0    0  501 -0.00000000000E+00  0.00000000000E+00  0.89860648354E+01  0.89860660489E+01  0.46700000000E-02 0.  1.
          1   -1    0    0  501    0  0.00000000000E+00 -0.00000000000E+00 -0.43472916247E+03  0.43472916249E+03  0.46700000000E-02 0. -1.
         25    2    1    2    0    0  0.00000000000E+00  0.00000000000E+00 -0.42574309763E+03  0.44371522854E+03  0.12500407537E+03 0.  0.
        -11    1    3    3    0    0  0.50936353265E+02  0.21752723060E+02 -0.11006698516E+03  0.12321702101E+03  0.51100000000E-03 0.  1.
         11    1    3    3    0    0 -0.50936353265E+02 -0.21752723060E+02 -0.31567611247E+03  0.32049820753E+03  0.51100000000E-03 0. -1.
<mgrwt>
<rscale>  0 0.12500408E+03</rscale>
<asrwt>0</asrwt>
<pdfrwt beam="2">  1        1 0.66881393E-01 0.12500408E+03</pdfrwt>
<pdfrwt beam="1">  1       -1 0.13824719E-02 0.12500408E+03</pdfrwt>
<totfact> 0.58374709E+04</totfact>
</mgrwt>
</event>
<event>
 5    1  0.8303392E-059  0.1249658E+03  0.7818608E-02  0.1235123E+00
          1   -1    0    0  501    0  0.00000000000E+00  0.00000000000E+00  0.45137515703E+02  0.45137515945E+02  0.46700000000E-02 0. -1.
         -1   -1    0    0    0  501 -0.00000000000E+00 -0.00000000000E+00 -0.86493698142E+02  0.86493698268E+02  0.46700000000E-02 0.  1.
         25    2    1    2    0    0  0.00000000000E+00  0.00000000000E+00 -0.41356182439E+02  0.13163121421E+03  0.12496576623E+03 0.  0.
        -11    1    3    3    0    0 -0.84397885470E+01 -0.61506204179E+02 -0.28116441468E+02  0.68152604237E+02  0.51100000000E-03 0.  1.
         11    1    3    3    0    0  0.84397885470E+01  0.61506204179E+02 -0.13239740971E+02  0.63478609976E+02  0.51100000000E-03 0. -1.
<mgrwt>
<rscale>  0 0.12496577E+03</rscale>
<asrwt>0</asrwt>
<pdfrwt beam="1">  1        1 0.69442332E-02 0.12496577E+03</pdfrwt>
<pdfrwt beam="2">  1       -1 0.13306723E-01 0.12496577E+03</pdfrwt>
<totfact> 0.37128992E+04</totfact>
</mgrwt>
</event>
<event>
 5    1  0.8303392E-059  0.1249992E+03  0.7818608E-02  0.1235071E+00
          1   -1    0    0  501    0  0.00000000000E+00  0.00000000000E+00  0.32669090653E+03  0.32669090656E+03  0.46700000000E-02 0. -1.
         -1   -1    0    0    0  501 -0.00000000000E+00 -0.00000000000E+00 -0.11956866764E+02  0.11956867676E+02  0.46700000000E-02 0.  1.
         25    2    1    2    0    0  0.00000000000E+00  0.00000000000E+00  0.31473403976E+03  0.33864777424E+03  0.12499919684E+03 0.  0.
        -11    1    3    3    0    0  0.58843372624E+02  0.40031703275E+01  0.10134276817E+03  0.11725580811E+03  0.51100000000E-03 0.  1.
         11    1    3    3    0    0 -0.58843372624E+02 -0.40031703275E+01  0.21339127159E+03  0.22139196613E+03  0.51100000000E-03 0. -1.
<mgrwt>
<rscale>  0 0.12499920E+03</rscale>
<asrwt>0</asrwt>
<pdfrwt beam="1">  1        1 0.50260141E-01 0.12499920E+03</pdfrwt>
<pdfrwt beam="2">  1       -1 0.18395180E-02 0.12499920E+03</pdfrwt>
<totfact> 0.55430326E+04</totfact>
</mgrwt>
</event>
<event>
 5    1  0.8303392E-059  0.1249988E+03  0.7818608E-02  0.1235071E+00
         -1   -1    0    0    0  501 -0.00000000000E+00  0.00000000000E+00  0.14102970230E+02  0.14102971003E+02  0.46700000000E-02 0.  1.
          1   -1    0    0  501    0  0.00000000000E+00 -0.00000000000E+00 -0.27697555314E+03  0.27697555318E+03  0.46700000000E-02 0. -1.
         25    2    1    2    0    0  0.00000000000E+00  0.00000000000E+00 -0.26287258291E+03  0.29107852419E+03  0.12499884957E+03 0.  0.
        -11    1    3    3    0    0  0.60968733685E+02  0.34028185741E+01 -0.16245303357E+03  0.17355043583E+03  0.51100000000E-03 0.  1.
         11    1    3    3    0    0 -0.60968733685E+02 -0.34028185741E+01 -0.10041954934E+03  0.11752808835E+03  0.51100000000E-03 0. -1.
<mgrwt>
<rscale>  0 0.12499885E+03</rscale>
<asrwt>0</asrwt>
<pdfrwt beam="2">  1        1 0.42611620E-01 0.12499885E+03</pdfrwt>
<pdfrwt beam="1">  1       -1 0.21696880E-02 0.12499885E+03</pdfrwt>
<totfact> 0.53591186E+04</totfact>
</mgrwt>
</event>
<event>
 5    1  0.8303392E-059  0.1250000E+03  0.7818608E-02  0.1235069E+00
         -1   -1    0    0    0  501 -0.00000000000E+00  0.00000000000E+00  0.26453472936E+02  0.26453473349E+02  0.46700000000E-02 0.  1.
          1   -1    0    0  501    0  0.00000000000E+00 -0.00000000000E+00 -0.14766497404E+03  0.14766497411E+03  0.46700000000E-02 0. -1.
         25    2    1    2    0    0  0.00000000000E+00  0.00000000000E+00 -0.12121150110E+03  0.17411844746E+03  0.12500002299E+03 0.  0.
        -11    1    3    3    0    0  0.53268038416E+02  0.32616267291E+02 -0.57507694272E+02  0.84902530642E+02  0.51100000000E-03 0.  1.
         11    1    3    3    0    0 -0.53268038416E+02 -0.32616267291E+02 -0.63703806828E+02  0.89215916816E+02  0.51100000000E-03 0. -1.
<mgrwt>
<rscale>  0 0.12500002E+03</rscale>
<asrwt>0</asrwt>
<pdfrwt beam="2">  1        1 0.22717688E-01 0.12500002E+03</pdfrwt>
<pdfrwt beam="1">  1       -1 0.40697652E-02 0.12500002E+03</pdfrwt>
<totfact> 0.46909985E+04</totfact>
</mgrwt>
</event>
<event>
 5    1  0.8303392E-059  0.1249954E+03  0.7818608E-02  0.1235076E+00
          1   -1    0    0  501    0  0.00000000000E+00  0.00000000000E+00  0.51492221127E+03  0.51492221129E+03  0.46700000000E-02 0. -1.
         -1   -1    0    0    0  501 -0.00000000000E+00 -0.00000000000E+00 -0.75855434570E+01  0.75855448945E+01  0.46700000000E-02 0.  1.
         25    2    1    2    0    0  0.00000000000E+00  0.00000000000E+00  0.50733666782E+03  0.52250775619E+03  0.12499544298E+03 0.  0.
        -11    1    3    3    0    0 -0.41617906944E+02 -0.45738891977E+02  0.29149148470E+03  0.29797882823E+03  0.51100000000E-03 0.  1.
         11    1    3    3    0    0  0.41617906944E+02  0.45738891977E+02  0.21584518312E+03  0.22452892796E+03  0.51100000000E-03 0. -1.
<mgrwt>
<rscale>  0 0.12499544E+03</rscale>
<asrwt>0</asrwt>
<pdfrwt beam="1">  1        1 0.79218792E-01 0.12499544E+03</pdfrwt>
<pdfrwt beam="2">  1       -1 0.11670069E-02 0.12499544E+03</pdfrwt>
<totfact> 0.59786187E+04</totfact>
</mgrwt>
</event>
<event>
 5    1  0.8303392E-059  0.1250031E+03  0.7818608E-02  0.1235064E+00
         -1   -1    0    0    0  501 -0.00000000000E+00  0.00000000000E+00  0.69542427038E+02  0.69542427194E+02  0.46700000000E-02 0.  1.
          1   -1    0    0  501    0  0.00000000000E+00 -0.00000000000E+00 -0.56173512356E+02  0.56173512550E+02  0.46700000000E-02 0. -1.
         25    2    1    2    0    0  0.00000000000E+00  0.00000000000E+00  0.13368914681E+02  0.12571593974E+03  0.12500307847E+03 0.  0.
        -11    1    3    3    0    0 -0.41211761950E+02  0.45365723329E+02 -0.56321880162E+01  0.61548190211E+02  0.51100000000E-03 0.  1.
         11    1    3    3    0    0  0.41211761950E+02 -0.45365723329E+02  0.19001102698E+02  0.64167749533E+02  0.51100000000E-03 0. -1.
<mgrwt>
<rscale>  0 0.12500308E+03</rscale>
<asrwt>0</asrwt>
<pdfrwt beam="2">  1        1 0.86420788E-02 0.12500308E+03</pdfrwt>
<pdfrwt beam="1">  1       -1 0.10698835E-01 0.12500308E+03</pdfrwt>
<totfact> 0.38750045E+04</totfact>
</mgrwt>
</event>
<event>
 5    1  0.8303392E-059  0.1250009E+03  0.7818608E-02  0.1235068E+00
          1   -1    0    0  501    0  0.00000000000E+00  0.00000000000E+00  0.23440704887E+03  0.23440704892E+03  0.46700000000E-02 0. -1.
         -1   -1    0    0    0  501 -0.00000000000E+00 -0.00000000000E+00 -0.16664630577E+02  0.16664631231E+02  0.46700000000E-02 0.  1.
         25    2    1    2    0    0  0.00000000000E+00  0.00000000000E+00  0.21774241830E+03  0.25107168015E+03  0.12500091139E+03 0.  0.
        -11    1    3    3    0    0 -0.60679112466E+02  0.40970614033E+01  0.79933574172E+02  0.10043961809E+03  0.51100000000E-03 0.  1.
         11    1    3    3    0    0  0.60679112466E+02 -0.40970614033E+01  0.13780884412E+03  0.15063206206E+03  0.51100000000E-03 0. -1.
<mgrwt>
<rscale>  0 0.12500091E+03</rscale>
<asrwt>0</asrwt>
<pdfrwt beam="1">  1        1 0.36062623E-01 0.12500091E+03</pdfrwt>
<pdfrwt beam="2">  1       -1 0.25637894E-02 0.12500091E+03</pdfrwt>
<totfact> 0.51730369E+04</totfact>
</mgrwt>
</event>
<event>
 5    1  0.8303392E-059  0.1249967E+03  0.7818608E-02  0.1235074E+00
         -1   -1    0    0    0  501 -0.00000000000E+00  0.00000000000E+00  0.37486463039E+02  0.37486463329E+02  0.46700000000E-02 0.  1.
          1   -1    0    0  501    0  0.00000000000E+00 -0.00000000000E+00 -0.10419883842E+03  0.10419883853E+03  0.46700000000E-02 0. -1.
         25    2    1    2    0    0  0.00000000000E+00  0.00000000000E+00 -0.66712375383E+02  0.14168530186E+03  0.12499673489E+03 0.  0.
        -11    1    3    3    0    0  0.10495522861E+02  0.23977509566E+02 -0.97687054229E+02  0.10113277179E+03  0.51100000000E-03 0. -1.
         11    1    3    3    0    0 -0.10495522861E+02 -0.23977509566E+02  0.30974678846E+02  0.40552530069E+02  0.51100000000E-03 0.  1.
<mgrwt>
<rscale>  0 0.12499673E+03</rscale>
<asrwt>0</asrwt>
<pdfrwt beam="2">  1        1 0.16030590E-01 0.12499673E+03</pdfrwt>
<pdfrwt beam="1">  1       -1 0.57671482E-02 0.12499673E+03</pdfrwt>
<totfact> 0.43711963E+04</totfact>
</mgrwt>
</event>
<event>
 5    1  0.8303392E-059  0.1250003E+03  0.7818608E-02  0.1235069E+00
          1   -1    0    0  501    0  0.00000000000E+00  0.00000000000E+00  0.28305690804E+02  0.28305691189E+02  0.46700000000E-02 0. -1.
         -1   -1    0    0    0  501 -0.00000000000E+00 -0.00000000000E+00 -0.13800305159E+03  0.13800305167E+03  0.46700000000E-02 0.  1.
         25    2    1    2    0    0  0.00000000000E+00  0.00000000000E+00 -0.10969736079E+03  0.16630874286E+03  0.12500034795E+03 0.  0.
        -11    1    3    3    0    0  0.15207662039E+02  0.60270991695E+02 -0.63512694744E+02  0.88869161235E+02  0.51100000000E-03 0.  1.
         11    1    3    3    0    0 -0.15207662039E+02 -0.60270991695E+02 -0.46184666045E+02  0.77439581627E+02  0.51100000000E-03 0. -1.
<mgrwt>
<rscale>  0 0.12500035E+03</rscale>
<asrwt>0</asrwt>
<pdfrwt beam="1">  1        1 0.43547218E-02 0.12500035E+03</pdfrwt>
<pdfrwt beam="2">  1       -1 0.21231238E-01 0.12500035E+03</pdfrwt>
<totfact> 0.33477236E+04</totfact>
</mgrwt>
</event>
<event>
 5    1  0.8303392E-059  0.1249991E+03  0.7818608E-02  0.1235071E+00
         -1   -1    0    0    0  501 -0.00000000000E+00  0.00000000000E+00  0.37373262167E+02  0.37373262459E+02  0.46700000000E-02 0.  1.
          1   -1    0    0  501    0  0.00000000000E+00 -0.00000000000E+00 -0.10451840548E+03  0.10451840559E+03  0.46700000000E-02 0. -1.
         25    2    1    2    0    0  0.00000000000E+00  0.00000000000E+00 -0.67145143315E+02  0.14189166805E+03  0.12499910076E+03 0.  0.
        -11    1    3    3    0    0 -0.38002667809E+01 -0.38663510504E+02  0.22001674371E+02  0.44647315120E+02  0.51100000000E-03 0.  1.
         11    1    3    3    0    0  0.38002667809E+01  0.38663510504E+02 -0.89146817686E+02  0.97244352925E+02  0.51100000000E-03 0. -1.
<mgrwt>
<rscale>  0 0.12499910E+03</rscale>
<asrwt>0</asrwt>
<pdfrwt beam="2">  1        1 0.16079755E-01 0.12499910E+03</pdfrwt>
<pdfrwt beam="1">  1       -1 0.57497327E-02 0.12499910E+03</pdfrwt>
<totfact> 0.43736132E+04</totfact>
</mgrwt>
</event>
<event>
 5    1  0.8303392E-059  0.1249998E+03  0.7818608E-02  0.1235070E+00
          1   -1    0    0  501    0  0.00000000000E+00  0.00000000000E+00  0.15078232725E+02  0.15078233448E+02  0.46700000000E-02 0. -1.
         -1   -1    0    0    0  501 -0.00000000000E+00 -0.00000000000E+00 -0.25906476835E+03  0.25906476839E+03  0.46700000000E-02 0.  1.
         25    2    1    2    0    0  0.00000000000E+00  0.00000000000E+00 -0.24398653563E+03  0.27414300184E+03  0.12499982357E+03 0.  0.
        -11    1    3    3    0    0 -0.40318637885E+02 -0.47197682520E+02 -0.13796341156E+03  0.15128488598E+03  0.51100000000E-03 0. -1.
         11    1    3    3    0    0  0.40318637885E+02  0.47197682520E+02 -0.10602312407E+03  0.12285811587E+03  0.51100000000E-03 0.  1.
<mgrwt>
<rscale>  0 0.12499982E+03</rscale>
<asrwt>0</asrwt>
<pdfrwt beam="1">  1        1 0.23197284E-02 0.12499982E+03</pdfrwt>
<pdfrwt beam="2">  1       -1 0.39856115E-01 0.12499982E+03</pdfrwt>
<totfact> 0.27840277E+04</totfact>
</mgrwt>
</event>
<event>
 5    1  0.8303392E-059  0.1250055E+03  0.7818608E-02  0.1235061E+00
          1   -1    0    0  501    0  0.00000000000E+00  0.00000000000E+00  0.38669708774E+03  0.38669708777E+03  0.46700000000E-02 0. -1.
         -1   -1    0    0    0  501 -0.00000000000E+00 -0.00000000000E+00 -0.10102469648E+02  0.10102470728E+02  0.46700000000E-02 0.  1.
         25    2    1    2    0    0  0.00000000000E+00  0.00000000000E+00  0.37659461809E+03  0.39679955849E+03  0.12500553287E+03 0.  0.
        -11    1    3    3    0    0 -0.29802207412E+02 -0.54475968732E+02  0.21091999672E+03  0.21987052497E+03  0.51100000000E-03 0.  1.
         11    1    3    3    0    0  0.29802207412E+02  0.54475968732E+02  0.16567462137E+03  0.17692903352E+03  0.51100000000E-03 0. -1.
<mgrwt>
<rscale>  0 0.12500553E+03</rscale>
<asrwt>0</asrwt>
<pdfrwt beam="1">  1        1 0.59491854E-01 0.12500553E+03</pdfrwt>
<pdfrwt beam="2">  1       -1 0.15542263E-02 0.12500553E+03</pdfrwt>
<totfact> 0.57220780E+04</totfact>
</mgrwt>
</event>
<event>
 5    1  0.8303392E-059  0.1249997E+03  0.7818608E-02  0.1235070E+00
          1   -1    0    0  501    0  0.00000000000E+00  0.00000000000E+00  0.37804694649E+03  0.37804694652E+03  0.46700000000E-02 0. -1.
         -1   -1    0    0    0  501 -0.00000000000E+00 -0.00000000000E+00 -0.10332655330E+02  0.10332656385E+02  0.46700000000E-02 0.  1.
         25    2    1    2    0    0  0.00000000000E+00  0.00000000000E+00  0.36771429116E+03  0.38837960291E+03  0.12499966411E+03 0.  0.
        -11    1    3    3    0    0 -0.97894648199E+01 -0.59018040115E+02  0.24006515796E+03  0.24740703860E+03  0.51100000000E-03 0. -1.
         11    1    3    3    0    0  0.97894648199E+01  0.59018040115E+02  0.12764913320E+03  0.14097256431E+03  0.51100000000E-03 0.  1.
<mgrwt>
<rscale>  0 0.12499966E+03</rscale>
<asrwt>0</asrwt>
<pdfrwt beam="1">  1        1 0.58161070E-01 0.12499966E+03</pdfrwt>
<pdfrwt beam="2">  1       -1 0.15896393E-02 0.12499966E+03</pdfrwt>
<totfact> 0.56993620E+04</totfact>
</mgrwt>
</event>
<event>
 5    1  0.8303392E-059  0.1249982E+03  0.7818608E-02  0.1235072E+00
          1   -1    0    0  501    0  0.00000000000E+00  0.00000000000E+00  0.29752011990E+02  0.29752012357E+02  0.46700000000E-02 0. -1.
         -1   -1    0    0    0  501 -0.00000000000E+00 -0.00000000000E+00 -0.13128984946E+03  0.13128984954E+03  0.46700000000E-02 0.  1.
         25    2    1    2    0    0  0.00000000000E+00  0.00000000000E+00 -0.10153783747E+03  0.16104186190E+03  0.12499819537E+03 0.  0.
        -11    1    3    3    0    0 -0.18967983148E+02 -0.58898449126E+02 -0.62098046034E+02  0.87664012089E+02  0.51100000000E-03 0. -1.
         11    1    3    3    0    0  0.18967983148E+02  0.58898449126E+02 -0.39439791436E+02  0.73377849811E+02  0.51100000000E-03 0.  1.
<mgrwt>
<rscale>  0 0.12499820E+03</rscale>
<asrwt>0</asrwt>
<pdfrwt beam="1">  1        1 0.45772327E-02 0.12499820E+03</pdfrwt>
<pdfrwt beam="2">  1       -1 0.20198438E-01 0.12499820E+03</pdfrwt>
<totfact> 0.33880146E+04</totfact>
</mgrwt>
</event>
<event>
 5    1  0.8303392E-059  0.1249868E+03  0.7818608E-02  0.1235090E+00
          1   -1    0    0  501    0  0.00000000000E+00  0.00000000000E+00  0.60598709501E+03  0.60598709503E+03  0.46700000000E-02 0. -1.
         -1   -1    0    0    0  501 -0.00000000000E+00 -0.00000000000E+00 -0.64447318444E+01  0.64447335364E+01  0.46700000000E-02 0.  1.
         25    2    1    2    0    0  0.00000000000E+00  0.00000000000E+00  0.59954236317E+03  0.61243182857E+03  0.12498679694E+03 0.  0.
        -11    1    3    3    0    0 -0.50437704291E+02 -0.36689309319E+02  0.31897345896E+03  0.32501405347E+03  0.51100000000E-03 0.  1.
         11    1    3    3    0    0  0.50437704291E+02  0.36689309319E+02  0.28056890421E+03  0.28741777510E+03  0.51100000000E-03 0. -1.
<mgrwt>
<rscale>  0 0.12498680E+03</rscale>
<asrwt>0</asrwt>
<pdfrwt beam="1">  1        1 0.93228765E-01 0.12498680E+03</pdfrwt>
<pdfrwt beam="2">  1       -1 0.99149754E-03 0.12498680E+03</pdfrwt>
<totfact> 0.60694603E+04</totfact>
</mgrwt>
</event>
<event>
 5    1  0.8303392E-059  0.1249992E+03  0.7818608E-02  0.1235070E+00
          1   -1    0    0  501    0  0.00000000000E+00  0.00000000000E+00  0.18840807314E+03  0.18840807319E+03  0.46700000000E-02 0. -1.
         -1   -1    0    0    0  501 -0.00000000000E+00 -0.00000000000E+00 -0.20732670550E+02  0.20732671076E+02  0.46700000000E-02 0.  1.
         25    2    1    2    0    0  0.00000000000E+00  0.00000000000E+00  0.16767540259E+03  0.20914074427E+03  0.12499924112E+03 0.  0.
        -11    1    3    3    0    0 -0.53123117079E+02  0.11320395725E+02  0.32105976588E+02  0.63095250697E+02  0.51100000000E-03 0.  1.
         11    1    3    3    0    0  0.53123117079E+02 -0.11320395725E+02  0.13556942600E+03  0.14604549357E+03  0.51100000000E-03 0. -1.
<mgrwt>
<rscale>  0 0.12499924E+03</rscale>
<asrwt>0</asrwt>
<pdfrwt beam="1">  1        1 0.28985858E-01 0.12499924E+03</pdfrwt>
<pdfrwt beam="2">  1       -1 0.31896416E-02 0.12499924E+03</pdfrwt>
<totfact> 0.49376004E+04</totfact>
</mgrwt>
</event>
<event>
 5    1  0.8303392E-059  0.1250006E+03  0.7818608E-02  0.1235068E+00
         -1   -1    0    0    0  501 -0.00000000000E+00  0.00000000000E+00  0.75392924319E+02  0.75392924463E+02  0.46700000000E-02 0.  1.
          1   -1    0    0  501    0  0.00000000000E+00 -0.00000000000E+00 -0.51812358132E+02  0.51812358342E+02  0.46700000000E-02 0. -1.
         25    2    1    2    0    0  0.00000000000E+00  0.00000000000E+00  0.23580566187E+02  0.12720528281E+03  0.12500056349E+03 0.  0.
        -11    1    3    3    0    0  0.10169565424E+02 -0.59793852273E+02  0.27141454081E+02  0.66448351074E+02  0.51100000000E-03 0.  1.
         11    1    3    3    0    0 -0.10169565424E+02  0.59793852273E+02 -0.35608878937E+01  0.60756931731E+02  0.51100000000E-03 0. -1.
<mgrwt>
<rscale>  0 0.12500056E+03</rscale>
<asrwt>0</asrwt>
<pdfrwt beam="2">  1        1 0.79711321E-02 0.12500056E+03</pdfrwt>
<pdfrwt beam="1">  1       -1 0.11598911E-01 0.12500056E+03</pdfrwt>
<totfact> 0.38139940E+04</totfact>
</mgrwt>
</event>
<event>
 5    1  0.8303392E-059  0.1250012E+03  0.7818608E-02  0.1235067E+00
         -1   -1    0    0    0  501 -0.00000000000E+00  0.00000000000E+00  0.27376138378E+03  0.27376138382E+03  0.46700000000E-02 0.  1.
          1   -1    0    0  501    0  0.00000000000E+00 -0.00000000000E+00 -0.14269089009E+02  0.14269089773E+02  0.46700000000E-02 0. -1.
         25    2    1    2    0    0  0.00000000000E+00  0.00000000000E+00  0.25949229478E+03  0.28803047360E+03  0.12500121069E+03 0.  0.
        -11    1    3    3    0    0 -0.30091459134E+02 -0.54477817016E+02  0.14298233208E+03  0.15593997482E+03  0.51100000000E-03 0.  1.
         11    1    3    3    0    0  0.30091459134E+02  0.54477817016E+02  0.11650996270E+03  0.13209049878E+03  0.51100000000E-03 0. -1.
<mgrwt>
<rscale>  0 0.12500121E+03</rscale>
<asrwt>0</asrwt>
<pdfrwt beam="2">  1        1 0.21952444E-02 0.12500121E+03</pdfrwt>
<pdfrwt beam="1">  1       -1 0.42117138E-01 0.12500121E+03</pdfrwt>
<totfact> 0.27280404E+04</totfact>
</mgrwt>
</event>
<event>
 5    1  0.8303392E-059  0.1249990E+03  0.7818608E-02  0.1235071E+00
         -1   -1    0    0    0  501 -0.00000000000E+00  0.00000000000E+00  0.10356132554E+02  0.10356133607E+02  0.46700000000E-02 0.  1.
          1   -1    0    0  501    0  0.00000000000E+00 -0.00000000000E+00 -0.37718603763E+03  0.37718603766E+03  0.46700000000E-02 0. -1.
         25    2    1    2    0    0  0.00000000000E+00  0.00000000000E+00 -0.36682990508E+03  0.38754217127E+03  0.12499902100E+03 0.  0.
        -11    1    3    3    0    0  0.15304319499E+02 -0.58217361078E+02 -0.13128594280E+03  0.14442812089E+03  0.51100000000E-03 0.  1.
         11    1    3    3    0    0 -0.15304319499E+02  0.58217361078E+02 -0.23554396228E+03  0.24311405038E+03  0.51100000000E-03 0. -1.
<mgrwt>
<rscale>  0 0.12499902E+03</rscale>
<asrwt>0</asrwt>
<pdfrwt beam="2">  1        1 0.58028611E-01 0.12499902E+03</pdfrwt>
<pdfrwt beam="1">  1       -1 0.15932515E-02 0.12499902E+03</pdfrwt>
<totfact> 0.56970614E+04</totfact>
</mgrwt>
</event>
<event>
 5    1  0.8303392E-059  0.1250177E+03  0.7818608E-02  0.1235042E+00
         -1   -1    0    0    0  501 -0.00000000000E+00  0.00000000000E+00  0.25223525536E+03  0.25223525540E+03  0.46700000000E-02 0.  1.
          1   -1    0    0  501    0  0.00000000000E+00 -0.00000000000E+00 -0.15490923592E+02  0.15490924296E+02  0.46700000000E-02 0. -1.
         25    2    1    2    0    0  0.00000000000E+00  0.00000000000E+00  0.23674433176E+03  0.26772617970E+03  0.12501771343E+03 0.  0.
        -11    1    3    3    0    0  0.54574763955E+02  0.29976598925E+02  0.10657329899E+03  0.12342961315E+03  0.51100000000E-03 0.  1.
         11    1    3    3    0    0 -0.54574763955E+02 -0.29976598925E+02  0.13017103277E+03  0.14429656655E+03  0.51100000000E-03 0. -1.
<mgrwt>
<rscale>  0 0.12501771E+03</rscale>
<asrwt>0</asrwt>
<pdfrwt beam="2">  1        1 0.23832195E-02 0.12501771E+03</pdfrwt>
<pdfrwt beam="1">  1       -1 0.38805418E-01 0.12501771E+03</pdfrwt>
<totfact> 0.28095551E+04</totfact>
</mgrwt>
</event>
<event>
 5    1  0.1438431E-058  0.1250001E+03  0.7818608E-02  0.1235069E+00
          1   -1    0    0  501    0  0.00000000000E+00  0.00000000000E+00  0.42897249254E+02  0.42897249509E+02  0.46700000000E-02 0. -1.
         -1   -1    0    0    0  501 -0.00000000000E+00 -0.00000000000E+00 -0.91060775929E+02  0.91060776049E+02  0.46700000000E-02 0.  1.
         25    2    1    2    0    0  0.00000000000E+00  0.00000000000E+00 -0.48163526675E+02  0.13395802556E+03  0.12500010924E+03 0.  0.
        -11    1    3    3    0    0  0.53686903978E+02  0.31687204081E+02 -0.28861701785E+02  0.68697601060E+02  0.51100000000E-03 0.  1.
         11    1    3    3    0    0 -0.53686903978E+02 -0.31687204081E+02 -0.19301824890E+02  0.65260424498E+02  0.51100000000E-03 0. -1.
<mgrwt>
<rscale>  0 0.12500011E+03</rscale>
<asrwt>0</asrwt>
<pdfrwt beam="1">  1        1 0.65995769E-02 0.12500011E+03</pdfrwt>
<pdfrwt beam="2">  1       -1 0.14009350E-01 0.12500011E+03</pdfrwt>
<totfact> 0.36713154E+04</totfact>
</mgrwt>
</event>
<event>
 5    1  0.1034411E-058  0.1250018E+03  0.7818608E-02  0.1235067E+00
         -1   -1    0    0    0  501 -0.00000000000E+00  0.00000000000E+00  0.28107756419E+02  0.28107756807E+02  0.46700000000E-02 0. -1.
          1   -1    0    0  501    0  0.00000000000E+00 -0.00000000000E+00 -0.13897804263E+03  0.13897804271E+03  0.46700000000E-02 0.  1.
         25    2    1    2    0    0  0.00000000000E+00  0.00000000000E+00 -0.11087028621E+03  0.16708579952E+03  0.12500177613E+03 0.  0.
        -11    1    3    3    0    0 -0.31387774732E+02 -0.49397400427E+02 -0.26117744290E+02  0.64089251350E+02  0.51100000000E-03 0. -1.
         11    1    3    3    0    0  0.31387774732E+02  0.49397400427E+02 -0.84752541923E+02  0.10299654817E+03  0.51100000000E-03 0.  1.
<mgrwt>
<rscale>  0 0.12500178E+03</rscale>
<asrwt>0</asrwt>
<pdfrwt beam="2">  1        1 0.21381237E-01 0.12500178E+03</pdfrwt>
<pdfrwt beam="1">  1       -1 0.43242703E-02 0.12500178E+03</pdfrwt>
<totfact> 0.46324221E+04</totfact>
</mgrwt>
</event>
<event>
 5    1  0.8303392E-059  0.1250052E+03  0.7818608E-02  0.1235061E+00
          1   -1    0    0  501    0  0.00000000000E+00  0.00000000000E+00  0.85645384174E+02  0.85645384302E+02  0.46700000000E-02 0. -1.
         -1   -1    0    0    0  501 -0.00000000000E+00 -0.00000000000E+00 -0.45613341525E+02  0.45613341764E+02  0.46700000000E-02 0.  1.
         25    2    1    2    0    0  0.00000000000E+00  0.00000000000E+00  0.40032042650E+02  0.13125872607E+03  0.12500515481E+03 0.  0.
        -11    1    3    3    0    0 -0.12533617062E+02 -0.49951653359E+02 -0.17172012391E+02  0.54287542215E+02  0.51100000000E-03 0.  1.
         11    1    3    3    0    0  0.12533617062E+02  0.49951653359E+02  0.57204055041E+02  0.76971183850E+02  0.51100000000E-03 0. -1.
<mgrwt>
<rscale>  0 0.12500515E+03</rscale>
<asrwt>0</asrwt>
<pdfrwt beam="1">  1        1 0.13176213E-01 0.12500515E+03</pdfrwt>
<pdfrwt beam="2">  1       -1 0.70174372E-02 0.12500515E+03</pdfrwt>
<totfact> 0.42053268E+04</totfact>
</mgrwt>
</event>
<event>
 5    1  0.8303392E-059  0.1250012E+03  0.7818608E-02  0.1235067E+00
          1   -1    0    0  501    0  0.00000000000E+00  0.00000000000E+00  0.92576078905E+02  0.92576079022E+02  0.46700000000E-02 0.  1.
         -1   -1    0    0    0  501 -0.00000000000E+00 -0.00000000000E+00 -0.42195827617E+02  0.42195827875E+02  0.46700000000E-02 0. -1.
         25    2    1    2    0    0  0.00000000000E+00  0.00000000000E+00  0.50380251288E+02  0.13477190690E+03  0.12500118867E+03 0.  0.
        -11    1    3    3    0    0  0.25301816687E+02  0.42626425690E+02 -0.15852858859E+02  0.52043320696E+02  0.51100000000E-03 0. -1.
         11    1    3    3    0    0 -0.25301816687E+02 -0.42626425690E+02  0.66233110148E+02  0.82728586201E+02  0.51100000000E-03 0.  1.
<mgrwt>
<rscale>  0 0.12500119E+03</rscale>
<asrwt>0</asrwt>
<pdfrwt beam="1">  1        1 0.14242474E-01 0.12500119E+03</pdfrwt>
<pdfrwt beam="2">  1       -1 0.64916658E-02 0.12500119E+03</pdfrwt>
<totfact> 0.42701224E+04</totfact>
</mgrwt>
</event>
<event>
 5    1  0.8303392E-059  0.1250000E+03  0.7818608E-02  0.1235069E+00
          1   -1    0    0  501    0  0.00000000000E+00  0.00000000000E+00  0.89291323899E+01  0.89291336111E+01  0.46700000000E-02 0. -1.
         -1   -1    0    0    0  501 -0.00000000000E+00 -0.00000000000E+00 -0.43747267196E+03  0.43747267198E+03  0.46700000000E-02 0.  1.
         25    2    1    2    0    0  0.00000000000E+00  0.00000000000E+00 -0.42854353957E+03  0.44640180559E+03  0.12500002693E+03 0.  0.
        -11    1    3    3    0    0 -0.32758896192E+02 -0.53002846256E+02 -0.19684779967E+03  0.20647397712E+03  0.51100000000E-03 0.  1.
         11    1    3    3    0    0  0.32758896192E+02  0.53002846256E+02 -0.23169573989E+03  0.23992782847E+03  0.51100000000E-03 0. -1.
<mgrwt>
<rscale>  0 0.12500003E+03</rscale>
<asrwt>0</asrwt>
<pdfrwt beam="1">  1        1 0.13737131E-02 0.12500003E+03</pdfrwt>
<pdfrwt beam="2">  1       -1 0.67303471E-01 0.12500003E+03</pdfrwt>
<totfact> 0.22028374E+04</totfact>
</mgrwt>
</event>
<event>
 5    1  0.8303392E-059  0.1250035E+03  0.7818608E-02  0.1235064E+00
         -1   -1    0    0    0  501 -0.00000000000E+00  0.00000000000E+00  0.60053240016E+01  0.60053258174E+01  0.46700000000E-02 0. -1.
          1   -1    0    0  501    0  0.00000000000E+00 -0.00000000000E+00 -0.65050058304E+03  0.65050058306E+03  0.46700000000E-02 0.  1.
         25    2    1    2    0    0  0.00000000000E+00  0.00000000000E+00 -0.64449525904E+03  0.65650590888E+03  0.12500347781E+03 0.  0.
        -11    1    3    3    0    0 -0.47081854396E+02  0.41106584739E+02 -0.32289178366E+03  0.32888532390E+03  0.51100000000E-03 0. -1.
         11    1    3    3    0    0  0.47081854396E+02 -0.41106584739E+02 -0.32160347538E+03  0.32762058498E+03  0.51100000000E-03 0.  1.
<mgrwt>
<rscale>  0 0.12500348E+03</rscale>
<asrwt>0</asrwt>
<pdfrwt beam="2">  1        1 0.10007696E+00 0.12500348E+03</pdfrwt>
<pdfrwt beam="1">  1       -1 0.92389666E-03 0.12500348E+03</pdfrwt>
<totfact> 0.60874857E+04</totfact>
</mgrwt>
</event>
<event>
 5    1  0.8303392E-059  0.1250002E+03  0.7818608E-02  0.1235069E+00
          1   -1    0    0  501    0  0.00000000000E+00  0.00000000000E+00  0.17054968691E+03  0.17054968698E+03  0.46700000000E-02 0. -1.
         -1   -1    0    0    0  501 -0.00000000000E+00 -0.00000000000E+00 -0.22903963373E+02  0.22903963849E+02  0.46700000000E-02 0.  1.
         25    2    1    2    0    0  0.00000000000E+00  0.00000000000E+00  0.14764572354E+03  0.19345365083E+03  0.12500022135E+03 0.  0.
        -11    1    3    3    0    0  0.33225833676E+02 -0.34153755632E+02  0.13641720274E+03  0.14449944031E+03  0.51100000000E-03 0. -1.
         11    1    3    3    0    0 -0.33225833676E+02  0.34153755632E+02  0.11228520800E+02  0.48954210512E+02  0.51100000000E-03 0.  1.
<mgrwt>
<rscale>  0 0.12500022E+03</rscale>
<asrwt>0</asrwt>
<pdfrwt beam="1">  1        1 0.26238414E-01 0.12500022E+03</pdfrwt>
<pdfrwt beam="2">  1       -1 0.35236867E-02 0.12500022E+03</pdfrwt>
<totfact> 0.48343305E+04</totfact>
</mgrwt>
</event>
<event>
 5    1  0.8303392E-059  0.1250039E+03  0.7818608E-02  0.1235063E+00
         -1   -1    0    0    0  501 -0.00000000000E+00  0.00000000000E+00  0.33894643049E+03  0.33894643052E+03  0.46700000000E-02 0.  1.
          1   -1    0    0  501    0  0.00000000000E+00 -0.00000000000E+00 -0.11525395779E+02  0.11525396726E+02  0.46700000000E-02 0. -1.
         25    2    1    2    0    0  0.00000000000E+00  0.00000000000E+00  0.32742103471E+03  0.35047182725E+03  0.12500387083E+03 0.  0.
        -11    1    3    3    0    0 -0.60316908254E+02 -0.78292835304E+01  0.20405487639E+03  0.21292679418E+03  0.51100000000E-03 0.  1.
         11    1    3    3    0    0  0.60316908254E+02  0.78292835304E+01  0.12336615832E+03  0.13754503307E+03  0.51100000000E-03 0. -1.
<mgrwt>
<rscale>  0 0.12500387E+03</rscale>
<asrwt>0</asrwt>
<pdfrwt beam="2">  1        1 0.17731383E-02 0.12500387E+03</pdfrwt>
<pdfrwt beam="1">  1       -1 0.52145593E-01 0.12500387E+03</pdfrwt>
<totfact> 0.25000415E+04</totfact>
</mgrwt>
</event>
<event>
 5    1  0.8303392E-059  0.1250006E+03  0.7818608E-02  0.1235068E+00
          1   -1    0    0  501    0  0.00000000000E+00  0.00000000000E+00  0.51132234797E+02  0.51132235010E+02  0.46700000000E-02 0. -1.
         -1   -1    0    0    0  501 -0.00000000000E+00 -0.00000000000E+00 -0.76395798581E+02  0.76395798724E+02  0.46700000000E-02 0.  1.
         25    2    1    2    0    0  0.00000000000E+00  0.00000000000E+00 -0.25263563784E+02  0.12752803373E+03  0.12500060693E+03 0.  0.
        -11    1    3    3    0    0 -0.49438520062E+02 -0.35859531711E+02 -0.26174771678E+02  0.66446910787E+02  0.51100000000E-03 0.  1.
         11    1    3    3    0    0  0.49438520062E+02  0.35859531711E+02  0.91120789336E+00  0.61081122947E+02  0.51100000000E-03 0. -1.
<mgrwt>
<rscale>  0 0.12500061E+03</rscale>
<asrwt>0</asrwt>
<pdfrwt beam="1">  1        1 0.78664976E-02 0.12500061E+03</pdfrwt>
<pdfrwt beam="2">  1       -1 0.11753200E-01 0.12500061E+03</pdfrwt>
<totfact> 0.38040026E+04</totfact>
</mgrwt>
</event>
<event>
 5    1  0.8303392E-059  0.1250375E+03  0.7818608E-02  0.1235011E+00
         -1   -1    0    0    0  501 -0.00000000000E+00  0.00000000000E+00  0.16655006235E+03  0.16655006241E+03  0.46700000000E-02 0.  1.
          1   -1    0    0  501    0  0.00000000000E+00 -0.00000000000E+00 -0.23467976224E+02  0.23467976688E+02  0.46700000000E-02 0. -1.
         25    2    1    2    0    0  0.00000000000E+00  0.00000000000E+00  0.14308208612E+03  0.19001803910E+03  0.12503748164E+03 0.  0.
        -11    1    3    3    0    0 -0.43987697362E+02  0.44304330692E+02  0.76535646254E+02  0.98769916397E+02  0.51100000000E-03 0.  1.
         11    1    3    3    0    0  0.43987697362E+02 -0.44304330692E+02  0.66546439867E+02  0.91248122702E+02  0.51100000000E-03 0. -1.
<mgrwt>
<rscale>  0 0.12503748E+03</rscale>
<asrwt>0</asrwt>
<pdfrwt beam="2">  1        1 0.36104578E-02 0.12503748E+03</pdfrwt>
<pdfrwt beam="1">  1       -1 0.25623087E-01 0.12503748E+03</pdfrwt>
<totfact> 0.31890816E+04</totfact>
</mgrwt>
</event>
<event>
 5    1  0.8303392E-059  0.1250002E+03  0.7818608E-02  0.1235069E+00
          1   -1    0    0  501    0  0.00000000000E+00  0.00000000000E+00  0.11886082017E+03  0.11886082026E+03  0.46700000000E-02 0. -1.
         -1   -1    0    0    0  501 -0.00000000000E+00 -0.00000000000E+00 -0.32864158195E+02  0.32864158526E+02  0.46700000000E-02 0.  1.
         25    2    1    2    0    0  0.00000000000E+00  0.00000000000E+00  0.85996661975E+02  0.15172497879E+03  0.12500017327E+03 0.  0.
        -11    1    3    3    0    0 -0.51600446015E+02 -0.28616457109E+02  0.17982508223E+02  0.61683695161E+02  0.51100000000E-03 0.  1.
         11    1    3    3    0    0  0.51600446015E+02  0.28616457109E+02  0.68014153752E+02  0.90041283627E+02  0.51100000000E-03 0. -1.
<mgrwt>
<rscale>  0 0.12500017E+03</rscale>
<asrwt>0</asrwt>
<pdfrwt beam="1">  1        1 0.18286280E-01 0.12500017E+03</pdfrwt>
<pdfrwt beam="2">  1       -1 0.50560244E-02 0.12500017E+03</pdfrwt>
<totfact> 0.44872542E+04</totfact>
</mgrwt>
</event>
<event>
 5    1  0.8303392E-059  0.1249946E+03  0.7818608E-02  0.1235078E+00
          1   -1    0    0  501    0  0.00000000000E+00  0.00000000000E+00  0.26595044382E+02  0.26595044792E+02  0.46700000000E-02 0. -1.
         -1   -1    0    0    0  501 -0.00000000000E+00 -0.00000000000E+00 -0.14686622286E+03  0.14686622293E+03  0.46700000000E-02 0.  1.
         25    2    1    2    0    0  0.00000000000E+00  0.00000000000E+00 -0.12027117848E+03  0.17346126773E+03  0.12499462000E+03 0.  0.
        -11    1    3    3    0    0 -0.22457240144E+02 -0.95457671139E+01  0.19710869562E+02  0.31368259178E+02  0.51100000000E-03 0. -1.
         11    1    3    3    0    0  0.22457240144E+02  0.95457671139E+01 -0.13998204804E+03  0.14209300855E+03  0.51100000000E-03 0.  1.
<mgrwt>
<rscale>  0 0.12499462E+03</rscale>
<asrwt>0</asrwt>
<pdfrwt beam="1">  1        1 0.40915454E-02 0.12499462E+03</pdfrwt>
<pdfrwt beam="2">  1       -1 0.22594803E-01 0.12499462E+03</pdfrwt>
<totfact> 0.32973129E+04</totfact>
</mgrwt>
</event>
<event>
 5    1  0.8303392E-059  0.1250011E+03  0.7818608E-02  0.1235068E+00
          1   -1    0    0  501    0  0.00000000000E+00  0.00000000000E+00  0.30777556920E+03  0.30777556923E+03  0.46700000000E-02 0. -1.
         -1   -1    0    0    0  501 -0.00000000000E+00 -0.00000000000E+00 -0.12692099985E+02  0.12692100844E+02  0.46700000000E-02 0.  1.
         25    2    1    2    0    0  0.00000000000E+00  0.00000000000E+00  0.29508346921E+03  0.32046767008E+03  0.12500109505E+03 0.  0.
        -11    1    3    3    0    0 -0.52582181678E+02 -0.31749428011E+02  0.11793034498E+03  0.13296795958E+03  0.51100000000E-03 0.  1.
         11    1    3    3    0    0  0.52582181678E+02  0.31749428011E+02  0.17715312423E+03  0.18749971049E+03  0.51100000000E-03 0. -1.
<mgrwt>
<rscale>  0 0.12500110E+03</rscale>
<asrwt>0</asrwt>
<pdfrwt beam="1">  1        1 0.47350089E-01 0.12500110E+03</pdfrwt>
<pdfrwt beam="2">  1       -1 0.19526308E-02 0.12500110E+03</pdfrwt>
<totfact> 0.54768618E+04</totfact>
</mgrwt>
</event>
<event>
 5    1  0.8303392E-059  0.1249976E+03  0.7818608E-02  0.1235073E+00
         -1   -1    0    0    0  501 -0.00000000000E+00  0.00000000000E+00  0.52493739858E+02  0.52493740066E+02  0.46700000000E-02 0.  1.
          1   -1    0    0  501    0  0.00000000000E+00 -0.00000000000E+00 -0.74410799096E+02  0.74410799243E+02  0.46700000000E-02 0. -1.
         25    2    1    2    0    0  0.00000000000E+00  0.00000000000E+00 -0.21917059238E+02  0.12690453931E+03  0.12499761842E+03 0.  0.
        -11    1    3    3    0    0  0.50037685923E+02 -0.37200671636E+02 -0.15318360607E+02  0.64205234636E+02  0.51100000000E-03 0.  1.
         11    1    3    3    0    0 -0.50037685923E+02  0.37200671636E+02 -0.65986986305E+01  0.62699304673E+02  0.51100000000E-03 0. -1.
<mgrwt>
<rscale>  0 0.12499762E+03</rscale>
<asrwt>0</asrwt>
<pdfrwt beam="2">  1        1 0.11447815E-01 0.12499762E+03</pdfrwt>
<pdfrwt beam="1">  1       -1 0.80759600E-02 0.12499762E+03</pdfrwt>
<totfact> 0.40929488E+04</totfact>
</mgrwt>
</event>
<event>
 5    1  0.8303392E-059  0.1250064E+03  0.7818608E-02  0.1235059E+00
          1   -1    0    0  501    0  0.00000000000E+00  0.00000000000E+00  0.26606423002E+03  0.26606423006E+03  0.46700000000E-02 0.  1.
         -1   -1    0    0    0  501 -0.00000000000E+00 -0.00000000000E+00 -0.14683098888E+02  0.14683099631E+02  0.46700000000E-02 0. -1.
         25    2    1    2    0    0  0.00000000000E+00  0.00000000000E+00  0.25138113113E+03  0.28074732969E+03  0.12500636000E+03 0.  0.
        -11    1    3    3    0    0  0.14442189884E+02  0.60777500704E+02  0.12110654285E+03  0.13626913136E+03  0.51100000000E-03 0. -1.
         11    1    3    3    0    0 -0.14442189884E+02 -0.60777500704E+02  0.13027458828E+03  0.14447819833E+03  0.51100000000E-03 0.  1.
<mgrwt>
<rscale>  0 0.12500636E+03</rscale>
<asrwt>0</asrwt>
<pdfrwt beam="1">  1        1 0.40932953E-01 0.12500636E+03</pdfrwt>
<pdfrwt beam="2">  1       -1 0.22589387E-02 0.12500636E+03</pdfrwt>
<totfact> 0.53131053E+04</totfact>
</mgrwt>
</event>
<event>
 5    1  0.8303392E-059  0.1250024E+03  0.7818608E-02  0.1235066E+00
          1   -1    0    0  501    0  0.00000000000E+00  0.00000000000E+00  0.52980659068E+03  0.52980659070E+03  0.46700000000E-02 0.  1.
         -1   -1    0    0    0  501 -0.00000000000E+00 -0.00000000000E+00 -0.73732514102E+01  0.73732528891E+01  0.46700000000E-02 0. -1.
         25    2    1    2    0    0  0.00000000000E+00  0.00000000000E+00  0.52243333927E+03  0.53717984359E+03  0.12500236149E+03 0.  0.
        -11    1    3    3    0    0  0.48412205651E+02 -0.37258743756E+02  0.20445868582E+03  0.21339004159E+03  0.51100000000E-03 0. -1.
         11    1    3    3    0    0 -0.48412205651E+02  0.37258743756E+02  0.31797465344E+03  0.32378980199E+03  0.51100000000E-03 0.  1.
<mgrwt>
<rscale>  0 0.12500236E+03</rscale>
<asrwt>0</asrwt>
<pdfrwt beam="1">  1        1 0.81508726E-01 0.12500236E+03</pdfrwt>
<pdfrwt beam="2">  1       -1 0.11343462E-02 0.12500236E+03</pdfrwt>
<totfact> 0.59971329E+04</totfact>
</mgrwt>
</event>
<event>
 5    1  0.8303392E-059  0.1250008E+03  0.7818608E-02  0.1235068E+00
         -1   -1    0    0    0  501 -0.00000000000E+00  0.00000000000E+00  0.76703001531E+01  0.76703015747E+01  0.46700000000E-02 0.  1.
          1   -1    0    0  501    0  0.00000000000E+00 -0.00000000000E+00 -0.50927563921E+03  0.50927563923E+03  0.46700000000E-02 0. -1.
         25    2    1    2    0    0  0.00000000000E+00  0.00000000000E+00 -0.50160533906E+03  0.51694594081E+03  0.12500075818E+03 0.  0.
        -11    1    3    3    0    0  0.57984474168E+02 -0.10299547719E+02 -0.33735488575E+03  0.34245671094E+03  0.51100000000E-03 0.  1.
         11    1    3    3    0    0 -0.57984474168E+02  0.10299547719E+02 -0.16425045331E+03  0.17448922987E+03  0.51100000000E-03 0. -1.
<mgrwt>
<rscale>  0 0.12500076E+03</rscale>
<asrwt>0</asrwt>
<pdfrwt beam="2">  1        1 0.78350072E-01 0.12500076E+03</pdfrwt>
<pdfrwt beam="1">  1       -1 0.11800467E-02 0.12500076E+03</pdfrwt>
<totfact> 0.59700430E+04</totfact>
</mgrwt>
</event>
<event>
 5    1  0.8303392E-059  0.1250038E+03  0.7818608E-02  0.1235063E+00
         -1   -1    0    0    0  501 -0.00000000000E+00  0.00000000000E+00  0.11688956967E+02  0.11688957900E+02  0.46700000000E-02 0.  1.
          1   -1    0    0  501    0  0.00000000000E+00 -0.00000000000E+00 -0.33420299699E+03  0.33420299703E+03  0.46700000000E-02 0. -1.
         25    2    1    2    0    0  0.00000000000E+00  0.00000000000E+00 -0.32251404003E+03  0.34589195493E+03  0.12500375382E+03 0.  0.
        -11    1    3    3    0    0 -0.52195762670E+02 -0.29798784939E+02 -0.11380231959E+03  0.12869861370E+03  0.51100000000E-03 0.  1.
         11    1    3    3    0    0  0.52195762670E+02  0.29798784939E+02 -0.20871172043E+03  0.21719334122E+03  0.51100000000E-03 0. -1.
<mgrwt>
<rscale>  0 0.12500375E+03</rscale>
<asrwt>0</asrwt>
<pdfrwt beam="2">  1        1 0.51415838E-01 0.12500375E+03</pdfrwt>
<pdfrwt beam="1">  1       -1 0.17983014E-02 0.12500375E+03</pdfrwt>
<totfact> 0.55673616E+04</totfact>
</mgrwt>
</event>
<event>
 5    1  0.8303392E-059  0.1249977E+03  0.7818608E-02  0.1235073E+00
          1   -1    0    0  501    0  0.00000000000E+00  0.00000000000E+00  0.33555434277E+03  0.33555434280E+03  0.46700000000E-02 0. -1.
         -1   -1    0    0    0  501 -0.00000000000E+00 -0.00000000000E+00 -0.11640758090E+02  0.11640759027E+02  0.46700000000E-02 0.  1.
         25    2    1    2    0    0  0.00000000000E+00  0.00000000000E+00  0.32391358468E+03  0.34719510183E+03  0.12499771355E+03 0.  0.
        -11    1    3    3    0    0  0.48181318662E+02 -0.39737353714E+02  0.16853589247E+03  0.17973548286E+03  0.51100000000E-03 0.  1.
         11    1    3    3    0    0 -0.48181318662E+02  0.39737353714E+02  0.15537769221E+03  0.16745961897E+03  0.51100000000E-03 0. -1.
<mgrwt>
<rscale>  0 0.12499771E+03</rscale>
<asrwt>0</asrwt>
<pdfrwt beam="1">  1        1 0.51623734E-01 0.12499771E+03</pdfrwt>
<pdfrwt beam="2">  1       -1 0.17908863E-02 0.12499771E+03</pdfrwt>
<totfact> 0.55725019E+04</totfact>
</mgrwt>
</event>
<event>
 5    1  0.8303392E-059  0.1249965E+03  0.7818608E-02  0.1235075E+00
          1   -1    0    0  501    0  0.00000000000E+00  0.00000000000E+00  0.29432535692E+02  0.29432536062E+02  0.46700000000E-02 0. -1.
         -1   -1    0    0    0  501 -0.00000000000E+00 -0.00000000000E+00 -0.13271123682E+03  0.13271123690E+03  0.46700000000E-02 0.  1.
         25    2    1    2    0    0  0.00000000000E+00  0.00000000000E+00 -0.10327870113E+03  0.16214377297E+03  0.12499645197E+03 0.  0.
        -11    1    3    3    0    0  0.47313495682E+02  0.40541047824E+02 -0.57978975459E+02  0.85109958453E+02  0.51100000000E-03 0.  1.
         11    1    3    3    0    0 -0.47313495682E+02 -0.40541047824E+02 -0.45299725672E+02  0.77033814514E+02  0.51100000000E-03 0. -1.
<mgrwt>
<rscale>  0 0.12499645E+03</rscale>
<asrwt>0</asrwt>
<pdfrwt beam="1">  1        1 0.45280825E-02 0.12499645E+03</pdfrwt>
<pdfrwt beam="2">  1       -1 0.20417113E-01 0.12499645E+03</pdfrwt>
<totfact> 0.33795095E+04</totfact>
</mgrwt>
</event>
<event>
 5    1  0.8303392E-059  0.1249802E+03  0.7818608E-02  0.1235100E+00
          1   -1    0    0  501    0  0.00000000000E+00  0.00000000000E+00  0.56466293176E+03  0.56466293178E+03  0.46700000000E-02 0. -1.
         -1   -1    0    0    0  501 -0.00000000000E+00 -0.00000000000E+00 -0.69156549336E+01  0.69156565103E+01  0.46700000000E-02 0.  1.
         25    2    1    2    0    0  0.00000000000E+00  0.00000000000E+00  0.55774727682E+03  0.57157858829E+03  0.12498022957E+03 0.  0.
        -11    1    3    3    0    0  0.36433836168E+02 -0.48336951403E+02  0.34989017644E+03  0.35508734258E+03  0.51100000000E-03 0. -1.
         11    1    3    3    0    0 -0.36433836168E+02  0.48336951403E+02  0.20785710038E+03  0.21649124571E+03  0.51100000000E-03 0.  1.
<mgrwt>
<rscale>  0 0.12498023E+03</rscale>
<asrwt>0</asrwt>
<pdfrwt beam="1">  1        1 0.86871214E-01 0.12498023E+03</pdfrwt>
<pdfrwt beam="2">  1       -1 0.10639471E-02 0.12498023E+03</pdfrwt>
<totfact> 0.60380599E+04</totfact>
</mgrwt>
</event>
<event>
 5    1  0.8303392E-059  0.1250005E+03  0.7818608E-02  0.1235068E+00
         -1   -1    0    0    0  501 -0.00000000000E+00  0.00000000000E+00  0.17790508722E+02  0.17790509335E+02  0.46700000000E-02 0.  1.
          1   -1    0    0  501    0  0.00000000000E+00 -0.00000000000E+00 -0.21957117694E+03  0.21957117699E+03  0.46700000000E-02 0. -1.
         25    2    1    2    0    0  0.00000000000E+00  0.00000000000E+00 -0.20178066822E+03  0.23736168632E+03  0.12500052827E+03 0.  0.
        -11    1    3    3    0    0 -0.38763030369E+02  0.61013477387E+01 -0.85161615756E+01  0.40153754194E+02  0.51100000000E-03 0.  1.
         11    1    3    3    0    0  0.38763030369E+02 -0.61013477387E+01 -0.19326450664E+03  0.19720793213E+03  0.51100000000E-03 0. -1.
<mgrwt>
<rscale>  0 0.12500053E+03</rscale>
<asrwt>0</asrwt>
<pdfrwt beam="2">  1        1 0.33780179E-01 0.12500053E+03</pdfrwt>
<pdfrwt beam="1">  1       -1 0.27370016E-02 0.12500053E+03</pdfrwt>
<totfact> 0.51015021E+04</totfact>
</mgrwt>
</event>
<event>
 5    1  0.8303392E-059  0.1250020E+03  0.7818608E-02  0.1235066E+00
          1   -1    0    0  501    0  0.00000000000E+00  0.00000000000E+00  0.80384692607E+01  0.80384706172E+01  0.46700000000E-02 0. -1.
         -1   -1    0    0    0  501 -0.00000000000E+00 -0.00000000000E+00 -0.48596018745E+03  0.48596018748E+03  0.46700000000E-02 0.  1.
         25    2    1    2    0    0  0.00000000000E+00  0.00000000000E+00 -0.47792171819E+03  0.49399865809E+03  0.12500202189E+03 0.  0.
        -11    1    3    3    0    0  0.85630029524E+01  0.60429491480E+02 -0.29217671582E+03  0.29848330226E+03  0.51100000000E-03 0.  1.
         11    1    3    3    0    0 -0.85630029524E+01 -0.60429491480E+02 -0.18574500238E+03  0.19551535584E+03  0.51100000000E-03 0. -1.
<mgrwt>
<rscale>  0 0.12500202E+03</rscale>
<asrwt>0</asrwt>
<pdfrwt beam="1">  1        1 0.12366881E-02 0.12500202E+03</pdfrwt>
<pdfrwt beam="2">  1       -1 0.74763083E-01 0.12500202E+03</pdfrwt>
<totfact> 0.20725373E+04</totfact>
</mgrwt>
</event>
<event>
 5    1  0.8303392E-059  0.1249998E+03  0.7818608E-02  0.1235070E+00
          1   -1    0    0  501    0  0.00000000000E+00  0.00000000000E+00  0.31721186268E+02  0.31721186612E+02  0.46700000000E-02 0. -1.
         -1   -1    0    0    0  501 -0.00000000000E+00 -0.00000000000E+00 -0.12314280054E+03  0.12314280063E+03  0.46700000000E-02 0.  1.
         25    2    1    2    0    0  0.00000000000E+00  0.00000000000E+00 -0.91421614273E+02  0.15486398724E+03  0.12499977195E+03 0.  0.
        -11    1    3    3    0    0 -0.19906534846E+02  0.43292115645E+02 -0.95818082446E+02  0.10701206628E+03  0.51100000000E-03 0.  1.
         11    1    3    3    0    0  0.19906534846E+02 -0.43292115645E+02  0.43964681730E+01  0.47851920957E+02  0.51100000000E-03 0. -1.
<mgrwt>
<rscale>  0 0.12499977E+03</rscale>
<asrwt>0</asrwt>
<pdfrwt beam="1">  1        1 0.48801826E-02 0.12499977E+03</pdfrwt>
<pdfrwt beam="2">  1       -1 0.18945046E-01 0.12499977E+03</pdfrwt>
<totfact> 0.34388190E+04</totfact>
</mgrwt>
</event>
<event>
 5    1  0.8303392E-059  0.1250004E+03  0.7818608E-02  0.1235069E+00
          1   -1    0    0  501    0  0.00000000000E+00  0.00000000000E+00  0.18966712990E+03  0.18966712996E+03  0.46700000000E-02 0. -1.
         -1   -1    0    0    0  501 -0.00000000000E+00 -0.00000000000E+00 -0.20595429575E+02  0.20595430104E+02  0.46700000000E-02 0.  1.
         25    2    1    2    0    0  0.00000000000E+00  0.00000000000E+00  0.16907170033E+03  0.21026256006E+03  0.12500041725E+03 0.  0.
        -11    1    3    3    0    0  0.15807972738E+02 -0.53230096544E+02  0.36281684795E+02  0.66330203015E+02  0.51100000000E-03 0.  1.
         11    1    3    3    0    0 -0.15807972738E+02  0.53230096544E+02  0.13279001553E+03  0.14393235705E+03  0.51100000000E-03 0. -1.
<mgrwt>
<rscale>  0 0.12500042E+03</rscale>
<asrwt>0</asrwt>
<pdfrwt beam="1">  1        1 0.29179559E-01 0.12500042E+03</pdfrwt>
<pdfrwt beam="2">  1       -1 0.31685276E-02 0.12500042E+03</pdfrwt>
<totfact> 0.49444871E+04</totfact>
</mgrwt>
</event>
<event>
 5    1  0.8303392E-059  0.1250009E+03  0.7818608E-02  0.1235068E+00
          1   -1    0    0  501    0  0.00000000000E+00  0.00000000000E+00  0.38139374466E+03  0.38139374469E+03  0.46700000000E-02 0. -1.
         -1   -1    0    0    0  501 -0.00000000000E+00 -0.00000000000E+00 -0.10242180287E+02  0.10242181352E+02  0.46700000000E-02 0.  1.
         25    2    1    2    0    0  0.00000000000E+00  0.00000000000E+00  0.37115156437E+03  0.39163592604E+03  0.12500085931E+03 0.  0.
        -11    1    3    3    0    0 -0.48101123967E+02 -0.39449946176E+02  0.20444904614E+03  0.21370406839E+03  0.51100000000E-03 0.  1.
         11    1    3    3    0    0  0.48101123967E+02  0.39449946176E+02  0.16670251823E+03  0.17793185765E+03  0.51100000000E-03 0. -1.
<mgrwt>
<rscale>  0 0.12500086E+03</rscale>
<asrwt>0</asrwt>
<pdfrwt beam="1">  1        1 0.58675955E-01 0.12500086E+03</pdfrwt>
<pdfrwt beam="2">  1       -1 0.15757203E-02 0.12500086E+03</pdfrwt>
<totfact> 0.57083873E+04</totfact>
</mgrwt>
</event>
<event>
 5    1  0.8303392E-059  0.1249964E+03  0.7818608E-02  0.1235075E+00
         -1   -1    0    0    0  501 -0.00000000000E+00  0.00000000000E+00  0.34206586876E+02  0.34206587195E+02  0.46700000000E-02 0.  1.
          1   -1    0    0  501    0  0.00000000000E+00 -0.00000000000E+00 -0.11418923615E+03  0.11418923625E+03  0.46700000000E-02 0. -1.
         25    2    1    2    0    0  0.00000000000E+00  0.00000000000E+00 -0.79982649276E+02  0.14839582344E+03  0.12499638487E+03 0.  0.
        -11    1    3    3    0    0  0.34118249323E+02  0.48594633699E+02 -0.16832363540E+02  0.61715652988E+02  0.51100000000E-03 0.  1.
         11    1    3    3    0    0 -0.34118249323E+02 -0.48594633699E+02 -0.63150285737E+02  0.86680170455E+02  0.51100000000E-03 0. -1.
<mgrwt>
<rscale>  0 0.12499638E+03</rscale>
<asrwt>0</asrwt>
<pdfrwt beam="2">  1        1 0.17567575E-01 0.12499638E+03</pdfrwt>
<pdfrwt beam="1">  1       -1 0.52625519E-02 0.12499638E+03</pdfrwt>
<totfact> 0.44516579E+04</totfact>
</mgrwt>
</event>
<event>
 5    1  0.8303392E-059  0.1249966E+03  0.7818608E-02  0.1235075E+00
         -1   -1    0    0    0  501 -0.00000000000E+00  0.00000000000E+00  0.86146415789E+02  0.86146415916E+02  0.46700000000E-02 0.  1.
          1   -1    0    0  501    0  0.00000000000E+00 -0.00000000000E+00 -0.45341879199E+02  0.45341879439E+02  0.46700000000E-02 0. -1.
         25    2    1    2    0    0  0.00000000000E+00  0.00000000000E+00  0.40804536590E+02  0.13148829536E+03  0.12499664639E+03 0.  0.
        -11    1    3    3    0    0 -0.72415560519E+00  0.47480921649E+02  0.63146010289E+02  0.79008739628E+02  0.51100000000E-03 0. -1.
         11    1    3    3    0    0  0.72415560519E+00 -0.47480921649E+02 -0.22341473699E+02  0.52479555727E+02  0.51100000000E-03 0.  1.
<mgrwt>
<rscale>  0 0.12499665E+03</rscale>
<asrwt>0</asrwt>
<pdfrwt beam="2">  1        1 0.69756738E-02 0.12499665E+03</pdfrwt>
<pdfrwt beam="1">  1       -1 0.13253295E-01 0.12499665E+03</pdfrwt>
<totfact> 0.37135853E+04</totfact>
</mgrwt>
</event>
<event>
 5    1  0.8303392E-059  0.1249999E+03  0.7818608E-02  0.1235069E+00
         -1   -1    0    0    0  501 -0.00000000000E+00  0.00000000000E+00  0.74754974298E+02  0.74754974444E+02  0.46700000000E-02 0.  1.
          1   -1    0    0  501    0  0.00000000000E+00 -0.00000000000E+00 -0.52253938513E+02  0.52253938722E+02  0.46700000000E-02 0. -1.
         25    2    1    2    0    0  0.00000000000E+00  0.00000000000E+00  0.22501035786E+02  0.12700891317E+03  0.12499986965E+03 0.  0.
        -11    1    3    3    0    0  0.30751644569E+02 -0.52285862154E+02  0.26551327184E+02  0.66215164429E+02  0.51100000000E-03 0.  1.
         11    1    3    3    0    0 -0.30751644569E+02  0.52285862154E+02 -0.40502913988E+01  0.60793748737E+02  0.51100000000E-03 0. -1.
<mgrwt>
<rscale>  0 0.12499987E+03</rscale>
<asrwt>0</asrwt>
<pdfrwt beam="2">  1        1 0.80390675E-02 0.12499987E+03</pdfrwt>
<pdfrwt beam="1">  1       -1 0.11500765E-01 0.12499987E+03</pdfrwt>
<totfact> 0.38204739E+04</totfact>
</mgrwt>
</event>
<event>
 5    1  0.8303392E-059  0.1250040E+03  0.7818608E-02  0.1235063E+00
          1   -1    0    0  501    0  0.00000000000E+00  0.00000000000E+00  0.12931748683E+03  0.12931748691E+03  0.46700000000E-02 0. -1.
         -1   -1    0    0    0  501 -0.00000000000E+00 -0.00000000000E+00 -0.30208590127E+02  0.30208590488E+02  0.46700000000E-02 0.  1.
         25    2    1    2    0    0  0.00000000000E+00  0.00000000000E+00  0.99108896702E+02  0.15952607740E+03  0.12500398380E+03 0.  0.
        -11    1    3    3    0    0  0.36026359423E+02 -0.17731703436E+02 -0.11571027109E+02  0.41787564522E+02  0.51100000000E-03 0.  1.
         11    1    3    3    0    0 -0.36026359423E+02  0.17731703436E+02  0.11067992381E+03  0.11773851288E+03  0.51100000000E-03 0. -1.
<mgrwt>
<rscale>  0 0.12500398E+03</rscale>
<asrwt>0</asrwt>
<pdfrwt beam="1">  1        1 0.19894998E-01 0.12500398E+03</pdfrwt>
<pdfrwt beam="2">  1       -1 0.46474755E-02 0.12500398E+03</pdfrwt>
<totfact> 0.45642585E+04</totfact>
</mgrwt>
</event>
<event>
 5    1  0.8303392E-059  0.1249997E+03  0.7818608E-02  0.1235070E+00
          1   -1    0    0  501    0  0.00000000000E+00  0.00000000000E+00  0.20528724713E+03  0.20528724718E+03  0.46700000000E-02 0. -1.
         -1   -1    0    0    0  501 -0.00000000000E+00 -0.00000000000E+00 -0.19028132970E+02  0.19028133543E+02  0.46700000000E-02 0.  1.
         25    2    1    2    0    0  0.00000000000E+00  0.00000000000E+00  0.18625911416E+03  0.22431538072E+03  0.12499972969E+03 0.  0.
        -11    1    3    3    0    0  0.28183491354E+02 -0.54982614179E+02  0.76215623537E+02  0.98113293280E+02  0.51100000000E-03 0. -1.
         11    1    3    3    0    0 -0.28183491354E+02  0.54982614179E+02  0.11004349062E+03  0.12620208744E+03  0.51100000000E-03 0.  1.
<mgrwt>
<rscale>  0 0.12499973E+03</rscale>
<asrwt>0</asrwt>
<pdfrwt beam="1">  1        1 0.31582654E-01 0.12499973E+03</pdfrwt>
<pdfrwt beam="2">  1       -1 0.29274051E-02 0.12499973E+03</pdfrwt>
<totfact> 0.50288439E+04</totfact>
</mgrwt>
</event>
<event>
 5    1  0.8303392E-059  0.1249685E+03  0.7818608E-02  0.1235119E+00
         -1   -1    0    0    0  501 -0.00000000000E+00  0.00000000000E+00  0.11168862564E+02  0.11168863541E+02  0.46700000000E-02 0.  1.
          1   -1    0    0  501    0  0.00000000000E+00 -0.00000000000E+00 -0.34956826632E+03  0.34956826635E+03  0.46700000000E-02 0. -1.
         25    2    1    2    0    0  0.00000000000E+00  0.00000000000E+00 -0.33839940376E+03  0.36073712989E+03  0.12496847771E+03 0.  0.
        -11    1    3    3    0    0 -0.44582299835E+02  0.39570909267E+02 -0.11513099006E+03  0.12964792012E+03  0.51100000000E-03 0.  1.
         11    1    3    3    0    0  0.44582299835E+02 -0.39570909267E+02 -0.22326841370E+03  0.23108920977E+03  0.51100000000E-03 0. -1.
<mgrwt>
<rscale>  0 0.12496848E+03</rscale>
<asrwt>0</asrwt>
<pdfrwt beam="2">  1        1 0.53779725E-01 0.12496848E+03</pdfrwt>
<pdfrwt beam="1">  1       -1 0.17182869E-02 0.12496848E+03</pdfrwt>
<totfact> 0.56203971E+04</totfact>
</mgrwt>
</event>
<event>
 5    1  0.8303392E-059  0.1250028E+03  0.7818608E-02  0.1235065E+00
          1   -1    0    0  501    0  0.00000000000E+00  0.00000000000E+00  0.21885539889E+03  0.21885539894E+03  0.46700000000E-02 0. -1.
         -1   -1    0    0    0  501 -0.00000000000E+00 -0.00000000000E+00 -0.17849347282E+02  0.17849347893E+02  0.46700000000E-02 0.  1.
         25    2    1    2    0    0  0.00000000000E+00  0.00000000000E+00  0.20100605160E+03  0.23670474683E+03  0.12500281753E+03 0.  0.
        -11    1    3    3    0    0  0.53892347150E+01  0.61742163185E+02  0.11580340836E+03  0.13134522433E+03  0.51100000000E-03 0. -1.
         11    1    3    3    0    0 -0.53892347150E+01 -0.61742163185E+02  0.85202643242E+02  0.10535952250E+03  0.51100000000E-03 0.  1.
<mgrwt>
<rscale>  0 0.12500282E+03</rscale>
<asrwt>0</asrwt>
<pdfrwt beam="1">  1        1 0.33670061E-01 0.12500282E+03</pdfrwt>
<pdfrwt beam="2">  1       -1 0.27460535E-02 0.12500282E+03</pdfrwt>
<totfact> 0.50976894E+04</totfact>
</mgrwt>
</event>
<event>
 4    1  0.8303392E-059  0.1250997E+03  0.7818608E-02  0.1234914E+00
          1   -1    0    0  501    0  0.00000000000E+00  0.00000000000E+00  0.58256587837E+02  0.58256588024E+02  0.46700000000E-02 0. -1.
         -1   -1    0    0    0  501 -0.00000000000E+00 -0.00000000000E+00 -0.67159475380E+02  0.67159475542E+02  0.46700000000E-02 0.  1.
        -11    1    1    2    0    0  0.48997840003E+02 -0.37970807552E+02 -0.12833891118E+02  0.63303075065E+02  0.51100000000E-03 0.  1.
         11    1    1    2    0    0 -0.48997840003E+02  0.37970807552E+02  0.39310035751E+01  0.62112988501E+02  0.51100000000E-03 0. -1.
<mgrwt>
<rscale>  0 0.12509967E+03</rscale>
<asrwt>0</asrwt>
<pdfrwt beam="1">  1        1 0.89625520E-02 0.12509967E+03</pdfrwt>
<pdfrwt beam="2">  1       -1 0.10332227E-01 0.12509967E+03</pdfrwt>
<totfact> 0.38938991E+04</totfact>
</mgrwt>
</event>
<event>
 5    1  0.8303392E-059  0.1250021E+03  0.7818608E-02  0.1235066E+00
         -1   -1    0    0    0  501 -0.00000000000E+00  0.00000000000E+00  0.52915881098E+02  0.52915881304E+02  0.46700000000E-02 0.  1.
          1   -1    0    0  501    0  0.00000000000E+00 -0.00000000000E+00 -0.73822523824E+02  0.73822523972E+02  0.46700000000E-02 0. -1.
         25    2    1    2    0    0  0.00000000000E+00  0.00000000000E+00 -0.20906642727E+02  0.12673840528E+03  0.12500214263E+03 0.  0.
        -11    1    3    3    0    0  0.60867743189E+02  0.14156218736E+02 -0.11518255845E+02  0.63544873183E+02  0.51100000000E-03 0.  1.
         11    1    3    3    0    0 -0.60867743189E+02 -0.14156218736E+02 -0.93883868812E+01  0.63193532093E+02  0.51100000000E-03 0. -1.
<mgrwt>
<rscale>  0 0.12500214E+03</rscale>
<asrwt>0</asrwt>
<pdfrwt beam="2">  1        1 0.11357311E-01 0.12500214E+03</pdfrwt>
<pdfrwt beam="1">  1       -1 0.81409048E-02 0.12500214E+03</pdfrwt>
<totfact> 0.40862453E+04</totfact>
</mgrwt>
</event>
<event>
 5    1  0.8378895E-059  0.1250015E+03  0.7818608E-02  0.1235067E+00
          1   -1    0    0  501    0  0.00000000000E+00  0.00000000000E+00  0.19554603411E+03  0.19554603416E+03  0.46700000000E-02 0. -1.
         -1   -1    0    0    0  501 -0.00000000000E+00 -0.00000000000E+00 -0.19976583553E+02  0.19976584099E+02  0.46700000000E-02 0.  1.
         25    2    1    2    0    0  0.00000000000E+00  0.00000000000E+00  0.17556945055E+03  0.21552261826E+03  0.12500146805E+03 0.  0.
        -11    1    3    3    0    0  0.53706655682E+02  0.29339118057E+02  0.10967226729E+03  0.12559138078E+03  0.51100000000E-03 0.  1.
         11    1    3    3    0    0 -0.53706655682E+02 -0.29339118057E+02  0.65897183262E+02  0.89931237482E+02  0.51100000000E-03 0. -1.
<mgrwt>
<rscale>  0 0.12500147E+03</rscale>
<asrwt>0</asrwt>
<pdfrwt beam="1">  1        1 0.30084006E-01 0.12500147E+03</pdfrwt>
<pdfrwt beam="2">  1       -1 0.30733206E-02 0.12500147E+03</pdfrwt>
<totfact> 0.49766838E+04</totfact>
</mgrwt>
</event>
<event>
 5    1  0.8303392E-059  0.1249975E+03  0.7818608E-02  0.1235073E+00
         -1   -1    0    0    0  501 -0.00000000000E+00  0.00000000000E+00  0.22258930674E+02  0.22258931164E+02  0.46700000000E-02 0.  1.
          1   -1    0    0  501    0  0.00000000000E+00 -0.00000000000E+00 -0.17548424936E+03  0.17548424943E+03  0.46700000000E-02 0. -1.
         25    2    1    2    0    0  0.00000000000E+00  0.00000000000E+00 -0.15322531869E+03  0.19774318059E+03  0.12499746870E+03 0.  0.
        -11    1    3    3    0    0 -0.80840927831E+01 -0.61715948273E+02 -0.67680302863E+02  0.91950172502E+02  0.51100000000E-03 0. -1.
         11    1    3    3    0    0  0.80840927831E+01  0.61715948273E+02 -0.85545015828E+02  0.10579300809E+03  0.51100000000E-03 0.  1.
<mgrwt>
<rscale>  0 0.12499747E+03</rscale>
<asrwt>0</asrwt>
<pdfrwt beam="2">  1        1 0.26997576E-01 0.12499747E+03</pdfrwt>
<pdfrwt beam="1">  1       -1 0.34244510E-02 0.12499747E+03</pdfrwt>
<totfact> 0.48637760E+04</totfact>
</mgrwt>
</event>
<event>
 5    1  0.8303392E-059  0.1250000E+03  0.7818608E-02  0.1235069E+00
          1   -1    0    0  501    0  0.00000000000E+00  0.00000000000E+00  0.99100690223E+01  0.99100701227E+01  0.46700000000E-02 0. -1.
         -1   -1    0    0    0  501 -0.00000000000E+00 -0.00000000000E+00 -0.39416996456E+03  0.39416996458E+03  0.46700000000E-02 0.  1.
         25    2    1    2    0    0  0.00000000000E+00  0.00000000000E+00 -0.38425989553E+03  0.40408003471E+03  0.12500002853E+03 0.  0.
        -11    1    3    3    0    0  0.40455988183E+02  0.42605905982E+02 -0.26103156308E+03  0.26756200614E+03  0.51100000000E-03 0.  1.
         11    1    3    3    0    0 -0.40455988183E+02 -0.42605905982E+02 -0.12322833245E+03  0.13651802856E+03  0.51100000000E-03 0. -1.
<mgrwt>
<rscale>  0 0.12500003E+03</rscale>
<asrwt>0</asrwt>
<pdfrwt beam="1">  1        1 0.15246264E-02 0.12500003E+03</pdfrwt>
<pdfrwt beam="2">  1       -1 0.60641521E-01 0.12500003E+03</pdfrwt>
<totfact> 0.23277056E+04</totfact>
</mgrwt>
</event>
<event>
 5    1  0.8303392E-059  0.1250025E+03  0.7818608E-02  0.1235065E+00
         -1   -1    0    0    0  501 -0.00000000000E+00  0.00000000000E+00  0.12037464676E+02  0.12037465582E+02  0.46700000000E-02 0.  1.
          1   -1    0    0  501    0  0.00000000000E+00 -0.00000000000E+00 -0.32452065820E+03  0.32452065824E+03  0.46700000000E-02 0. -1.
         25    2    1    2    0    0  0.00000000000E+00  0.00000000000E+00 -0.31248319353E+03  0.33655812382E+03  0.12500249786E+03 0.  0.
        -11    1    3    3    0    0 -0.43091983095E+02 -0.27631690990E+02 -0.59690336419E+02  0.78634379352E+02  0.51100000000E-03 0.  1.
         11    1    3    3    0    0  0.43091983095E+02  0.27631690990E+02 -0.25279285711E+03  0.25792374447E+03  0.51100000000E-03 0. -1.
<mgrwt>
<rscale>  0 0.12500250E+03</rscale>
<asrwt>0</asrwt>
<pdfrwt beam="2">  1        1 0.49926249E-01 0.12500250E+03</pdfrwt>
<pdfrwt beam="1">  1       -1 0.18519180E-02 0.12500250E+03</pdfrwt>
<totfact> 0.55353045E+04</totfact>
</mgrwt>
</event>
<event>
 5    1  0.8303392E-059  0.1249881E+03  0.7818608E-02  0.1235088E+00
          1   -1    0    0  501    0  0.00000000000E+00  0.00000000000E+00  0.30394324845E+02  0.30394325204E+02  0.46700000000E-02 0. -1.
         -1   -1    0    0    0  501 -0.00000000000E+00 -0.00000000000E+00 -0.12849457507E+03  0.12849457515E+03  0.46700000000E-02 0.  1.
         25    2    1    2    0    0  0.00000000000E+00  0.00000000000E+00 -0.98100250222E+02  0.15888890036E+03  0.12498809368E+03 0.  0.
        -11    1    3    3    0    0 -0.56876804277E+02  0.11310657521E+02 -0.78662035842E+02  0.97727261915E+02  0.51100000000E-03 0.  1.
         11    1    3    3    0    0  0.56876804277E+02 -0.11310657521E+02 -0.19438214381E+02  0.61161638442E+02  0.51100000000E-03 0. -1.
<mgrwt>
<rscale>  0 0.12498809E+03</rscale>
<asrwt>0</asrwt>
<pdfrwt beam="1">  1        1 0.46760501E-02 0.12498809E+03</pdfrwt>
<pdfrwt beam="2">  1       -1 0.19768396E-01 0.12498809E+03</pdfrwt>
<totfact> 0.34059156E+04</totfact>
</mgrwt>
</event>
<event>
 5    1  0.8303392E-059  0.1249986E+03  0.7818608E-02  0.1235072E+00
         -1   -1    0    0    0  501 -0.00000000000E+00  0.00000000000E+00  0.57681457816E+03  0.57681457818E+03  0.46700000000E-02 0.  1.
          1   -1    0    0  501    0  0.00000000000E+00 -0.00000000000E+00 -0.67719502968E+01  0.67719519070E+01  0.46700000000E-02 0. -1.
         25    2    1    2    0    0  0.00000000000E+00  0.00000000000E+00  0.57004262786E+03  0.58358653009E+03  0.12499856206E+03 0.  0.
        -11    1    3    3    0    0  0.53833280730E+02 -0.30146870219E+02  0.33154607140E+03  0.33723827386E+03  0.51100000000E-03 0.  1.
         11    1    3    3    0    0 -0.53833280730E+02  0.30146870219E+02  0.23849655647E+03  0.24634825622E+03  0.51100000000E-03 0. -1.
<mgrwt>
<rscale>  0 0.12499856E+03</rscale>
<asrwt>0</asrwt>
<pdfrwt beam="2">  1        1 0.10418385E-02 0.12499856E+03</pdfrwt>
<pdfrwt beam="1">  1       -1 0.88740715E-01 0.12499856E+03</pdfrwt>
<totfact> 0.18520191E+04</totfact>
</mgrwt>
</event>
<event>
 5    1  0.8303392E-059  0.1250013E+03  0.7818608E-02  0.1235067E+00
         -1   -1    0    0    0  501 -0.00000000000E+00  0.00000000000E+00  0.17489524204E+03  0.17489524210E+03  0.46700000000E-02 0.  1.
          1   -1    0    0  501    0  0.00000000000E+00 -0.00000000000E+00 -0.22335256723E+02  0.22335257212E+02  0.46700000000E-02 0. -1.
         25    2    1    2    0    0  0.00000000000E+00  0.00000000000E+00  0.15255998532E+03  0.19723049931E+03  0.12500128295E+03 0.  0.
        -11    1    3    3    0    0  0.37909076338E+02 -0.11997483607E+02  0.15236487958E+03  0.15746775610E+03  0.51100000000E-03 0.  1.
         11    1    3    3    0    0 -0.37909076338E+02  0.11997483607E+02  0.19510574191E+00  0.39762743218E+02  0.51100000000E-03 0. -1.
<mgrwt>
<rscale>  0 0.12500128E+03</rscale>
<asrwt>0</asrwt>
<pdfrwt beam="2">  1        1 0.34361934E-02 0.12500128E+03</pdfrwt>
<pdfrwt beam="1">  1       -1 0.26906960E-01 0.12500128E+03</pdfrwt>
<totfact> 0.31494900E+04</totfact>
</mgrwt>
</event>
<event>
 5    1  0.8303392E-059  0.1250043E+03  0.7818608E-02  0.1235063E+00
          1   -1    0    0  501    0  0.00000000000E+00  0.00000000000E+00  0.22774313401E+03  0.22774313405E+03  0.46700000000E-02 0. -1.
         -1   -1    0    0    0  501 -0.00000000000E+00 -0.00000000000E+00 -0.17153181732E+02  0.17153182367E+02  0.46700000000E-02 0.  1.
         25    2    1    2    0    0  0.00000000000E+00  0.00000000000E+00  0.21058995227E+03  0.24489631642E+03  0.12500431112E+03 0.  0.
        -11    1    3    3    0    0  0.61637715722E+02 -0.97967374714E+01  0.98699055927E+02  0.11677622920E+03  0.51100000000E-03 0. -1.
         11    1    3    3    0    0 -0.61637715722E+02  0.97967374714E+01  0.11189089635E+03  0.12812008722E+03  0.51100000000E-03 0.  1.
<mgrwt>
<rscale>  0 0.12500431E+03</rscale>
<asrwt>0</asrwt>
<pdfrwt beam="1">  1        1 0.35037404E-01 0.12500431E+03</pdfrwt>
<pdfrwt beam="2">  1       -1 0.26389512E-02 0.12500431E+03</pdfrwt>
<totfact> 0.51409811E+04</totfact>
</mgrwt>
</event>
<event>
 5    1  0.8303392E-059  0.1250007E+03  0.7818608E-02  0.1235068E+00
         -1   -1    0    0    0  501 -0.00000000000E+00  0.00000000000E+00  0.10270395804E+03  0.10270395815E+03  0.46700000000E-02 0.  1.
          1   -1    0    0  501    0  0.00000000000E+00 -0.00000000000E+00 -0.38034513429E+02  0.38034513716E+02  0.46700000000E-02 0. -1.
         25    2    1    2    0    0  0.00000000000E+00  0.00000000000E+00  0.64669444611E+02  0.14073847186E+03  0.12500072158E+03 0.  0.
        -11    1    3    3    0    0  0.35289904143E+02  0.35936229888E+02 -0.93313099106E+01  0.51223659552E+02  0.51100000000E-03 0.  1.
         11    1    3    3    0    0 -0.35289904143E+02 -0.35936229888E+02  0.74000754522E+02  0.89514812311E+02  0.51100000000E-03 0. -1.
<mgrwt>
<rscale>  0 0.12500072E+03</rscale>
<asrwt>0</asrwt>
<pdfrwt beam="2">  1        1 0.58514637E-02 0.12500072E+03</pdfrwt>
<pdfrwt beam="1">  1       -1 0.15800609E-01 0.12500072E+03</pdfrwt>
<totfact> 0.35796241E+04</totfact>
</mgrwt>
</event>
<event>
 5    1  0.8303392E-059  0.1250060E+03  0.7818608E-02  0.1235060E+00
          1   -1    0    0  501    0  0.00000000000E+00  0.00000000000E+00  0.15116863673E+02  0.15116864395E+02  0.46700000000E-02 0. -1.
         -1   -1    0    0    0  501 -0.00000000000E+00 -0.00000000000E+00 -0.25842822319E+03  0.25842822323E+03  0.46700000000E-02 0.  1.
         25    2    1    2    0    0  0.00000000000E+00  0.00000000000E+00 -0.24331135952E+03  0.27354508763E+03  0.12500598904E+03 0.  0.
        -11    1    3    3    0    0  0.60011657199E+02  0.15566345390E+02 -0.13901259290E+03  0.15221107415E+03  0.51100000000E-03 0.  1.
         11    1    3    3    0    0 -0.60011657199E+02 -0.15566345390E+02 -0.10429876662E+03  0.12133401348E+03  0.51100000000E-03 0. -1.
<mgrwt>
<rscale>  0 0.12500599E+03</rscale>
<asrwt>0</asrwt>
<pdfrwt beam="1">  1        1 0.23256716E-02 0.12500599E+03</pdfrwt>
<pdfrwt beam="2">  1       -1 0.39758185E-01 0.12500599E+03</pdfrwt>
<totfact> 0.27861276E+04</totfact>
</mgrwt>
</event>
<event>
 5    1  0.8303392E-059  0.1250021E+03  0.7818608E-02  0.1235066E+00
          1   -1    0    0  501    0  0.00000000000E+00  0.00000000000E+00  0.17693193185E+03  0.17693193192E+03  0.46700000000E-02 0. -1.
         -1   -1    0    0    0  501 -0.00000000000E+00 -0.00000000000E+00 -0.22078430337E+02  0.22078430831E+02  0.46700000000E-02 0.  1.
         25    2    1    2    0    0  0.00000000000E+00  0.00000000000E+00  0.15485350152E+03  0.19901036275E+03  0.12500207018E+03 0.  0.
        -11    1    3    3    0    0 -0.51870677919E+02 -0.25655370771E+02  0.11502134165E+03  0.12875820095E+03  0.51100000000E-03 0.  1.
         11    1    3    3    0    0  0.51870677919E+02  0.25655370771E+02  0.39832159871E+02  0.70252161799E+02  0.51100000000E-03 0. -1.
<mgrwt>
<rscale>  0 0.12500207E+03</rscale>
<asrwt>0</asrwt>
<pdfrwt beam="1">  1        1 0.27220296E-01 0.12500207E+03</pdfrwt>
<pdfrwt beam="2">  1       -1 0.33966818E-02 0.12500207E+03</pdfrwt>
<totfact> 0.48717239E+04</totfact>
</mgrwt>
</event>
<event>
 5    1  0.8303392E-059  0.1249985E+03  0.7818608E-02  0.1235072E+00
         -1   -1    0    0    0  501 -0.00000000000E+00  0.00000000000E+00  0.12322508456E+03  0.12322508465E+03  0.46700000000E-02 0.  1.
          1   -1    0    0  501    0  0.00000000000E+00 -0.00000000000E+00 -0.31699343722E+02  0.31699344066E+02  0.46700000000E-02 0. -1.
         25    2    1    2    0    0  0.00000000000E+00  0.00000000000E+00  0.91525740836E+02  0.15492442871E+03  0.12499846950E+03 0.  0.
        -11    1    3    3    0    0  0.45803109871E+02  0.41817417942E+02  0.36199869689E+02  0.71812616461E+02  0.51100000000E-03 0.  1.
         11    1    3    3    0    0 -0.45803109871E+02 -0.41817417942E+02  0.55325871147E+02  0.83111812251E+02  0.51100000000E-03 0. -1.
<mgrwt>
<rscale>  0 0.12499847E+03</rscale>
<asrwt>0</asrwt>
<pdfrwt beam="2">  1        1 0.48768222E-02 0.12499847E+03</pdfrwt>
<pdfrwt beam="1">  1       -1 0.18957705E-01 0.12499847E+03</pdfrwt>
<totfact> 0.34383850E+04</totfact>
</mgrwt>
</event>
<event>
 5    1  0.8303392E-059  0.1249977E+03  0.7818608E-02  0.1235073E+00
          1   -1    0    0  501    0  0.00000000000E+00  0.00000000000E+00  0.33585410676E+02  0.33585411001E+02  0.46700000000E-02 0. -1.
         -1   -1    0    0    0  501 -0.00000000000E+00 -0.00000000000E+00 -0.11630361400E+03  0.11630361409E+03  0.46700000000E-02 0.  1.
         25    2    1    2    0    0  0.00000000000E+00  0.00000000000E+00 -0.82718203325E+02  0.14988902510E+03  0.12499767471E+03 0.  0.
        -11    1    3    3    0    0 -0.42105361253E+02 -0.43608508938E+02 -0.59605704317E+02  0.85014136974E+02  0.51100000000E-03 0.  1.
         11    1    3    3    0    0  0.42105361253E+02  0.43608508938E+02 -0.23112499008E+02  0.64874888121E+02  0.51100000000E-03 0. -1.
<mgrwt>
<rscale>  0 0.12499767E+03</rscale>
<asrwt>0</asrwt>
<pdfrwt beam="1">  1        1 0.51669863E-02 0.12499767E+03</pdfrwt>
<pdfrwt beam="2">  1       -1 0.17892864E-01 0.12499767E+03</pdfrwt>
<totfact> 0.34837796E+04</totfact>
</mgrwt>
</event>
<event>
 5    1  0.9140241E-059  0.1250018E+03  0.7818608E-02  0.1235067E+00
          1   -1    0    0  501    0  0.00000000000E+00  0.00000000000E+00  0.18739321999E+03  0.18739322005E+03  0.46700000000E-02 0. -1.
         -1   -1    0    0    0  501 -0.00000000000E+00 -0.00000000000E+00 -0.20845792328E+02  0.20845792851E+02  0.46700000000E-02 0.  1.
         25    2    1    2    0    0  0.00000000000E+00  0.00000000000E+00  0.16654742767E+03  0.20823901290E+03  0.12500176332E+03 0.  0.
        -11    1    3    3    0    0 -0.62424648457E+02 -0.60962787188E+00  0.78234069884E+02  0.10008885089E+03  0.51100000000E-03 0.  1.
         11    1    3    3    0    0  0.62424648457E+02  0.60962787188E+00  0.88313357783E+02  0.10815016202E+03  0.51100000000E-03 0. -1.
<mgrwt>
<rscale>  0 0.12500176E+03</rscale>
<asrwt>0</asrwt>
<pdfrwt beam="1">  1        1 0.28829726E-01 0.12500176E+03</pdfrwt>
<pdfrwt beam="2">  1       -1 0.32070450E-02 0.12500176E+03</pdfrwt>
<totfact> 0.49316424E+04</totfact>
</mgrwt>
</event>
<event>
 5    1  0.8303392E-059  0.1250005E+03  0.7818608E-02  0.1235068E+00
          1   -1    0    0  501    0  0.00000000000E+00  0.00000000000E+00  0.24156686485E+03  0.24156686489E+03  0.46700000000E-02 0. -1.
         -1   -1    0    0    0  501 -0.00000000000E+00 -0.00000000000E+00 -0.16170609323E+02  0.16170609998E+02  0.46700000000E-02 0.  1.
         25    2    1    2    0    0  0.00000000000E+00  0.00000000000E+00  0.22539625552E+03  0.25773747489E+03  0.12500053583E+03 0.  0.
        -11    1    3    3    0    0 -0.13730836893E+02 -0.59277723203E+02  0.14214054012E+03  0.15461667923E+03  0.51100000000E-03 0. -1.
         11    1    3    3    0    0  0.13730836893E+02  0.59277723203E+02  0.83255715400E+02  0.10312079566E+03  0.51100000000E-03 0.  1.
<mgrwt>
<rscale>  0 0.12500054E+03</rscale>
<asrwt>0</asrwt>
<pdfrwt beam="1">  1        1 0.37164131E-01 0.12500054E+03</pdfrwt>
<pdfrwt beam="2">  1       -1 0.24877862E-02 0.12500054E+03</pdfrwt>
<totfact> 0.52062558E+04</totfact>
</mgrwt>
</event>
<event>
 5    1  0.8303392E-059  0.1250043E+03  0.7818608E-02  0.1235063E+00
         -1   -1    0    0    0  501 -0.00000000000E+00  0.00000000000E+00  0.90155738443E+01  0.90155750538E+01  0.46700000000E-02 0.  1.
          1   -1    0    0  501    0  0.00000000000E+00 -0.00000000000E+00 -0.43330746274E+03  0.43330746276E+03  0.46700000000E-02 0. -1.
         25    2    1    2    0    0  0.00000000000E+00  0.00000000000E+00 -0.42429188889E+03  0.44232303782E+03  0.12500425114E+03 0.  0.
        -11    1    3    3    0    0  0.46638565911E+02 -0.31831659965E+02 -0.11732400344E+03  0.13020496223E+03  0.51100000000E-03 0.  1.
         11    1    3    3    0    0 -0.46638565911E+02  0.31831659965E+02 -0.30696788546E+03  0.31211807559E+03  0.51100000000E-03 0. -1.
<mgrwt>
<rscale>  0 0.12500425E+03</rscale>
<asrwt>0</asrwt>
<pdfrwt beam="2">  1        1 0.66662670E-01 0.12500425E+03</pdfrwt>
<pdfrwt beam="1">  1       -1 0.13870118E-02 0.12500425E+03</pdfrwt>
<totfact> 0.58343932E+04</totfact>
</mgrwt>
</event>
<event>
 5    1  0.8303392E-059  0.1250014E+03  0.7818608E-02  0.1235067E+00
          1   -1    0    0  501    0  0.00000000000E+00  0.00000000000E+00  0.51728251033E+03  0.51728251035E+03  0.46700000000E-02 0. -1.
         -1   -1    0    0    0  501 -0.00000000000E+00 -0.00000000000E+00 -0.75516511357E+01  0.75516525797E+01  0.46700000000E-02 0.  1.
         25    2    1    2    0    0  0.00000000000E+00  0.00000000000E+00  0.50973085919E+03  0.52483416293E+03  0.12500139905E+03 0.  0.
        -11    1    3    3    0    0  0.14833355461E+00 -0.61516922218E+02  0.20849318077E+03  0.21737930019E+03  0.51100000000E-03 0.  1.
         11    1    3    3    0    0 -0.14833355461E+00  0.61516922218E+02  0.30123767842E+03  0.30745486274E+03  0.51100000000E-03 0. -1.
<mgrwt>
<rscale>  0 0.12500140E+03</rscale>
<asrwt>0</asrwt>
<pdfrwt beam="1">  1        1 0.79581916E-01 0.12500140E+03</pdfrwt>
<pdfrwt beam="2">  1       -1 0.11617927E-02 0.12500140E+03</pdfrwt>
<totfact> 0.59810502E+04</totfact>
</mgrwt>
</event>
<event>
 5    1  0.8303392E-059  0.1250045E+03  0.7818608E-02  0.1235062E+00
          1   -1    0    0  501    0  0.00000000000E+00  0.00000000000E+00  0.16652712564E+03  0.16652712571E+03  0.46700000000E-02 0. -1.
         -1   -1    0    0    0  501 -0.00000000000E+00 -0.00000000000E+00 -0.23458834347E+02  0.23458834812E+02  0.46700000000E-02 0.  1.
         25    2    1    2    0    0  0.00000000000E+00  0.00000000000E+00  0.14306829129E+03  0.18998596052E+03  0.12500451680E+03 0.  0.
        -11    1    3    3    0    0  0.34864337391E+02 -0.23410025526E+02  0.11775264777E+01  0.42011163823E+02  0.51100000000E-03 0.  1.
         11    1    3    3    0    0 -0.34864337391E+02  0.23410025526E+02  0.14189076482E+03  0.14797479670E+03  0.51100000000E-03 0. -1.
<mgrwt>
<rscale>  0 0.12500452E+03</rscale>
<asrwt>0</asrwt>
<pdfrwt beam="1">  1        1 0.25619558E-01 0.12500452E+03</pdfrwt>
<pdfrwt beam="2">  1       -1 0.36090515E-02 0.12500452E+03</pdfrwt>
<totfact> 0.48096706E+04</totfact>
</mgrwt>
</event>
<event>
 5    1  0.8303392E-059  0.1250026E+03  0.7818608E-02  0.1235065E+00
         -1   -1    0    0    0  501 -0.00000000000E+00  0.00000000000E+00  0.48203219569E+02  0.48203219795E+02  0.46700000000E-02 0.  1.
          1   -1    0    0  501    0  0.00000000000E+00 -0.00000000000E+00 -0.81040461075E+02  0.81040461209E+02  0.46700000000E-02 0. -1.
         25    2    1    2    0    0  0.00000000000E+00  0.00000000000E+00 -0.32837241506E+02  0.12924368100E+03  0.12500257857E+03 0.  0.
        -11    1    3    3    0    0 -0.58199752153E+02 -0.19029105946E+02 -0.29377545114E+02  0.67914344442E+02  0.51100000000E-03 0.  1.
         11    1    3    3    0    0  0.58199752153E+02  0.19029105946E+02 -0.34596963917E+01  0.61329336562E+02  0.51100000000E-03 0. -1.
<mgrwt>
<rscale>  0 0.12500258E+03</rscale>
<asrwt>0</asrwt>
<pdfrwt beam="2">  1        1 0.12467763E-01 0.12500258E+03</pdfrwt>
<pdfrwt beam="1">  1       -1 0.74158799E-02 0.12500258E+03</pdfrwt>
<totfact> 0.41606586E+04</totfact>
</mgrwt>
</event>
<event>
 5    1  0.8303392E-059  0.1250016E+03  0.7818608E-02  0.1235067E+00
         -1   -1    0    0    0  501 -0.00000000000E+00  0.00000000000E+00  0.40015326492E+02  0.40015326765E+02  0.46700000000E-02 0. -1.
          1   -1    0    0  501    0  0.00000000000E+00 -0.00000000000E+00 -0.97621335240E+02  0.97621335352E+02  0.46700000000E-02 0.  1.
         25    2    1    2    0    0  0.00000000000E+00  0.00000000000E+00 -0.57606008748E+02  0.13763666212E+03  0.12500159405E+03 0.  0.
        -11    1    3    3    0    0  0.75084898629E+01 -0.51578679178E+02 -0.66780057332E+02  0.84713125449E+02  0.51100000000E-03 0. -1.
         11    1    3    3    0    0 -0.75084898629E+01  0.51578679178E+02  0.91740485842E+01  0.52923536668E+02  0.51100000000E-03 0.  1.
<mgrwt>
<rscale>  0 0.12500159E+03</rscale>
<asrwt>0</asrwt>
<pdfrwt beam="2">  1        1 0.15018667E-01 0.12500159E+03</pdfrwt>
<pdfrwt beam="1">  1       -1 0.61562041E-02 0.12500159E+03</pdfrwt>
<totfact> 0.43148227E+04</totfact>
</mgrwt>
</event>
<event>
 5    1  0.8303392E-059  0.1249988E+03  0.7818608E-02  0.1235071E+00
         -1   -1    0    0    0  501 -0.00000000000E+00  0.00000000000E+00  0.20939447297E+02  0.20939447818E+02  0.46700000000E-02 0.  1.
          1   -1    0    0  501    0  0.00000000000E+00 -0.00000000000E+00 -0.18654609317E+03  0.18654609323E+03  0.46700000000E-02 0. -1.
         25    2    1    2    0    0  0.00000000000E+00  0.00000000000E+00 -0.16560664587E+03  0.20748554105E+03  0.12499875434E+03 0.  0.
        -11    1    3    3    0    0 -0.30510365869E+02  0.34821943936E+02 -0.15249389952E+03  0.15936699657E+03  0.51100000000E-03 0. -1.
         11    1    3    3    0    0  0.30510365869E+02 -0.34821943936E+02 -0.13112746348E+02  0.48118544471E+02  0.51100000000E-03 0.  1.
<mgrwt>
<rscale>  0 0.12499875E+03</rscale>
<asrwt>0</asrwt>
<pdfrwt beam="2">  1        1 0.28699398E-01 0.12499875E+03</pdfrwt>
<pdfrwt beam="1">  1       -1 0.32214536E-02 0.12499875E+03</pdfrwt>
<totfact> 0.49272144E+04</totfact>
</mgrwt>
</event>
<event>
 5    1  0.8303392E-059  0.1249977E+03  0.7818608E-02  0.1235073E+00
          1   -1    0    0  501    0  0.00000000000E+00  0.00000000000E+00  0.43355909751E+03  0.43355909753E+03  0.46700000000E-02 0. -1.
         -1   -1    0    0    0  501 -0.00000000000E+00 -0.00000000000E+00 -0.90093924771E+01  0.90093936875E+01  0.46700000000E-02 0.  1.
         25    2    1    2    0    0  0.00000000000E+00  0.00000000000E+00  0.42454970503E+03  0.44256849122E+03  0.12499766950E+03 0.  0.
        -11    1    3    3    0    0  0.22449219579E+02  0.58119424373E+02  0.22971732532E+03  0.23801656350E+03  0.51100000000E-03 0.  1.
         11    1    3    3    0    0 -0.22449219579E+02 -0.58119424373E+02  0.19483237971E+03  0.20455192772E+03  0.51100000000E-03 0. -1.
<mgrwt>
<rscale>  0 0.12499767E+03</rscale>
<asrwt>0</asrwt>
<pdfrwt beam="1">  1        1 0.66701397E-01 0.12499767E+03</pdfrwt>
<pdfrwt beam="2">  1       -1 0.13860605E-02 0.12499767E+03</pdfrwt>
<totfact> 0.58357774E+04</totfact>
</mgrwt>
</event>
<event>
 5    1  0.8303392E-059  0.1250010E+03  0.7818608E-02  0.1235068E+00
         -1   -1    0    0    0  501 -0.00000000000E+00  0.00000000000E+00  0.20239210372E+02  0.20239210910E+02  0.46700000000E-02 0.  1.
          1   -1    0    0  501    0  0.00000000000E+00 -0.00000000000E+00 -0.19300708488E+03  0.19300708494E+03  0.46700000000E-02 0. -1.
         25    2    1    2    0    0  0.00000000000E+00  0.00000000000E+00 -0.17276787451E+03  0.21324629585E+03  0.12500097692E+03 0.  0.
        -11    1    3    3    0    0  0.38766971514E+02 -0.48714489477E+02 -0.76988543716E+02  0.99011188404E+02  0.51100000000E-03 0.  1.
         11    1    3    3    0    0 -0.38766971514E+02  0.48714489477E+02 -0.95779330796E+02  0.11423510745E+03  0.51100000000E-03 0. -1.
<mgrwt>
<rscale>  0 0.12500098E+03</rscale>
<asrwt>0</asrwt>
<pdfrwt beam="2">  1        1 0.29693396E-01 0.12500098E+03</pdfrwt>
<pdfrwt beam="1">  1       -1 0.31137249E-02 0.12500098E+03</pdfrwt>
<totfact> 0.49628729E+04</totfact>
</mgrwt>
</event>
<event>
 5    1  0.8303392E-059  0.1250057E+03  0.7818608E-02  0.1235060E+00
          1   -1    0    0  501    0  0.00000000000E+00  0.00000000000E+00  0.96705632521E+02  0.96705632634E+02  0.46700000000E-02 0. -1.
         -1   -1    0    0    0  501 -0.00000000000E+00 -0.00000000000E+00 -0.40396884274E+02  0.40396884544E+02  0.46700000000E-02 0.  1.
         25    2    1    2    0    0  0.00000000000E+00  0.00000000000E+00  0.56308748247E+02  0.13710251718E+03  0.12500570022E+03 0.  0.
        -11    1    3    3    0    0  0.40261930315E+02 -0.45145218300E+02  0.10900102299E+02  0.61464835463E+02  0.51100000000E-03 0.  1.
         11    1    3    3    0    0 -0.40261930315E+02  0.45145218300E+02  0.45408645948E+02  0.75637681715E+02  0.51100000000E-03 0. -1.
<mgrwt>
<rscale>  0 0.12500570E+03</rscale>
<asrwt>0</asrwt>
<pdfrwt beam="1">  1        1 0.14877790E-01 0.12500570E+03</pdfrwt>
<pdfrwt beam="2">  1       -1 0.62149053E-02 0.12500570E+03</pdfrwt>
<totfact> 0.43064227E+04</totfact>
</mgrwt>
</event>
<event>
 5    1  0.8303392E-059  0.1250002E+03  0.7818608E-02  0.1235069E+00
         -1   -1    0    0    0  501 -0.00000000000E+00  0.00000000000E+00  0.12214297612E+02  0.12214298505E+02  0.46700000000E-02 0.  1.
          1   -1    0    0  501    0  0.00000000000E+00 -0.00000000000E+00 -0.31981039158E+03  0.31981039161E+03  0.46700000000E-02 0. -1.
         25    2    1    2    0    0  0.00000000000E+00  0.00000000000E+00 -0.30759609397E+03  0.33202469012E+03  0.12500015130E+03 0.  0.
        -11    1    3    3    0    0  0.47979233030E+02  0.11929683738E+02 -0.25535833356E+03  0.26010037039E+03  0.51100000000E-03 0. -1.
         11    1    3    3    0    0 -0.47979233030E+02 -0.11929683738E+02 -0.52237760404E+02  0.71924319729E+02  0.51100000000E-03 0.  1.
<mgrwt>
<rscale>  0 0.12500015E+03</rscale>
<asrwt>0</asrwt>
<pdfrwt beam="2">  1        1 0.49201592E-01 0.12500015E+03</pdfrwt>
<pdfrwt beam="1">  1       -1 0.18791230E-02 0.12500015E+03</pdfrwt>
<totfact> 0.55194793E+04</totfact>
</mgrwt>
</event>
<event>
 5    1  0.8303392E-059  0.1250009E+03  0.7818608E-02  0.1235068E+00
         -1   -1    0    0    0  501 -0.00000000000E+00  0.00000000000E+00  0.38684975635E+02  0.38684975916E+02  0.46700000000E-02 0.  1.
          1   -1    0    0  501    0  0.00000000000E+00 -0.00000000000E+00 -0.10097736185E+03  0.10097736196E+03  0.46700000000E-02 0. -1.
         25    2    1    2    0    0  0.00000000000E+00  0.00000000000E+00 -0.62292386216E+02  0.13966233788E+03  0.12500090896E+03 0.  0.
        -11    1    3    3    0    0  0.20760311000E+01  0.62462758715E+02 -0.31853428641E+02  0.70146611094E+02  0.51100000000E-03 0.  1.
         11    1    3    3    0    0 -0.20760311000E+01 -0.62462758715E+02 -0.30438957576E+02  0.69515726782E+02  0.51100000000E-03 0. -1.
<mgrwt>
<rscale>  0 0.12500091E+03</rscale>
<asrwt>0</asrwt>
<pdfrwt beam="2">  1        1 0.15534979E-01 0.12500091E+03</pdfrwt>
<pdfrwt beam="1">  1       -1 0.59515348E-02 0.12500091E+03</pdfrwt>
<totfact> 0.43437256E+04</totfact>
</mgrwt>
</event>
<event>
 5    1  0.8303392E-059  0.1249989E+03  0.7818608E-02  0.1235071E+00
         -1   -1    0    0    0  501 -0.00000000000E+00  0.00000000000E+00  0.10054482559E+03  0.10054482569E+03  0.46700000000E-02 0. -1.
          1   -1    0    0  501    0  0.00000000000E+00 -0.00000000000E+00 -0.38850144361E+02  0.38850144641E+02  0.46700000000E-02 0.  1.
         25    2    1    2    0    0  0.00000000000E+00  0.00000000000E+00  0.61694681225E+02  0.13939497034E+03  0.12499889625E+03 0.  0.
        -11    1    3    3    0    0  0.57973237253E+02 -0.20904085662E+02  0.19241859870E+02  0.64561026993E+02  0.51100000000E-03 0.  1.
         11    1    3    3    0    0 -0.57973237253E+02  0.20904085662E+02  0.42452821355E+02  0.74833943343E+02  0.51100000000E-03 0. -1.
<mgrwt>
<rscale>  0 0.12499890E+03</rscale>
<asrwt>0</asrwt>
<pdfrwt beam="2">  1        1 0.59769454E-02 0.12499890E+03</pdfrwt>
<pdfrwt beam="1">  1       -1 0.15468434E-01 0.12499890E+03</pdfrwt>
<totfact> 0.35960196E+04</totfact>
</mgrwt>
</event>
<event>
 5    1  0.8303392E-059  0.1249960E+03  0.7818608E-02  0.1235076E+00
          1   -1    0    0  501    0  0.00000000000E+00  0.00000000000E+00  0.11921062953E+02  0.11921063868E+02  0.46700000000E-02 0. -1.
         -1   -1    0    0    0  501 -0.00000000000E+00 -0.00000000000E+00 -0.32765516718E+03  0.32765516721E+03  0.46700000000E-02 0.  1.
         25    2    1    2    0    0  0.00000000000E+00  0.00000000000E+00 -0.31573410422E+03  0.33957623108E+03  0.12499596851E+03 0.  0.
        -11    1    3    3    0    0 -0.42341667559E+02  0.40445545059E+02 -0.21722170736E+03  0.22497539660E+03  0.51100000000E-03 0.  1.
         11    1    3    3    0    0  0.42341667559E+02 -0.40445545059E+02 -0.98512396857E+02  0.11460083447E+03  0.51100000000E-03 0. -1.
<mgrwt>
<rscale>  0 0.12499597E+03</rscale>
<asrwt>0</asrwt>
<pdfrwt beam="1">  1        1 0.18340100E-02 0.12499597E+03</pdfrwt>
<pdfrwt beam="2">  1       -1 0.50408480E-01 0.12499597E+03</pdfrwt>
<totfact> 0.25378485E+04</totfact>
</mgrwt>
</event>
<event>
 5    1  0.8303392E-059  0.1249963E+03  0.7818608E-02  0.1235075E+00
         -1   -1    0    0    0  501 -0.00000000000E+00  0.00000000000E+00  0.29998935688E+02  0.29998936051E+02  0.46700000000E-02 0. -1.
          1   -1    0    0  501    0  0.00000000000E+00 -0.00000000000E+00 -0.13020532579E+03  0.13020532588E+03  0.46700000000E-02 0.  1.
         25    2    1    2    0    0  0.00000000000E+00  0.00000000000E+00 -0.10020639011E+03  0.16020426193E+03  0.12499633963E+03 0.  0.
        -11    1    3    3    0    0  0.39089937911E+02 -0.46360604171E+02 -0.30721015914E+02  0.67978744355E+02  0.51100000000E-03 0. -1.
         11    1    3    3    0    0 -0.39089937911E+02  0.46360604171E+02 -0.69485374191E+02  0.92225517574E+02  0.51100000000E-03 0.  1.
<mgrwt>
<rscale>  0 0.12499634E+03</rscale>
<asrwt>0</asrwt>
<pdfrwt beam="2">  1        1 0.20031588E-01 0.12499634E+03</pdfrwt>
<pdfrwt beam="1">  1       -1 0.46152210E-02 0.12499634E+03</pdfrwt>
<totfact> 0.45714286E+04</totfact>
</mgrwt>
</event>
<event>
 5    1  0.8303392E-059  0.1250007E+03  0.7818608E-02  0.1235068E+00
          1   -1    0    0  501    0  0.00000000000E+00  0.00000000000E+00  0.18138673280E+03  0.18138673286E+03  0.46700000000E-02 0. -1.
         -1   -1    0    0    0  501 -0.00000000000E+00 -0.00000000000E+00 -0.21535721167E+02  0.21535721674E+02  0.46700000000E-02 0.  1.
         25    2    1    2    0    0  0.00000000000E+00  0.00000000000E+00  0.15985101163E+03  0.20292245453E+03  0.12500070653E+03 0.  0.
        -11    1    3    3    0    0 -0.36258149811E+02  0.50492659655E+02  0.90462674732E+02  0.10976182226E+03  0.51100000000E-03 0.  1.
         11    1    3    3    0    0  0.36258149811E+02 -0.50492659655E+02  0.69388336898E+02  0.93160632267E+02  0.51100000000E-03 0. -1.
<mgrwt>
<rscale>  0 0.12500071E+03</rscale>
<asrwt>0</asrwt>
<pdfrwt beam="1">  1        1 0.27905651E-01 0.12500071E+03</pdfrwt>
<pdfrwt beam="2">  1       -1 0.33131879E-02 0.12500071E+03</pdfrwt>
<totfact> 0.48976751E+04</totfact>
</mgrwt>
</event>
<event>
 5    1  0.8303392E-059  0.1250001E+03  0.7818608E-02  0.1235069E+00
          1   -1    0    0  501    0  0.00000000000E+00  0.00000000000E+00  0.65362091824E+03  0.65362091826E+03  0.46700000000E-02 0. -1.
         -1   -1    0    0    0  501 -0.00000000000E+00 -0.00000000000E+00 -0.59763277833E+01  0.59763296079E+01  0.46700000000E-02 0.  1.
         25    2    1    2    0    0  0.00000000000E+00  0.00000000000E+00  0.64764459046E+03  0.65959724787E+03  0.12500005537E+03 0.  0.
        -11    1    3    3    0    0 -0.50328058416E+02 -0.36532756074E+02  0.35664779716E+03  0.36202929018E+03  0.51100000000E-03 0.  1.
         11    1    3    3    0    0  0.50328058416E+02  0.36532756074E+02  0.29099679330E+03  0.29756795768E+03  0.51100000000E-03 0. -1.
<mgrwt>
<rscale>  0 0.12500006E+03</rscale>
<asrwt>0</asrwt>
<pdfrwt beam="1">  1        1 0.10055702E+00 0.12500006E+03</pdfrwt>
<pdfrwt beam="2">  1       -1 0.91943559E-03 0.12500006E+03</pdfrwt>
<totfact> 0.60888020E+04</totfact>
</mgrwt>
</event>
<event>
 5    1  0.8303392E-059  0.1250070E+03  0.7818608E-02  0.1235058E+00
          1   -1    0    0  501    0  0.00000000000E+00  0.00000000000E+00  0.67436928170E+02  0.67436928331E+02  0.46700000000E-02 0. -1.
         -1   -1    0    0    0  501 -0.00000000000E+00 -0.00000000000E+00 -0.57930958598E+02  0.57930958786E+02  0.46700000000E-02 0.  1.
         25    2    1    2    0    0  0.00000000000E+00  0.00000000000E+00  0.95059695718E+01  0.12536788712E+03  0.12500697446E+03 0.  0.
        -11    1    3    3    0    0  0.46504040229E+02 -0.10595894493E+02 -0.35759027955E+02  0.59612136501E+02  0.51100000000E-03 0.  1.
         11    1    3    3    0    0 -0.46504040229E+02  0.10595894493E+02  0.45264997527E+02  0.65755750616E+02  0.51100000000E-03 0. -1.
<mgrwt>
<rscale>  0 0.12500697E+03</rscale>
<asrwt>0</asrwt>
<pdfrwt beam="1">  1        1 0.10374912E-01 0.12500697E+03</pdfrwt>
<pdfrwt beam="2">  1       -1 0.89124552E-02 0.12500697E+03</pdfrwt>
<totfact> 0.40149444E+04</totfact>
</mgrwt>
</event>
<event>
 5    1  0.8303392E-059  0.1250009E+03  0.7818608E-02  0.1235068E+00
         -1   -1    0    0    0  501 -0.00000000000E+00  0.00000000000E+00  0.72967310984E+01  0.72967325928E+01  0.46700000000E-02 0.  1.
          1   -1    0    0  501    0  0.00000000000E+00 -0.00000000000E+00 -0.53535016969E+03  0.53535016971E+03  0.46700000000E-02 0. -1.
         25    2    1    2    0    0  0.00000000000E+00  0.00000000000E+00 -0.52805343859E+03  0.54264690230E+03  0.12500090628E+03 0.  0.
        -11    1    3    3    0    0 -0.42697409023E+02 -0.44747005888E+02 -0.30308335268E+03  0.30932973014E+03  0.51100000000E-03 0.  1.
         11    1    3    3    0    0  0.42697409023E+02  0.44747005888E+02 -0.22497008591E+03  0.23331717216E+03  0.51100000000E-03 0. -1.
<mgrwt>
<rscale>  0 0.12500091E+03</rscale>
<asrwt>0</asrwt>
<pdfrwt beam="2">  1        1 0.82361534E-01 0.12500091E+03</pdfrwt>
<pdfrwt beam="1">  1       -1 0.11225746E-02 0.12500091E+03</pdfrwt>
<totfact> 0.60040609E+04</totfact>
</mgrwt>
</event>
<event>
 5    1  0.8303392E-059  0.1249994E+03  0.7818608E-02  0.1235070E+00
         -1   -1    0    0    0  501 -0.00000000000E+00  0.00000000000E+00  0.31288895028E+02  0.31288895376E+02  0.46700000000E-02 0.  1.
          1   -1    0    0  501    0  0.00000000000E+00 -0.00000000000E+00 -0.12484336485E+03  0.12484336494E+03  0.46700000000E-02 0. -1.
         25    2    1    2    0    0  0.00000000000E+00  0.00000000000E+00 -0.93554469821E+02  0.15613226031E+03  0.12499937555E+03 0.  0.
        -11    1    3    3    0    0  0.53202994279E+02 -0.14645701031E+02 -0.10122872273E+02  0.56102831500E+02  0.51100000000E-03 0.  1.
         11    1    3    3    0    0 -0.53202994279E+02  0.14645701031E+02 -0.83431597548E+02  0.10002942881E+03  0.51100000000E-03 0. -1.
<mgrwt>
<rscale>  0 0.12499938E+03</rscale>
<asrwt>0</asrwt>
<pdfrwt beam="2">  1        1 0.19206671E-01 0.12499938E+03</pdfrwt>
<pdfrwt beam="1">  1       -1 0.48136762E-02 0.12499938E+03</pdfrwt>
<totfact> 0.45321199E+04</totfact>
</mgrwt>
</event>
<event>
 4    1  0.8303392E-059  0.1250865E+03  0.7818608E-02  0.1234934E+00
         -1   -1    0    0    0  501 -0.00000000000E+00  0.00000000000E+00  0.25420986722E+02  0.25420987150E+02  0.46700000000E-02 0.  1.
          1   -1    0    0  501    0  0.00000000000E+00 -0.00000000000E+00 -0.15387521302E+03  0.15387521309E+03  0.46700000000E-02 0. -1.
        -11    1    1    2    0    0  0.29107473046E+02 -0.26645188746E+02 -0.13377840007E+03  0.13947713574E+03  0.51100000000E-03 0. -1.
         11    1    1    2    0    0 -0.29107473046E+02  0.26645188746E+02  0.53241737732E+01  0.39819064493E+02  0.51100000000E-03 0.  1.
<mgrwt>
<rscale>  0 0.12508653E+03</rscale>
<asrwt>0</asrwt>
<pdfrwt beam="2">  1        1 0.23673109E-01 0.12508653E+03</pdfrwt>
<pdfrwt beam="1">  1       -1 0.39109212E-02 0.12508653E+03</pdfrwt>
<totfact> 0.47221495E+04</totfact>
</mgrwt>
</event>
<event>
 5    1  0.8303392E-059  0.1249980E+03  0.7818608E-02  0.1235072E+00
         -1   -1    0    0    0  501 -0.00000000000E+00  0.00000000000E+00  0.10592690401E+02  0.10592691431E+02  0.46700000000E-02 0.  1.
          1   -1    0    0  501    0  0.00000000000E+00 -0.00000000000E+00 -0.36875689708E+03  0.36875689711E+03  0.46700000000E-02 0. -1.
         25    2    1    2    0    0  0.00000000000E+00  0.00000000000E+00 -0.35816420668E+03  0.37934958854E+03  0.12499804551E+03 0.  0.
        -11    1    3    3    0    0  0.36344918158E+02  0.49261678848E+02 -0.14087900022E+03  0.15360520428E+03  0.51100000000E-03 0.  1.
         11    1    3    3    0    0 -0.36344918158E+02 -0.49261678848E+02 -0.21728520646E+03  0.22574438426E+03  0.51100000000E-03 0. -1.
<mgrwt>
<rscale>  0 0.12499805E+03</rscale>
<asrwt>0</asrwt>
<pdfrwt beam="2">  1        1 0.56731821E-01 0.12499805E+03</pdfrwt>
<pdfrwt beam="1">  1       -1 0.16296450E-02 0.12499805E+03</pdfrwt>
<totfact> 0.56734973E+04</totfact>
</mgrwt>
</event>
<event>
 5    1  0.8303392E-059  0.1250001E+03  0.7818608E-02  0.1235069E+00
          1   -1    0    0  501    0  0.00000000000E+00  0.00000000000E+00  0.10909460832E+03  0.10909460842E+03  0.46700000000E-02 0. -1.
         -1   -1    0    0    0  501 -0.00000000000E+00 -0.00000000000E+00 -0.35806123106E+02  0.35806123411E+02  0.46700000000E-02 0.  1.
         25    2    1    2    0    0  0.00000000000E+00  0.00000000000E+00  0.73288485213E+02  0.14490073183E+03  0.12500008008E+03 0.  0.
        -11    1    3    3    0    0  0.34100634291E+02  0.40723924412E+02 -0.15385683211E+01  0.53138107524E+02  0.51100000000E-03 0.  1.
         11    1    3    3    0    0 -0.34100634291E+02 -0.40723924412E+02  0.74827053534E+02  0.91762624305E+02  0.51100000000E-03 0. -1.
<mgrwt>
<rscale>  0 0.12500008E+03</rscale>
<asrwt>0</asrwt>
<pdfrwt beam="1">  1        1 0.16783786E-01 0.12500008E+03</pdfrwt>
<pdfrwt beam="2">  1       -1 0.55086344E-02 0.12500008E+03</pdfrwt>
<totfact> 0.44108999E+04</totfact>
</mgrwt>
</event>
<event>
 5    1  0.8303392E-059  0.1250300E+03  0.7818608E-02  0.1235022E+00
         -1   -1    0    0    0  501 -0.00000000000E+00  0.00000000000E+00  0.18315915784E+03  0.18315915790E+03  0.46700000000E-02 0.  1.
          1   -1    0    0  501    0  0.00000000000E+00 -0.00000000000E+00 -0.21337320575E+02  0.21337321086E+02  0.46700000000E-02 0. -1.
         25    2    1    2    0    0  0.00000000000E+00  0.00000000000E+00  0.16182183727E+03  0.20449647899E+03  0.12503000801E+03 0.  0.
        -11    1    3    3    0    0 -0.29101060100E+02  0.41448180580E+02  0.14085667765E+03  0.14968442474E+03  0.51100000000E-03 0.  1.
         11    1    3    3    0    0  0.29101060100E+02 -0.41448180580E+02  0.20965159617E+02  0.54812054243E+02  0.51100000000E-03 0. -1.
<mgrwt>
<rscale>  0 0.12503001E+03</rscale>
<asrwt>0</asrwt>
<pdfrwt beam="2">  1        1 0.32826649E-02 0.12503001E+03</pdfrwt>
<pdfrwt beam="1">  1       -1 0.28178331E-01 0.12503001E+03</pdfrwt>
<totfact> 0.31072449E+04</totfact>
</mgrwt>
</event>
<event>
 5    1  0.8303392E-059  0.1249971E+03  0.7818608E-02  0.1235074E+00
          1   -1    0    0  501    0  0.00000000000E+00  0.00000000000E+00  0.32495339423E+03  0.32495339427E+03  0.46700000000E-02 0.  1.
         -1   -1    0    0    0  501 -0.00000000000E+00 -0.00000000000E+00 -0.12020397576E+02  0.12020398483E+02  0.46700000000E-02 0. -1.
         25    2    1    2    0    0  0.00000000000E+00  0.00000000000E+00  0.31293299666E+03  0.33697379275E+03  0.12499710638E+03 0.  0.
        -11    1    3    3    0    0 -0.62380496510E+02  0.38391545101E+01  0.15663044694E+03  0.16863914837E+03  0.51100000000E-03 0. -1.
         11    1    3    3    0    0  0.62380496510E+02 -0.38391545101E+01  0.15630254972E+03  0.16833464438E+03  0.51100000000E-03 0.  1.
<mgrwt>
<rscale>  0 0.12499711E+03</rscale>
<asrwt>0</asrwt>
<pdfrwt beam="1">  1        1 0.49992825E-01 0.12499711E+03</pdfrwt>
<pdfrwt beam="2">  1       -1 0.18492922E-02 0.12499711E+03</pdfrwt>
<totfact> 0.55374271E+04</totfact>
</mgrwt>
</event>
<event>
 5    1  0.8303392E-059  0.1250016E+03  0.7818608E-02  0.1235067E+00
          1   -1    0    0  501    0  0.00000000000E+00  0.00000000000E+00  0.32910232789E+03  0.32910232792E+03  0.46700000000E-02 0.  1.
         -1   -1    0    0    0  501 -0.00000000000E+00 -0.00000000000E+00 -0.11869708461E+02  0.11869709379E+02  0.46700000000E-02 0. -1.
         25    2    1    2    0    0  0.00000000000E+00  0.00000000000E+00  0.31723261943E+03  0.34097203730E+03  0.12500158156E+03 0.  0.
        -11    1    3    3    0    0 -0.37493622610E+02 -0.49974435974E+02  0.15378823719E+03  0.16599408992E+03  0.51100000000E-03 0. -1.
         11    1    3    3    0    0  0.37493622610E+02  0.49974435974E+02  0.16344438224E+03  0.17497794739E+03  0.51100000000E-03 0.  1.
<mgrwt>
<rscale>  0 0.12500158E+03</rscale>
<asrwt>0</asrwt>
<pdfrwt beam="1">  1        1 0.50631116E-01 0.12500158E+03</pdfrwt>
<pdfrwt beam="2">  1       -1 0.18261095E-02 0.12500158E+03</pdfrwt>
<totfact> 0.55508091E+04</totfact>
</mgrwt>
</event>
<event>
 5    1  0.8303392E-059  0.1249947E+03  0.7818608E-02  0.1235078E+00
         -1   -1    0    0    0  501 -0.00000000000E+00  0.00000000000E+00  0.11617582419E+02  0.11617583357E+02  0.46700000000E-02 0.  1.
          1   -1    0    0  501    0  0.00000000000E+00 -0.00000000000E+00 -0.33620725494E+03  0.33620725498E+03  0.46700000000E-02 0. -1.
         25    2    1    2    0    0  0.00000000000E+00  0.00000000000E+00 -0.32458967253E+03  0.34782483833E+03  0.12499465049E+03 0.  0.
        -11    1    3    3    0    0 -0.50725700069E+02  0.25283955233E+02 -0.23557815311E+03  0.24230031214E+03  0.51100000000E-03 0. -1.
         11    1    3    3    0    0  0.50725700069E+02 -0.25283955233E+02 -0.89011519416E+02  0.10552452620E+03  0.51100000000E-03 0.  1.
<mgrwt>
<rscale>  0 0.12499465E+03</rscale>
<asrwt>0</asrwt>
<pdfrwt beam="2">  1        1 0.51724186E-01 0.12499465E+03</pdfrwt>
<pdfrwt beam="1">  1       -1 0.17873207E-02 0.12499465E+03</pdfrwt>
<totfact> 0.55749954E+04</totfact>
</mgrwt>
</event>
<event>
 5    1  0.8303392E-059  0.1250021E+03  0.7818608E-02  0.1235066E+00
         -1   -1    0    0    0  501 -0.00000000000E+00  0.00000000000E+00  0.56745109441E+02  0.56745109633E+02  0.46700000000E-02 0.  1.
          1   -1    0    0  501    0  0.00000000000E+00 -0.00000000000E+00 -0.68840842335E+02  0.68840842494E+02  0.46700000000E-02 0. -1.
         25    2    1    2    0    0  0.00000000000E+00  0.00000000000E+00 -0.12095732894E+02  0.12558595213E+03  0.12500209845E+03 0.  0.
        -11    1    3    3    0    0 -0.43633050513E+02 -0.44734297661E+02 -0.72283737402E+01  0.62906675890E+02  0.51100000000E-03 0.  1.
         11    1    3    3    0    0  0.43633050513E+02  0.44734297661E+02 -0.48673591539E+01  0.62679276238E+02  0.51100000000E-03 0. -1.
<mgrwt>
<rscale>  0 0.12500210E+03</rscale>
<asrwt>0</asrwt>
<pdfrwt beam="2">  1        1 0.10590899E-01 0.12500210E+03</pdfrwt>
<pdfrwt beam="1">  1       -1 0.87300169E-02 0.12500210E+03</pdfrwt>
<totfact> 0.40314324E+04</totfact>
</mgrwt>
</event>
<event>
 5    1  0.8966301E-059  0.1250004E+03  0.7818608E-02  0.1235069E+00
         -1   -1    0    0    0  501 -0.00000000000E+00  0.00000000000E+00  0.48250632456E+02  0.48250632682E+02  0.46700000000E-02 0.  1.
          1   -1    0    0  501    0  0.00000000000E+00 -0.00000000000E+00 -0.80958041165E+02  0.80958041299E+02  0.46700000000E-02 0. -1.
         25    2    1    2    0    0  0.00000000000E+00  0.00000000000E+00 -0.32707408709E+02  0.12920867398E+03  0.12500042739E+03 0.  0.
        -11    1    3    3    0    0 -0.29044897728E+02 -0.52723889329E+02  0.10310103824E+01  0.60203634215E+02  0.51100000000E-03 0.  1.
         11    1    3    3    0    0  0.29044897728E+02  0.52723889329E+02 -0.33738419091E+02  0.69005039766E+02  0.51100000000E-03 0. -1.
<mgrwt>
<rscale>  0 0.12500043E+03</rscale>
<asrwt>0</asrwt>
<pdfrwt beam="2">  1        1 0.12455083E-01 0.12500043E+03</pdfrwt>
<pdfrwt beam="1">  1       -1 0.74231743E-02 0.12500043E+03</pdfrwt>
<totfact> 0.41600437E+04</totfact>
</mgrwt>
</event>
<event>
 5    1  0.8303392E-059  0.1250012E+03  0.7818608E-02  0.1235067E+00
          1   -1    0    0  501    0  0.00000000000E+00  0.00000000000E+00  0.26958900137E+03  0.26958900141E+03  0.46700000000E-02 0. -1.
         -1   -1    0    0    0  501 -0.00000000000E+00 -0.00000000000E+00 -0.14489929000E+02  0.14489929753E+02  0.46700000000E-02 0.  1.
         25    2    1    2    0    0  0.00000000000E+00  0.00000000000E+00  0.25509907237E+03  0.28407893116E+03  0.12500120962E+03 0.  0.
        -11    1    3    3    0    0  0.38614293380E+02  0.48571679240E+02  0.14456437423E+03  0.15731856208E+03  0.51100000000E-03 0.  1.
         11    1    3    3    0    0 -0.38614293380E+02 -0.48571679240E+02  0.11053469813E+03  0.12676036908E+03  0.51100000000E-03 0. -1.
<mgrwt>
<rscale>  0 0.12500121E+03</rscale>
<asrwt>0</asrwt>
<pdfrwt beam="1">  1        1 0.41475229E-01 0.12500121E+03</pdfrwt>
<pdfrwt beam="2">  1       -1 0.22292200E-02 0.12500121E+03</pdfrwt>
<totfact> 0.53284845E+04</totfact>
</mgrwt>
</event>
<event>
 4    1  0.8303392E-059  0.1251501E+03  0.7818608E-02  0.1234835E+00
         -1   -1    0    0    0  501 -0.00000000000E+00  0.00000000000E+00  0.20774184962E+02  0.20774185487E+02  0.46700000000E-02 0.  1.
          1   -1    0    0  501    0  0.00000000000E+00 -0.00000000000E+00 -0.18848570806E+03  0.18848570812E+03  0.46700000000E-02 0. -1.
        -11    1    1    2    0    0  0.56160225245E+02 -0.21993451194E+02 -0.55979056926E+02  0.82288137721E+02  0.51100000000E-03 0.  1.
         11    1    1    2    0    0 -0.56160225245E+02  0.21993451194E+02 -0.11173246617E+03  0.12697175588E+03  0.51100000000E-03 0. -1.
<mgrwt>
<rscale>  0 0.12515010E+03</rscale>
<asrwt>0</asrwt>
<pdfrwt beam="2">  1        1 0.28997800E-01 0.12515010E+03</pdfrwt>
<pdfrwt beam="1">  1       -1 0.31960286E-02 0.12515010E+03</pdfrwt>
<totfact> 0.49214596E+04</totfact>
</mgrwt>
</event>
<event>
 4    1  0.8303392E-059  0.1251910E+03  0.7818608E-02  0.1234771E+00
         -1   -1    0    0    0  501 -0.00000000000E+00  0.00000000000E+00  0.17399087731E+02  0.17399088358E+02  0.46700000000E-02 0.  1.
          1   -1    0    0  501    0  0.00000000000E+00 -0.00000000000E+00 -0.22519541721E+03  0.22519541725E+03  0.46700000000E-02 0. -1.
        -11    1    1    2    0    0 -0.75884464690E+01 -0.46701572106E+02 -0.18331406437E+03  0.18932159822E+03  0.51100000000E-03 0. -1.
         11    1    1    2    0    0  0.75884464690E+01  0.46701572106E+02 -0.24482265104E+02  0.53272907391E+02  0.51100000000E-03 0.  1.
<mgrwt>
<rscale>  0 0.12519097E+03</rscale>
<asrwt>0</asrwt>
<pdfrwt beam="2">  1        1 0.34645447E-01 0.12519097E+03</pdfrwt>
<pdfrwt beam="1">  1       -1 0.26767829E-02 0.12519097E+03</pdfrwt>
<totfact> 0.51074849E+04</totfact>
</mgrwt>
</event>
