<event>
 5    1  0.1247456E+001  0.9195110E+02  0.7546771E-02  0.1298194E+00
         -2   -1    0    0    0  501 -0.00000000000E+00  0.00000000000E+00  0.67958217651E+02  0.67958217651E+02  0.00000000000E+00 0. -1.
          2   -1    0    0  501    0  0.00000000000E+00 -0.00000000000E+00 -0.31103686487E+02  0.31103686487E+02  0.00000000000E+00 0.  1.
         23    2    1    2    0    0  0.00000000000E+00  0.00000000000E+00  0.36854531164E+02  0.99061904138E+02  0.91951097786E+02 0.  0.
        -13    1    3    3    0    0  0.32003334805E+01  0.36790623673E+02  0.47930423604E+02  0.60507170084E+02  0.00000000000E+00 0. -1.
         13    1    3    3    0    0 -0.32003334805E+01 -0.36790623673E+02 -0.11075892441E+02  0.38554734054E+02  0.00000000000E+00 0.  1.
<mgrwt>
<rscale>  0 0.91951098E+02</rscale>
<asrwt>0</asrwt>
<pdfrwt beam="2">  1        2 0.47851825E-02 0.91951098E+02</pdfrwt>
<pdfrwt beam="1">  1       -2 0.10455110E-01 0.91951098E+02</pdfrwt>
<totfact> 0.87109982E+04</totfact>
</mgrwt>
</event>
<event>
 5    1  0.1247456E+001  0.8938028E+02  0.7546771E-02  0.1304359E+00
          2   -1    0    0  501    0  0.00000000000E+00  0.00000000000E+00  0.28112644238E+03  0.28112644238E+03  0.00000000000E+00 0. -1.
         -2   -1    0    0    0  501 -0.00000000000E+00 -0.00000000000E+00 -0.71043074255E+01  0.71043074255E+01  0.00000000000E+00 0.  1.
         23    2    1    2    0    0  0.00000000000E+00  0.00000000000E+00  0.27402213496E+03  0.28823074981E+03  0.89380281319E+02 0.  0.
        -11    1    3    3    0    0 -0.42943621661E+02 -0.95335255028E+01  0.16243687674E+03  0.16828779420E+03  0.00000000000E+00 0. -1.
         11    1    3    3    0    0  0.42943621661E+02  0.95335255028E+01  0.11158525821E+03  0.11994295561E+03  0.00000000000E+00 0.  1.
<mgrwt>
<rscale>  0 0.89380281E+02</rscale>
<asrwt>0</asrwt>
<pdfrwt beam="1">  1        2 0.43250213E-01 0.89380281E+02</pdfrwt>
<pdfrwt beam="2">  1       -2 0.10929706E-02 0.89380281E+02</pdfrwt>
<totfact> 0.18491865E+05</totfact>
</mgrwt>
</event>
<event>
 5    1  0.1247456E+001  0.8986785E+02  0.7546771E-02  0.1303172E+00
         -3   -1    0    0    0  501 -0.00000000000E+00  0.00000000000E+00  0.45159094731E+02  0.45159094731E+02  0.00000000000E+00 0. -1.
          3   -1    0    0  501    0  0.00000000000E+00 -0.00000000000E+00 -0.44709880512E+02  0.44709880512E+02  0.00000000000E+00 0.  1.
         23    2    1    2    0    0  0.00000000000E+00  0.00000000000E+00  0.44921421887E+00  0.89868975242E+02  0.89867852526E+02 0.  0.
        -11    1    3    3    0    0 -0.17209732147E-01  0.28833968228E+02  0.34687476758E+02  0.45106751865E+02  0.00000000000E+00 0. -1.
         11    1    3    3    0    0  0.17209732147E-01 -0.28833968228E+02 -0.34238262540E+02  0.44762223377E+02  0.00000000000E+00 0.  1.
<mgrwt>
<rscale>  0 0.89867853E+02</rscale>
<asrwt>0</asrwt>
<pdfrwt beam="2">  1        3 0.68784431E-02 0.89867853E+02</pdfrwt>
<pdfrwt beam="1">  1       -3 0.69475531E-02 0.89867853E+02</pdfrwt>
<totfact> 0.36860812E+04</totfact>
</mgrwt>
</event>
<event>
 5    1  0.1247456E+001  0.9075147E+02  0.7546771E-02  0.1301042E+00
          3   -1    0    0  501    0  0.00000000000E+00  0.00000000000E+00  0.14821173558E+03  0.14821173558E+03  0.00000000000E+00 0. -1.
         -3   -1    0    0    0  501 -0.00000000000E+00 -0.00000000000E+00 -0.13891998030E+02  0.13891998030E+02  0.00000000000E+00 0.  1.
         23    2    1    2    0    0  0.00000000000E+00  0.00000000000E+00  0.13431973755E+03  0.16210373361E+03  0.90751465857E+02 0.  0.
        -13    1    3    3    0    0 -0.11542356767E+02 -0.38512722345E+02  0.10473466832E+03  0.11218648105E+03  0.00000000000E+00 0. -1.
         13    1    3    3    0    0  0.11542356767E+02  0.38512722345E+02  0.29585069238E+02  0.49917252569E+02  0.00000000000E+00 0.  1.
<mgrwt>
<rscale>  0 0.90751466E+02</rscale>
<asrwt>0</asrwt>
<pdfrwt beam="1">  1        3 0.22801804E-01 0.90751466E+02</pdfrwt>
<pdfrwt beam="2">  1       -3 0.21372306E-02 0.90751466E+02</pdfrwt>
<totfact> 0.30971650E+04</totfact>
</mgrwt>
</event>
<event>
 5    1  0.1247456E+001  0.9206932E+02  0.7546771E-02  0.1297917E+00
         -3   -1    0    0    0  501 -0.00000000000E+00  0.00000000000E+00  0.20890617168E+03  0.20890617168E+03  0.00000000000E+00 0.  1.
          3   -1    0    0  501    0  0.00000000000E+00 -0.00000000000E+00 -0.10144218220E+02  0.10144218220E+02  0.00000000000E+00 0. -1.
         23    2    1    2    0    0  0.00000000000E+00  0.00000000000E+00  0.19876195346E+03  0.21905038989E+03  0.92069317211E+02 0.  0.
        -13    1    3    3    0    0  0.79894242338E+01 -0.34685607733E+02  0.29923808311E+02  0.46501146086E+02  0.00000000000E+00 0. -1.
         13    1    3    3    0    0 -0.79894242338E+01  0.34685607733E+02  0.16883814514E+03  0.17254924381E+03  0.00000000000E+00 0.  1.
<mgrwt>
<rscale>  0 0.92069317E+02</rscale>
<asrwt>0</asrwt>
<pdfrwt beam="2">  1        3 0.15606491E-02 0.92069317E+02</pdfrwt>
<pdfrwt beam="1">  1       -3 0.32139408E-01 0.92069317E+02</pdfrwt>
<totfact> 0.26825437E+04</totfact>
</mgrwt>
</event>
<event>
 5    1  0.1247456E+001  0.8825737E+02  0.7546771E-02  0.1307127E+00
          2   -1    0    0  501    0  0.00000000000E+00  0.00000000000E+00  0.10805516696E+03  0.10805516696E+03  0.00000000000E+00 0. -1.
         -2   -1    0    0    0  501 -0.00000000000E+00 -0.00000000000E+00 -0.18021726885E+02  0.18021726885E+02  0.00000000000E+00 0.  1.
         23    2    1    2    0    0  0.00000000000E+00  0.00000000000E+00  0.90033440078E+02  0.12607689385E+03  0.88257367001E+02 0.  0.
        -13    1    3    3    0    0  0.42911920077E+02 -0.50506100155E+01  0.32207865526E+02  0.53891447818E+02  0.00000000000E+00 0.  1.
         13    1    3    3    0    0 -0.42911920077E+02  0.50506100155E+01  0.57825574552E+02  0.72185446029E+02  0.00000000000E+00 0. -1.
<mgrwt>
<rscale>  0 0.88257367E+02</rscale>
<asrwt>0</asrwt>
<pdfrwt beam="1">  1        2 0.16623871E-01 0.88257367E+02</pdfrwt>
<pdfrwt beam="2">  1       -2 0.27725734E-02 0.88257367E+02</pdfrwt>
<totfact> 0.13733661E+05</totfact>
</mgrwt>
</event>
<event>
 5    1  0.1247456E+001  0.8826316E+02  0.7546771E-02  0.1307113E+00
          2   -1    0    0  501    0  0.00000000000E+00  0.00000000000E+00  0.19063547453E+02  0.19063547453E+02  0.00000000000E+00 0.  1.
         -2   -1    0    0    0  501 -0.00000000000E+00 -0.00000000000E+00 -0.10216338336E+03  0.10216338336E+03  0.00000000000E+00 0. -1.
         23    2    1    2    0    0  0.00000000000E+00  0.00000000000E+00 -0.83099835907E+02  0.12122693081E+03  0.88263163475E+02 0.  0.
        -11    1    3    3    0    0 -0.79170845954E+01  0.43274012929E+02 -0.46362182924E+02  0.63912224410E+02  0.00000000000E+00 0.  1.
         11    1    3    3    0    0  0.79170845954E+01 -0.43274012929E+02 -0.36737652983E+02  0.57314706404E+02  0.00000000000E+00 0. -1.
<mgrwt>
<rscale>  0 0.88263163E+02</rscale>
<asrwt>0</asrwt>
<pdfrwt beam="1">  1        2 0.29328534E-02 0.88263163E+02</pdfrwt>
<pdfrwt beam="2">  1       -2 0.15717444E-01 0.88263163E+02</pdfrwt>
<totfact> 0.85973783E+04</totfact>
</mgrwt>
</event>
<event>
 5    1  0.1247456E+001  0.9050497E+02  0.7546771E-02  0.1301633E+00
         -4   -1    0    0    0  501 -0.00000000000E+00  0.00000000000E+00  0.15302622779E+03  0.15302622779E+03  0.00000000000E+00 0.  1.
          4   -1    0    0  501    0  0.00000000000E+00 -0.00000000000E+00 -0.13381936741E+02  0.13381936741E+02  0.00000000000E+00 0. -1.
         23    2    1    2    0    0  0.00000000000E+00  0.00000000000E+00  0.13964429105E+03  0.16640816453E+03  0.90504967818E+02 0.  0.
        -13    1    3    3    0    0 -0.22193259478E+02 -0.26888095786E+02  0.12286612722E+03  0.12771685746E+03  0.00000000000E+00 0.  1.
         13    1    3    3    0    0  0.22193259478E+02  0.26888095786E+02  0.16778163825E+02  0.38691307067E+02  0.00000000000E+00 0. -1.
<mgrwt>
<rscale>  0 0.90504968E+02</rscale>
<asrwt>0</asrwt>
<pdfrwt beam="2">  1        4 0.20587596E-02 0.90504968E+02</pdfrwt>
<pdfrwt beam="1">  1       -4 0.23542495E-01 0.90504968E+02</pdfrwt>
<totfact> 0.23333768E+04</totfact>
</mgrwt>
</event>
<event>
 5    1  0.1247456E+001  0.9209003E+02  0.7546771E-02  0.1297868E+00
          1   -1    0    0  501    0  0.00000000000E+00  0.00000000000E+00  0.10258114775E+02  0.10258114775E+02  0.00000000000E+00 0. -1.
         -1   -1    0    0    0  501 -0.00000000000E+00 -0.00000000000E+00 -0.20667964918E+03  0.20667964918E+03  0.00000000000E+00 0.  1.
         23    2    1    2    0    0  0.00000000000E+00  0.00000000000E+00 -0.19642153441E+03  0.21693776396E+03  0.92090033403E+02 0.  0.
        -11    1    3    3    0    0  0.41903975331E+01 -0.32209659449E+02 -0.17509232956E+03  0.17807960429E+03  0.00000000000E+00 0.  1.
         11    1    3    3    0    0 -0.41903975331E+01  0.32209659449E+02 -0.21329204847E+02  0.38858159667E+02  0.00000000000E+00 0. -1.
<mgrwt>
<rscale>  0 0.92090033E+02</rscale>
<asrwt>0</asrwt>
<pdfrwt beam="1">  1        1 0.15781716E-02 0.92090033E+02</pdfrwt>
<pdfrwt beam="2">  1       -1 0.31796866E-01 0.92090033E+02</pdfrwt>
<totfact> 0.67002173E+04</totfact>
</mgrwt>
</event>
<event>
 5    1  0.1247456E+001  0.9191509E+02  0.7546771E-02  0.1298279E+00
          1   -1    0    0  501    0  0.00000000000E+00  0.00000000000E+00  0.36509783458E+02  0.36509783458E+02  0.00000000000E+00 0. -1.
         -1   -1    0    0    0  501 -0.00000000000E+00 -0.00000000000E+00 -0.57850140089E+02  0.57850140089E+02  0.00000000000E+00 0.  1.
         23    2    1    2    0    0  0.00000000000E+00  0.00000000000E+00 -0.21340356630E+02  0.94359923547E+02  0.91915093161E+02 0.  0.
        -13    1    3    3    0    0 -0.36211228843E+02  0.99322144067E+01  0.16533607064E+02  0.41027577797E+02  0.00000000000E+00 0. -1.
         13    1    3    3    0    0  0.36211228843E+02 -0.99322144067E+01 -0.37873963695E+02  0.53332345751E+02  0.00000000000E+00 0.  1.
<mgrwt>
<rscale>  0 0.91915093E+02</rscale>
<asrwt>0</asrwt>
<pdfrwt beam="1">  1        1 0.56168898E-02 0.91915093E+02</pdfrwt>
<pdfrwt beam="2">  1       -1 0.89000215E-02 0.91915093E+02</pdfrwt>
<totfact> 0.87379782E+04</totfact>
</mgrwt>
</event>
<event>
 5    1  0.1247456E+001  0.9046080E+02  0.7546771E-02  0.1301740E+00
          2   -1    0    0  501    0  0.00000000000E+00  0.00000000000E+00  0.97978203931E+02  0.97978203931E+02  0.00000000000E+00 0. -1.
         -2   -1    0    0    0  501 -0.00000000000E+00 -0.00000000000E+00 -0.20880043043E+02  0.20880043043E+02  0.00000000000E+00 0.  1.
         23    2    1    2    0    0  0.00000000000E+00  0.00000000000E+00  0.77098160887E+02  0.11885824697E+03  0.90460800690E+02 0.  0.
        -11    1    3    3    0    0  0.57559930301E+01  0.37707697359E+02  0.66127922309E+01  0.38713446204E+02  0.00000000000E+00 0.  1.
         11    1    3    3    0    0 -0.57559930301E+01 -0.37707697359E+02  0.70485368656E+02  0.80144800770E+02  0.00000000000E+00 0. -1.
<mgrwt>
<rscale>  0 0.90460801E+02</rscale>
<asrwt>0</asrwt>
<pdfrwt beam="1">  1        2 0.15073570E-01 0.90460801E+02</pdfrwt>
<pdfrwt beam="2">  1       -2 0.32123144E-02 0.90460801E+02</pdfrwt>
<totfact> 0.12459200E+05</totfact>
</mgrwt>
</event>
<event>
 5    1  0.1247456E+001  0.9265585E+02  0.7546771E-02  0.1296545E+00
         -2   -1    0    0    0  501 -0.00000000000E+00  0.00000000000E+00  0.11653226166E+02  0.11653226166E+02  0.00000000000E+00 0.  1.
          2   -1    0    0  501    0  0.00000000000E+00 -0.00000000000E+00 -0.18417873937E+03  0.18417873937E+03  0.00000000000E+00 0. -1.
         23    2    1    2    0    0  0.00000000000E+00  0.00000000000E+00 -0.17252551321E+03  0.19583196554E+03  0.92655847194E+02 0.  0.
        -13    1    3    3    0    0  0.12760474231E+02 -0.26576687950E+02 -0.16179418588E+03  0.16445822762E+03  0.00000000000E+00 0. -1.
         13    1    3    3    0    0 -0.12760474231E+02  0.26576687950E+02 -0.10731327322E+02  0.31373737920E+02  0.00000000000E+00 0.  1.
<mgrwt>
<rscale>  0 0.92655847E+02</rscale>
<asrwt>0</asrwt>
<pdfrwt beam="2">  1        2 0.28335191E-01 0.92655847E+02</pdfrwt>
<pdfrwt beam="1">  1       -2 0.17928040E-02 0.92655847E+02</pdfrwt>
<totfact> 0.14377686E+05</totfact>
</mgrwt>
</event>
<event>
 5    1  0.1247456E+001  0.9132133E+02  0.7546771E-02  0.1299683E+00
         -1   -1    0    0    0  501 -0.00000000000E+00  0.00000000000E+00  0.35858077654E+03  0.35858077654E+03  0.00000000000E+00 0. -1.
          1   -1    0    0  501    0  0.00000000000E+00 -0.00000000000E+00 -0.58142998501E+01  0.58142998501E+01  0.00000000000E+00 0.  1.
         23    2    1    2    0    0  0.00000000000E+00  0.00000000000E+00  0.35276647669E+03  0.36439507639E+03  0.91321326212E+02 0.  0.
        -11    1    3    3    0    0  0.33305022658E+02 -0.31227827570E+02  0.17918894531E+03  0.18491370926E+03  0.00000000000E+00 0.  1.
         11    1    3    3    0    0 -0.33305022658E+02  0.31227827570E+02  0.17357753138E+03  0.17948136714E+03  0.00000000000E+00 0. -1.
<mgrwt>
<rscale>  0 0.91321326E+02</rscale>
<asrwt>0</asrwt>
<pdfrwt beam="2">  1        1 0.89450795E-03 0.91321326E+02</pdfrwt>
<pdfrwt beam="1">  1       -1 0.55166256E-01 0.91321326E+02</pdfrwt>
<totfact> 0.55935157E+04</totfact>
</mgrwt>
</event>
<event>
 5    1  0.1247456E+001  0.9048900E+02  0.7546771E-02  0.1301672E+00
          4   -1    0    0  501    0  0.00000000000E+00  0.00000000000E+00  0.19225722683E+03  0.19225722683E+03  0.00000000000E+00 0. -1.
         -4   -1    0    0    0  501 -0.00000000000E+00 -0.00000000000E+00 -0.10647530918E+02  0.10647530918E+02  0.00000000000E+00 0.  1.
         23    2    1    2    0    0  0.00000000000E+00  0.00000000000E+00  0.18160969591E+03  0.20290475774E+03  0.90488999702E+02 0.  0.
        -13    1    3    3    0    0  0.39602181370E+02 -0.16375120854E+02  0.12334448088E+03  0.13057694405E+03  0.00000000000E+00 0.  1.
         13    1    3    3    0    0 -0.39602181370E+02  0.16375120854E+02  0.58265215024E+02  0.72327813696E+02  0.00000000000E+00 0. -1.
<mgrwt>
<rscale>  0 0.90489000E+02</rscale>
<asrwt>0</asrwt>
<pdfrwt beam="1">  1        4 0.29578032E-01 0.90489000E+02</pdfrwt>
<pdfrwt beam="2">  1       -4 0.16380818E-02 0.90489000E+02</pdfrwt>
<totfact> 0.21700087E+04</totfact>
</mgrwt>
</event>
<event>
 4    1  0.1247456E+001  0.1725469E+03  0.7546771E-02  0.1175218E+00
         -1   -1    0    0    0  501 -0.00000000000E+00  0.00000000000E+00  0.23537220174E+02  0.23537220174E+02  0.00000000000E+00 0.  1.
          1   -1    0    0  501    0  0.00000000000E+00 -0.00000000000E+00 -0.31622732753E+03  0.31622732753E+03  0.00000000000E+00 0. -1.
        -11    1    1    2    0    0  0.30853276548E+02 -0.69416397681E+02 -0.65814533550E+02  0.10050927205E+03  0.00000000000E+00 0.  1.
         11    1    1    2    0    0 -0.30853276548E+02  0.69416397681E+02 -0.22687557381E+03  0.23925527566E+03  0.00000000000E+00 0. -1.
<mgrwt>
<rscale>  0 0.17254695E+03</rscale>
<asrwt>0</asrwt>
<pdfrwt beam="2">  1        1 0.48650359E-01 0.17254695E+03</pdfrwt>
<pdfrwt beam="1">  1       -1 0.36211107E-02 0.17254695E+03</pdfrwt>
<totfact> 0.22302817E+04</totfact>
</mgrwt>
</event>
<event>
 5    1  0.1247456E+001  0.9015568E+02  0.7546771E-02  0.1302475E+00
         -2   -1    0    0    0  501 -0.00000000000E+00  0.00000000000E+00  0.52192769006E+02  0.52192769006E+02  0.00000000000E+00 0.  1.
          2   -1    0    0  501    0  0.00000000000E+00 -0.00000000000E+00 -0.38932823454E+02  0.38932823454E+02  0.00000000000E+00 0. -1.
         23    2    1    2    0    0  0.00000000000E+00  0.00000000000E+00  0.13259945552E+02  0.91125592460E+02  0.90155684486E+02 0.  0.
        -13    1    3    3    0    0  0.25964532256E+02 -0.18260566323E+02  0.38980654956E+02  0.50270236508E+02  0.00000000000E+00 0.  1.
         13    1    3    3    0    0 -0.25964532256E+02  0.18260566323E+02 -0.25720709404E+02  0.40855355952E+02  0.00000000000E+00 0. -1.
<mgrwt>
<rscale>  0 0.90155684E+02</rscale>
<asrwt>0</asrwt>
<pdfrwt beam="2">  1        2 0.59896651E-02 0.90155684E+02</pdfrwt>
<pdfrwt beam="1">  1       -2 0.80296568E-02 0.90155684E+02</pdfrwt>
<totfact> 0.97864511E+04</totfact>
</mgrwt>
</event>
<event>
 5    1  0.1247456E+001  0.8962893E+02  0.7546771E-02  0.1303753E+00
         -2   -1    0    0    0  501 -0.00000000000E+00  0.00000000000E+00  0.19757585238E+02  0.19757585238E+02  0.00000000000E+00 0. -1.
          2   -1    0    0  501    0  0.00000000000E+00 -0.00000000000E+00 -0.10164887408E+03  0.10164887408E+03  0.00000000000E+00 0.  1.
         23    2    1    2    0    0  0.00000000000E+00  0.00000000000E+00 -0.81891288840E+02  0.12140645932E+03  0.89628930462E+02 0.  0.
        -13    1    3    3    0    0  0.95302084871E+01  0.15034196262E+02 -0.96654927961E+02  0.98280349156E+02  0.00000000000E+00 0.  1.
         13    1    3    3    0    0 -0.95302084871E+01 -0.15034196262E+02  0.14763639121E+02  0.23126110160E+02  0.00000000000E+00 0. -1.
<mgrwt>
<rscale>  0 0.89628930E+02</rscale>
<asrwt>0</asrwt>
<pdfrwt beam="2">  1        2 0.15638288E-01 0.89628930E+02</pdfrwt>
<pdfrwt beam="1">  1       -2 0.30396285E-02 0.89628930E+02</pdfrwt>
<totfact> 0.12922485E+05</totfact>
</mgrwt>
</event>
<event>
 5    1  0.1247456E+001  0.9166923E+02  0.7546771E-02  0.1298859E+00
         -2   -1    0    0    0  501 -0.00000000000E+00  0.00000000000E+00  0.13397149758E+02  0.13397149758E+02  0.00000000000E+00 0.  1.
          2   -1    0    0  501    0  0.00000000000E+00 -0.00000000000E+00 -0.15681036166E+03  0.15681036166E+03  0.00000000000E+00 0. -1.
         23    2    1    2    0    0  0.00000000000E+00  0.00000000000E+00 -0.14341321190E+03  0.17020751142E+03  0.91669229271E+02 0.  0.
        -11    1    3    3    0    0 -0.70171878024E+01  0.29301730580E+02 -0.75750697245E+01  0.31067893732E+02  0.00000000000E+00 0.  1.
         11    1    3    3    0    0  0.70171878024E+01 -0.29301730580E+02 -0.13583814217E+03  0.13913961768E+03  0.00000000000E+00 0. -1.
<mgrwt>
<rscale>  0 0.91669229E+02</rscale>
<asrwt>0</asrwt>
<pdfrwt beam="2">  1        2 0.24124671E-01 0.91669229E+02</pdfrwt>
<pdfrwt beam="1">  1       -2 0.20610999E-02 0.91669229E+02</pdfrwt>
<totfact> 0.13988882E+05</totfact>
</mgrwt>
</event>
<event>
 5    1  0.1247456E+001  0.9063901E+02  0.7546771E-02  0.1301312E+00
          1   -1    0    0  501    0  0.00000000000E+00  0.00000000000E+00  0.18629721054E+03  0.18629721054E+03  0.00000000000E+00 0. -1.
         -1   -1    0    0    0  501 -0.00000000000E+00 -0.00000000000E+00 -0.11024627334E+02  0.11024627334E+02  0.00000000000E+00 0.  1.
         23    2    1    2    0    0  0.00000000000E+00  0.00000000000E+00  0.17527258321E+03  0.19732183788E+03  0.90639005282E+02 0.  0.
        -11    1    3    3    0    0  0.44166857476E+02  0.70915778676E+01  0.71809047761E+02  0.84602252430E+02  0.00000000000E+00 0. -1.
         11    1    3    3    0    0 -0.44166857476E+02 -0.70915778676E+01  0.10346353545E+03  0.11271958545E+03  0.00000000000E+00 0.  1.
<mgrwt>
<rscale>  0 0.90639005E+02</rscale>
<asrwt>0</asrwt>
<pdfrwt beam="1">  1        1 0.28661107E-01 0.90639005E+02</pdfrwt>
<pdfrwt beam="2">  1       -1 0.16960966E-02 0.90639005E+02</pdfrwt>
<totfact> 0.11866290E+05</totfact>
</mgrwt>
</event>
<event>
 5    1  0.1247456E+001  0.9189027E+02  0.7546771E-02  0.1298338E+00
          2   -1    0    0  501    0  0.00000000000E+00  0.00000000000E+00  0.81835650462E+02  0.81835650462E+02  0.00000000000E+00 0. -1.
         -2   -1    0    0    0  501 -0.00000000000E+00 -0.00000000000E+00 -0.25795058849E+02  0.25795058849E+02  0.00000000000E+00 0.  1.
         23    2    1    2    0    0  0.00000000000E+00  0.00000000000E+00  0.56040591612E+02  0.10763070931E+03  0.91890269771E+02 0.  0.
        -11    1    3    3    0    0  0.23169169923E+02 -0.25120988184E+02  0.63990355546E+02  0.72544056167E+02  0.00000000000E+00 0. -1.
         11    1    3    3    0    0 -0.23169169923E+02  0.25120988184E+02 -0.79497639336E+01  0.35086653144E+02  0.00000000000E+00 0.  1.
<mgrwt>
<rscale>  0 0.91890270E+02</rscale>
<asrwt>0</asrwt>
<pdfrwt beam="1">  1        2 0.12590100E-01 0.91890270E+02</pdfrwt>
<pdfrwt beam="2">  1       -2 0.39684706E-02 0.91890270E+02</pdfrwt>
<totfact> 0.11312705E+05</totfact>
</mgrwt>
</event>
<event>
 5    1  0.1247456E+001  0.9224162E+02  0.7546771E-02  0.1297512E+00
         -2   -1    0    0    0  501 -0.00000000000E+00  0.00000000000E+00  0.13596973217E+03  0.13596973217E+03  0.00000000000E+00 0.  1.
          2   -1    0    0  501    0  0.00000000000E+00 -0.00000000000E+00 -0.15644137885E+02  0.15644137885E+02  0.00000000000E+00 0. -1.
         23    2    1    2    0    0  0.00000000000E+00  0.00000000000E+00  0.12032559428E+03  0.15161387005E+03  0.92241622671E+02 0.  0.
        -13    1    3    3    0    0 -0.43184352920E+02 -0.16175284440E+02  0.61437110155E+02  0.76818270405E+02  0.00000000000E+00 0.  1.
         13    1    3    3    0    0  0.43184352920E+02  0.16175284440E+02  0.58888484125E+02  0.74795599646E+02  0.00000000000E+00 0. -1.
<mgrwt>
<rscale>  0 0.92241623E+02</rscale>
<asrwt>0</asrwt>
<pdfrwt beam="2">  1        2 0.24067905E-02 0.92241623E+02</pdfrwt>
<pdfrwt beam="1">  1       -2 0.20918420E-01 0.92241623E+02</pdfrwt>
<totfact> 0.70241421E+04</totfact>
</mgrwt>
</event>
<event>
 5    1  0.1247456E+001  0.9346411E+02  0.7546771E-02  0.1294673E+00
         -4   -1    0    0    0  501 -0.00000000000E+00  0.00000000000E+00  0.16092811337E+02  0.16092811337E+02  0.00000000000E+00 0. -1.
          4   -1    0    0  501    0  0.00000000000E+00 -0.00000000000E+00 -0.13570563407E+03  0.13570563407E+03  0.00000000000E+00 0.  1.
         23    2    1    2    0    0  0.00000000000E+00  0.00000000000E+00 -0.11961282273E+03  0.15179844541E+03  0.93464114323E+02 0.  0.
        -11    1    3    3    0    0 -0.39052730537E+02 -0.58188985008E+01 -0.19205937245E+02  0.43907213162E+02  0.00000000000E+00 0. -1.
         11    1    3    3    0    0  0.39052730537E+02  0.58188985008E+01 -0.10040688549E+03  0.10789123225E+03  0.00000000000E+00 0.  1.
<mgrwt>
<rscale>  0 0.93464114E+02</rscale>
<asrwt>0</asrwt>
<pdfrwt beam="2">  1        4 0.20877790E-01 0.93464114E+02</pdfrwt>
<pdfrwt beam="1">  1       -4 0.24758171E-02 0.93464114E+02</pdfrwt>
<totfact> 0.22057344E+04</totfact>
</mgrwt>
</event>
<event>
 5    1  0.1247456E+001  0.9674746E+02  0.7546771E-02  0.1287288E+00
          2   -1    0    0  501    0  0.00000000000E+00  0.00000000000E+00  0.11638307879E+03  0.11638307879E+03  0.00000000000E+00 0. -1.
         -2   -1    0    0    0  501 -0.00000000000E+00 -0.00000000000E+00 -0.20106168470E+02  0.20106168470E+02  0.00000000000E+00 0.  1.
         23    2    1    2    0    0  0.00000000000E+00  0.00000000000E+00  0.96276910323E+02  0.13648924726E+03  0.96747460728E+02 0.  0.
        -13    1    3    3    0    0  0.45571458103E+02 -0.14377977286E+02  0.58745949719E+02  0.75726947864E+02  0.00000000000E+00 0.  1.
         13    1    3    3    0    0 -0.45571458103E+02  0.14377977286E+02  0.37530960604E+02  0.60762299400E+02  0.00000000000E+00 0. -1.
<mgrwt>
<rscale>  0 0.96747461E+02</rscale>
<asrwt>0</asrwt>
<pdfrwt beam="1">  1        2 0.17905089E-01 0.96747461E+02</pdfrwt>
<pdfrwt beam="2">  1       -2 0.30932568E-02 0.96747461E+02</pdfrwt>
<totfact> 0.10924670E+05</totfact>
</mgrwt>
</event>
<event>
 5    1  0.1247456E+001  0.8526241E+02  0.7546771E-02  0.1314748E+00
          3   -1    0    0  501    0  0.00000000000E+00  0.00000000000E+00  0.20253083590E+03  0.20253083590E+03  0.00000000000E+00 0. -1.
         -3   -1    0    0    0  501 -0.00000000000E+00 -0.00000000000E+00 -0.89735449804E+01  0.89735449804E+01  0.00000000000E+00 0.  1.
         23    2    1    2    0    0  0.00000000000E+00  0.00000000000E+00  0.19355729092E+03  0.21150438088E+03  0.85262408266E+02 0.  0.
        -11    1    3    3    0    0 -0.40390910629E+02  0.53502907658E+01  0.12789726975E+03  0.13423026068E+03  0.00000000000E+00 0.  1.
         11    1    3    3    0    0  0.40390910629E+02 -0.53502907658E+01  0.65660021166E+02  0.77274120197E+02  0.00000000000E+00 0. -1.
<mgrwt>
<rscale>  0 0.85262408E+02</rscale>
<asrwt>0</asrwt>
<pdfrwt beam="1">  1        3 0.31158587E-01 0.85262408E+02</pdfrwt>
<pdfrwt beam="2">  1       -3 0.13805455E-02 0.85262408E+02</pdfrwt>
<totfact> 0.33415840E+04</totfact>
</mgrwt>
</event>
<event>
 5    1  0.1247456E+001  0.9093068E+02  0.7546771E-02  0.1300613E+00
          1   -1    0    0  501    0  0.00000000000E+00  0.00000000000E+00  0.89504585044E+02  0.89504585044E+02  0.00000000000E+00 0. -1.
         -1   -1    0    0    0  501 -0.00000000000E+00 -0.00000000000E+00 -0.23094873626E+02  0.23094873626E+02  0.00000000000E+00 0.  1.
         23    2    1    2    0    0  0.00000000000E+00  0.00000000000E+00  0.66409711418E+02  0.11259945867E+03  0.90930678663E+02 0.  0.
        -13    1    3    3    0    0 -0.32824767503E+02  0.16294633433E+02  0.66526784656E+02  0.75952574131E+02  0.00000000000E+00 0. -1.
         13    1    3    3    0    0  0.32824767503E+02 -0.16294633433E+02 -0.11707323800E+00  0.36646884540E+02  0.00000000000E+00 0.  1.
<mgrwt>
<rscale>  0 0.90930679E+02</rscale>
<asrwt>0</asrwt>
<pdfrwt beam="1">  1        1 0.13769936E-01 0.90930679E+02</pdfrwt>
<pdfrwt beam="2">  1       -1 0.35530575E-02 0.90930679E+02</pdfrwt>
<totfact> 0.10332980E+05</totfact>
</mgrwt>
</event>
<event>
 5    1  0.1247456E+001  0.9014156E+02  0.7546771E-02  0.1302509E+00
          1   -1    0    0  501    0  0.00000000000E+00  0.00000000000E+00  0.88992973610E+01  0.88992973610E+01  0.00000000000E+00 0. -1.
         -1   -1    0    0    0  501 -0.00000000000E+00 -0.00000000000E+00 -0.22826244056E+03  0.22826244056E+03  0.00000000000E+00 0.  1.
         23    2    1    2    0    0  0.00000000000E+00  0.00000000000E+00 -0.21936314320E+03  0.23716173793E+03  0.90141562776E+02 0.  0.
        -13    1    3    3    0    0  0.11965993804E+02  0.39642035457E+02 -0.62860308183E+02  0.75273463637E+02  0.00000000000E+00 0. -1.
         13    1    3    3    0    0 -0.11965993804E+02 -0.39642035457E+02 -0.15650283502E+03  0.16188827429E+03  0.00000000000E+00 0.  1.
<mgrwt>
<rscale>  0 0.90141563E+02</rscale>
<asrwt>0</asrwt>
<pdfrwt beam="1">  1        1 0.13691225E-02 0.90141563E+02</pdfrwt>
<pdfrwt beam="2">  1       -1 0.35117303E-01 0.90141563E+02</pdfrwt>
<totfact> 0.68736955E+04</totfact>
</mgrwt>
</event>
<event>
 5    1  0.1247456E+001  0.7271949E+02  0.7546771E-02  0.1351082E+00
          2   -1    0    0  501    0  0.00000000000E+00  0.00000000000E+00  0.23968129632E+02  0.23968129632E+02  0.00000000000E+00 0. -1.
         -2   -1    0    0    0  501 -0.00000000000E+00 -0.00000000000E+00 -0.55157868121E+02  0.55157868121E+02  0.00000000000E+00 0.  1.
         23    2    1    2    0    0  0.00000000000E+00  0.00000000000E+00 -0.31189738490E+02  0.79125997753E+02  0.72719486614E+02 0.  0.
        -11    1    3    3    0    0 -0.34286549766E+02 -0.80688633060E+01 -0.25409309755E+02  0.43431636766E+02  0.00000000000E+00 0. -1.
         11    1    3    3    0    0  0.34286549766E+02  0.80688633060E+01 -0.57804287346E+01  0.35694360987E+02  0.00000000000E+00 0.  1.
<mgrwt>
<rscale>  0 0.72719487E+02</rscale>
<asrwt>0</asrwt>
<pdfrwt beam="1">  1        2 0.36874046E-02 0.72719487E+02</pdfrwt>
<pdfrwt beam="2">  1       -2 0.84858258E-02 0.72719487E+02</pdfrwt>
<totfact> 0.16191045E+05</totfact>
</mgrwt>
</event>
<event>
 5    1  0.1247456E+001  0.9288980E+02  0.7546771E-02  0.1296001E+00
          1   -1    0    0  501    0  0.00000000000E+00  0.00000000000E+00  0.97824229357E+02  0.97824229357E+02  0.00000000000E+00 0. -1.
         -1   -1    0    0    0  501 -0.00000000000E+00 -0.00000000000E+00 -0.22051069369E+02  0.22051069369E+02  0.00000000000E+00 0.  1.
         23    2    1    2    0    0  0.00000000000E+00  0.00000000000E+00  0.75773159989E+02  0.11987529873E+03  0.92889802831E+02 0.  0.
        -13    1    3    3    0    0 -0.23878230854E+02  0.21291682456E+02 -0.55640449576E+01  0.32472515252E+02  0.00000000000E+00 0.  1.
         13    1    3    3    0    0  0.23878230854E+02 -0.21291682456E+02  0.81337204946E+02  0.87402783474E+02  0.00000000000E+00 0. -1.
<mgrwt>
<rscale>  0 0.92889803E+02</rscale>
<asrwt>0</asrwt>
<pdfrwt beam="1">  1        1 0.15049881E-01 0.92889803E+02</pdfrwt>
<pdfrwt beam="2">  1       -1 0.33924723E-02 0.92889803E+02</pdfrwt>
<totfact> 0.98908697E+04</totfact>
</mgrwt>
</event>
<event>
 5    1  0.1247456E+001  0.9094301E+02  0.7546771E-02  0.1300584E+00
          2   -1    0    0  501    0  0.00000000000E+00  0.00000000000E+00  0.19731591729E+02  0.19731591729E+02  0.00000000000E+00 0. -1.
         -2   -1    0    0    0  501 -0.00000000000E+00 -0.00000000000E+00 -0.10478921136E+03  0.10478921136E+03  0.00000000000E+00 0.  1.
         23    2    1    2    0    0  0.00000000000E+00  0.00000000000E+00 -0.85057619634E+02  0.12452080309E+03  0.90943013723E+02 0.  0.
        -13    1    3    3    0    0 -0.30521388552E+02  0.14707966462E+02 -0.84054245497E+02  0.90625579295E+02  0.00000000000E+00 0.  1.
         13    1    3    3    0    0  0.30521388552E+02 -0.14707966462E+02 -0.10033741369E+01  0.33895223797E+02  0.00000000000E+00 0. -1.
<mgrwt>
<rscale>  0 0.90943014E+02</rscale>
<asrwt>0</asrwt>
<pdfrwt beam="1">  1        2 0.30356295E-02 0.90943014E+02</pdfrwt>
<pdfrwt beam="2">  1       -2 0.16121417E-01 0.90943014E+02</pdfrwt>
<totfact> 0.79195398E+04</totfact>
</mgrwt>
</event>
<event>
 5    1  0.1247456E+001  0.9102936E+02  0.7546771E-02  0.1300378E+00
         -2   -1    0    0    0  501 -0.00000000000E+00  0.00000000000E+00  0.58996684238E+02  0.58996684238E+02  0.00000000000E+00 0. -1.
          2   -1    0    0  501    0  0.00000000000E+00 -0.00000000000E+00 -0.35113599014E+02  0.35113599014E+02  0.00000000000E+00 0.  1.
         23    2    1    2    0    0  0.00000000000E+00  0.00000000000E+00  0.23883085224E+02  0.94110283251E+02  0.91029356000E+02 0.  0.
        -13    1    3    3    0    0  0.33980434785E+02  0.93291980470E+01  0.41724223647E+02  0.54613320018E+02  0.00000000000E+00 0. -1.
         13    1    3    3    0    0 -0.33980434785E+02 -0.93291980470E+01 -0.17841138424E+02  0.39496963233E+02  0.00000000000E+00 0.  1.
<mgrwt>
<rscale>  0 0.91029356E+02</rscale>
<asrwt>0</asrwt>
<pdfrwt beam="2">  1        2 0.54020921E-02 0.91029356E+02</pdfrwt>
<pdfrwt beam="1">  1       -2 0.90764130E-02 0.91029356E+02</pdfrwt>
<totfact> 0.92654098E+04</totfact>
</mgrwt>
</event>
<event>
 5    1  0.1247456E+001  0.8998662E+02  0.7546771E-02  0.1302884E+00
         -2   -1    0    0    0  501 -0.00000000000E+00  0.00000000000E+00  0.97338400306E+01  0.97338400306E+01  0.00000000000E+00 0.  1.
          2   -1    0    0  501    0  0.00000000000E+00 -0.00000000000E+00 -0.20797525831E+03  0.20797525831E+03  0.00000000000E+00 0. -1.
         23    2    1    2    0    0  0.00000000000E+00  0.00000000000E+00 -0.19824141828E+03  0.21770909834E+03  0.89986618887E+02 0.  0.
        -11    1    3    3    0    0  0.36049813520E+02 -0.24091210434E+02 -0.12819545675E+03  0.13532941516E+03  0.00000000000E+00 0. -1.
         11    1    3    3    0    0 -0.36049813520E+02  0.24091210434E+02 -0.70045961522E+02  0.82379683178E+02  0.00000000000E+00 0.  1.
<mgrwt>
<rscale>  0 0.89986619E+02</rscale>
<asrwt>0</asrwt>
<pdfrwt beam="2">  1        2 0.31996192E-01 0.89986619E+02</pdfrwt>
<pdfrwt beam="1">  1       -2 0.14975139E-02 0.89986619E+02</pdfrwt>
<totfact> 0.16252488E+05</totfact>
</mgrwt>
</event>
<event>
 5    1  0.1247456E+001  0.8901105E+02  0.7546771E-02  0.1305264E+00
          1   -1    0    0  501    0  0.00000000000E+00  0.00000000000E+00  0.21250718116E+02  0.21250718116E+02  0.00000000000E+00 0. -1.
         -1   -1    0    0    0  501 -0.00000000000E+00 -0.00000000000E+00 -0.93208232903E+02  0.93208232903E+02  0.00000000000E+00 0.  1.
         23    2    1    2    0    0  0.00000000000E+00  0.00000000000E+00 -0.71957514787E+02  0.11445895102E+03  0.89011052876E+02 0.  0.
        -13    1    3    3    0    0 -0.23423183953E+02  0.37842510880E+02 -0.35719314422E+02  0.57066370123E+02  0.00000000000E+00 0. -1.
         13    1    3    3    0    0  0.23423183953E+02 -0.37842510880E+02 -0.36238200365E+02  0.57392580896E+02  0.00000000000E+00 0.  1.
<mgrwt>
<rscale>  0 0.89011053E+02</rscale>
<asrwt>0</asrwt>
<pdfrwt beam="1">  1        1 0.32693413E-02 0.89011053E+02</pdfrwt>
<pdfrwt beam="2">  1       -1 0.14339728E-01 0.89011053E+02</pdfrwt>
<totfact> 0.87672343E+04</totfact>
</mgrwt>
</event>
<event>
 4    1  0.1247456E+001  0.1647264E+03  0.7546771E-02  0.1183462E+00
          1   -1    0    0  501    0  0.00000000000E+00  0.00000000000E+00  0.38734054523E+03  0.38734054523E+03  0.00000000000E+00 0. -1.
         -1   -1    0    0    0  501 -0.00000000000E+00 -0.00000000000E+00 -0.17513530596E+02  0.17513530596E+02  0.00000000000E+00 0.  1.
        -11    1    1    2    0    0 -0.41640077795E+02 -0.62258689569E+02  0.10071462307E+03  0.12551285116E+03  0.00000000000E+00 0.  1.
         11    1    1    2    0    0  0.41640077795E+02  0.62258689569E+02  0.26911239157E+03  0.27934122467E+03  0.00000000000E+00 0. -1.
<mgrwt>
<rscale>  0 0.16472645E+03</rscale>
<asrwt>0</asrwt>
<pdfrwt beam="1">  1        1 0.59590847E-01 0.16472645E+03</pdfrwt>
<pdfrwt beam="2">  1       -1 0.26943896E-02 0.16472645E+03</pdfrwt>
<totfact> 0.26549202E+04</totfact>
</mgrwt>
</event>
<event>
 5    1  0.1247456E+001  0.8814607E+02  0.7546771E-02  0.1307404E+00
         -3   -1    0    0    0  501 -0.00000000000E+00  0.00000000000E+00  0.23038586383E+02  0.23038586383E+02  0.00000000000E+00 0.  1.
          3   -1    0    0  501    0  0.00000000000E+00 -0.00000000000E+00 -0.84312131963E+02  0.84312131963E+02  0.00000000000E+00 0. -1.
         23    2    1    2    0    0  0.00000000000E+00  0.00000000000E+00 -0.61273545580E+02  0.10735071835E+03  0.88146068214E+02 0.  0.
        -11    1    3    3    0    0 -0.63603724797E+01 -0.34531262273E+02 -0.63078174372E+02  0.72192232922E+02  0.00000000000E+00 0. -1.
         11    1    3    3    0    0  0.63603724797E+01  0.34531262273E+02  0.18046287914E+01  0.35158485424E+02  0.00000000000E+00 0.  1.
<mgrwt>
<rscale>  0 0.88146068E+02</rscale>
<asrwt>0</asrwt>
<pdfrwt beam="2">  1        3 0.12971097E-01 0.88146068E+02</pdfrwt>
<pdfrwt beam="1">  1       -3 0.35443979E-02 0.88146068E+02</pdfrwt>
<totfact> 0.37409108E+04</totfact>
</mgrwt>
</event>
<event>
 5    1  0.1247456E+001  0.8629751E+02  0.7546771E-02  0.1312074E+00
          1   -1    0    0  501    0  0.00000000000E+00  0.00000000000E+00  0.28831502609E+03  0.28831502609E+03  0.00000000000E+00 0.  1.
         -1   -1    0    0    0  501 -0.00000000000E+00 -0.00000000000E+00 -0.64575720261E+01  0.64575720261E+01  0.00000000000E+00 0. -1.
         23    2    1    2    0    0  0.00000000000E+00  0.00000000000E+00  0.28185745406E+03  0.29477259811E+03  0.86297509747E+02 0.  0.
        -13    1    3    3    0    0  0.26269595708E+02 -0.34078684550E+02  0.15192658277E+03  0.15790229559E+03  0.00000000000E+00 0.  1.
         13    1    3    3    0    0 -0.26269595708E+02  0.34078684550E+02  0.12993087129E+03  0.13687030252E+03  0.00000000000E+00 0. -1.
<mgrwt>
<rscale>  0 0.86297510E+02</rscale>
<asrwt>0</asrwt>
<pdfrwt beam="1">  1        1 0.44356148E-01 0.86297510E+02</pdfrwt>
<pdfrwt beam="2">  1       -1 0.99347284E-03 0.86297510E+02</pdfrwt>
<totfact> 0.14715757E+05</totfact>
</mgrwt>
</event>
<event>
 5    1  0.1247456E+001  0.9539767E+02  0.7546771E-02  0.1290283E+00
          1   -1    0    0  501    0  0.00000000000E+00  0.00000000000E+00  0.13128889160E+02  0.13128889160E+02  0.00000000000E+00 0. -1.
         -1   -1    0    0    0  501 -0.00000000000E+00 -0.00000000000E+00 -0.17329561098E+03  0.17329561098E+03  0.00000000000E+00 0.  1.
         23    2    1    2    0    0  0.00000000000E+00  0.00000000000E+00 -0.16016672182E+03  0.18642450014E+03  0.95397670172E+02 0.  0.
        -11    1    3    3    0    0  0.15198447661E+02  0.25889078327E+02 -0.76482101644E+01  0.30979546586E+02  0.00000000000E+00 0. -1.
         11    1    3    3    0    0 -0.15198447661E+02 -0.25889078327E+02 -0.15251851166E+03  0.15544495356E+03  0.00000000000E+00 0.  1.
<mgrwt>
<rscale>  0 0.95397670E+02</rscale>
<asrwt>0</asrwt>
<pdfrwt beam="1">  1        1 0.20198292E-02 0.95397670E+02</pdfrwt>
<pdfrwt beam="2">  1       -1 0.26660861E-01 0.95397670E+02</pdfrwt>
<totfact> 0.64153340E+04</totfact>
</mgrwt>
</event>
<event>
 5    1  0.1247456E+001  0.9869764E+02  0.7546771E-02  0.1283059E+00
          2   -1    0    0  501    0  0.00000000000E+00  0.00000000000E+00  0.49727970802E+02  0.49727970802E+02  0.00000000000E+00 0.  1.
         -2   -1    0    0    0  501 -0.00000000000E+00 -0.00000000000E+00 -0.48972559077E+02  0.48972559077E+02  0.00000000000E+00 0. -1.
         23    2    1    2    0    0  0.00000000000E+00  0.00000000000E+00  0.75541172428E+00  0.98700529879E+02  0.98697639037E+02 0.  0.
        -13    1    3    3    0    0 -0.73012782213E+01 -0.44929447041E+02 -0.18684387349E+02  0.49204371815E+02  0.00000000000E+00 0. -1.
         13    1    3    3    0    0  0.73012782213E+01  0.44929447041E+02  0.19439799073E+02  0.49496158064E+02  0.00000000000E+00 0.  1.
<mgrwt>
<rscale>  0 0.98697639E+02</rscale>
<asrwt>0</asrwt>
<pdfrwt beam="1">  1        2 0.76504570E-02 0.98697639E+02</pdfrwt>
<pdfrwt beam="2">  1       -2 0.75342399E-02 0.98697639E+02</pdfrwt>
<totfact> 0.80345566E+04</totfact>
</mgrwt>
</event>
<event>
 5    1  0.1247456E+001  0.9129411E+02  0.7546771E-02  0.1299748E+00
          3   -1    0    0  501    0  0.00000000000E+00  0.00000000000E+00  0.23990147721E+03  0.23990147721E+03  0.00000000000E+00 0. -1.
         -3   -1    0    0    0  501 -0.00000000000E+00 -0.00000000000E+00 -0.86854559886E+01  0.86854559886E+01  0.00000000000E+00 0.  1.
         23    2    1    2    0    0  0.00000000000E+00  0.00000000000E+00  0.23121602122E+03  0.24858693319E+03  0.91294112009E+02 0.  0.
        -13    1    3    3    0    0 -0.23866965699E+02 -0.27986649496E+02  0.41999908285E+02  0.55828996925E+02  0.00000000000E+00 0.  1.
         13    1    3    3    0    0  0.23866965699E+02  0.27986649496E+02  0.18921611293E+03  0.19275793627E+03  0.00000000000E+00 0. -1.
<mgrwt>
<rscale>  0 0.91294112E+02</rscale>
<asrwt>0</asrwt>
<pdfrwt beam="1">  1        3 0.36907915E-01 0.91294112E+02</pdfrwt>
<pdfrwt beam="2">  1       -3 0.13362242E-02 0.91294112E+02</pdfrwt>
<totfact> 0.26076240E+04</totfact>
</mgrwt>
</event>
<event>
 5    1  0.1247456E+001  0.9006076E+02  0.7546771E-02  0.1302705E+00
          2   -1    0    0  501    0  0.00000000000E+00  0.00000000000E+00  0.16658485927E+02  0.16658485927E+02  0.00000000000E+00 0. -1.
         -2   -1    0    0    0  501 -0.00000000000E+00 -0.00000000000E+00 -0.12172386011E+03  0.12172386011E+03  0.00000000000E+00 0.  1.
         23    2    1    2    0    0  0.00000000000E+00  0.00000000000E+00 -0.10506537418E+03  0.13838234604E+03  0.90060761949E+02 0.  0.
        -11    1    3    3    0    0  0.26327155699E+02  0.23965427620E+02 -0.10165440065E+02  0.37024276089E+02  0.00000000000E+00 0. -1.
         11    1    3    3    0    0 -0.26327155699E+02 -0.23965427620E+02 -0.94899934118E+02  0.10135806995E+03  0.00000000000E+00 0.  1.
<mgrwt>
<rscale>  0 0.90060762E+02</rscale>
<asrwt>0</asrwt>
<pdfrwt beam="1">  1        2 0.25628440E-02 0.90060762E+02</pdfrwt>
<pdfrwt beam="2">  1       -2 0.18726747E-01 0.90060762E+02</pdfrwt>
<totfact> 0.77424688E+04</totfact>
</mgrwt>
</event>
<event>
 5    1  0.1247456E+001  0.8925691E+02  0.7546771E-02  0.1304661E+00
         -1   -1    0    0    0  501 -0.00000000000E+00  0.00000000000E+00  0.26682162660E+02  0.26682162660E+02  0.00000000000E+00 0.  1.
          1   -1    0    0  501    0  0.00000000000E+00 -0.00000000000E+00 -0.74645337634E+02  0.74645337634E+02  0.00000000000E+00 0. -1.
         23    2    1    2    0    0  0.00000000000E+00  0.00000000000E+00 -0.47963174974E+02  0.10132750029E+03  0.89256911005E+02 0.  0.
        -11    1    3    3    0    0 -0.28993348061E+02 -0.24845858231E+01  0.14430814218E+02  0.32481314590E+02  0.00000000000E+00 0.  1.
         11    1    3    3    0    0  0.28993348061E+02  0.24845858231E+01 -0.62393989192E+02  0.68846185703E+02  0.00000000000E+00 0. -1.
<mgrwt>
<rscale>  0 0.89256911E+02</rscale>
<asrwt>0</asrwt>
<pdfrwt beam="2">  1        1 0.11483898E-01 0.89256911E+02</pdfrwt>
<pdfrwt beam="1">  1       -1 0.41049482E-02 0.89256911E+02</pdfrwt>
<totfact> 0.10565066E+05</totfact>
</mgrwt>
</event>
<event>
 5    1  0.1247456E+001  0.9133148E+02  0.7546771E-02  0.1299659E+00
         -1   -1    0    0    0  501 -0.00000000000E+00  0.00000000000E+00  0.16950706739E+02  0.16950706739E+02  0.00000000000E+00 0.  1.
          1   -1    0    0  501    0  0.00000000000E+00 -0.00000000000E+00 -0.12302496058E+03  0.12302496058E+03  0.00000000000E+00 0. -1.
         23    2    1    2    0    0  0.00000000000E+00  0.00000000000E+00 -0.10607425384E+03  0.13997566732E+03  0.91331484787E+02 0.  0.
        -11    1    3    3    0    0  0.16180367469E+02  0.24516141760E+02  0.54982360739E+00  0.29379377192E+02  0.00000000000E+00 0.  1.
         11    1    3    3    0    0 -0.16180367469E+02 -0.24516141760E+02 -0.10662407744E+03  0.11059629012E+03  0.00000000000E+00 0. -1.
<mgrwt>
<rscale>  0 0.91331485E+02</rscale>
<asrwt>0</asrwt>
<pdfrwt beam="2">  1        1 0.18926917E-01 0.91331485E+02</pdfrwt>
<pdfrwt beam="1">  1       -1 0.26078011E-02 0.91331485E+02</pdfrwt>
<totfact> 0.10771150E+05</totfact>
</mgrwt>
</event>
<event>
 5    1  0.1247456E+001  0.8870952E+02  0.7546771E-02  0.1306007E+00
         -1   -1    0    0    0  501 -0.00000000000E+00  0.00000000000E+00  0.27595869485E+02  0.27595869485E+02  0.00000000000E+00 0.  1.
          1   -1    0    0  501    0  0.00000000000E+00 -0.00000000000E+00 -0.71291275107E+02  0.71291275107E+02  0.00000000000E+00 0. -1.
         23    2    1    2    0    0  0.00000000000E+00  0.00000000000E+00 -0.43695405622E+02  0.98887144592E+02  0.88709519743E+02 0.  0.
        -11    1    3    3    0    0 -0.33637797559E+02  0.17280376447E+02  0.39897978164E+01  0.38026718520E+02  0.00000000000E+00 0. -1.
         11    1    3    3    0    0  0.33637797559E+02 -0.17280376447E+02 -0.47685203438E+02  0.60860426072E+02  0.00000000000E+00 0.  1.
<mgrwt>
<rscale>  0 0.88709520E+02</rscale>
<asrwt>0</asrwt>
<pdfrwt beam="2">  1        1 0.10967888E-01 0.88709520E+02</pdfrwt>
<pdfrwt beam="1">  1       -1 0.42455185E-02 0.88709520E+02</pdfrwt>
<totfact> 0.10669501E+05</totfact>
</mgrwt>
</event>
<event>
 5    1  0.1247456E+001  0.9064860E+02  0.7546771E-02  0.1301289E+00
         -3   -1    0    0    0  501 -0.00000000000E+00  0.00000000000E+00  0.11025431069E+02  0.11025431069E+02  0.00000000000E+00 0.  1.
          3   -1    0    0  501    0  0.00000000000E+00 -0.00000000000E+00 -0.18632306380E+03  0.18632306380E+03  0.00000000000E+00 0. -1.
         23    2    1    2    0    0  0.00000000000E+00  0.00000000000E+00 -0.17529763273E+03  0.19734849487E+03  0.90648598368E+02 0.  0.
        -13    1    3    3    0    0  0.21825223581E+02  0.25798804588E+02 -0.21889236287E+02  0.40262356709E+02  0.00000000000E+00 0.  1.
         13    1    3    3    0    0 -0.21825223581E+02 -0.25798804588E+02 -0.15340839644E+03  0.15708613816E+03  0.00000000000E+00 0. -1.
<mgrwt>
<rscale>  0 0.90648598E+02</rscale>
<asrwt>0</asrwt>
<pdfrwt beam="2">  1        3 0.28665083E-01 0.90648598E+02</pdfrwt>
<pdfrwt beam="1">  1       -3 0.16962204E-02 0.90648598E+02</pdfrwt>
<totfact> 0.29088211E+04</totfact>
</mgrwt>
</event>
<event>
 5    1  0.1247456E+001  0.9450694E+02  0.7546771E-02  0.1292290E+00
         -1   -1    0    0    0  501 -0.00000000000E+00  0.00000000000E+00  0.28674668042E+02  0.28674668042E+02  0.00000000000E+00 0.  1.
          1   -1    0    0  501    0  0.00000000000E+00 -0.00000000000E+00 -0.77869788891E+02  0.77869788891E+02  0.00000000000E+00 0. -1.
         23    2    1    2    0    0  0.00000000000E+00  0.00000000000E+00 -0.49195120849E+02  0.10654445693E+03  0.94506938304E+02 0.  0.
        -11    1    3    3    0    0 -0.69120624277E+00 -0.42938229262E+02 -0.23702868325E+01  0.43009156675E+02  0.00000000000E+00 0.  1.
         11    1    3    3    0    0  0.69120624277E+00  0.42938229262E+02 -0.46824834016E+02  0.63535300258E+02  0.00000000000E+00 0. -1.
<mgrwt>
<rscale>  0 0.94506938E+02</rscale>
<asrwt>0</asrwt>
<pdfrwt beam="2">  1        1 0.11979967E-01 0.94506938E+02</pdfrwt>
<pdfrwt beam="1">  1       -1 0.44114874E-02 0.94506938E+02</pdfrwt>
<totfact> 0.90871139E+04</totfact>
</mgrwt>
</event>
<event>
 4    1  0.1247456E+001  0.3353744E+02  0.7546771E-02  0.1561986E+00
          2   -1    0    0  501    0  0.00000000000E+00  0.00000000000E+00  0.58935409873E+01  0.58935409873E+01  0.00000000000E+00 0. -1.
         -2   -1    0    0    0  501 -0.00000000000E+00 -0.00000000000E+00 -0.47711554406E+02  0.47711554406E+02  0.00000000000E+00 0.  1.
        -13    1    1    2    0    0 -0.80236297791E+01 -0.84814731470E+01 -0.40147645189E+02  0.41810853086E+02  0.00000000000E+00 0.  1.
         13    1    1    2    0    0  0.80236297791E+01  0.84814731470E+01 -0.16703682296E+01  0.11794242307E+02  0.00000000000E+00 0. -1.
<mgrwt>
<rscale>  0 0.33537442E+02</rscale>
<asrwt>0</asrwt>
<pdfrwt beam="1">  1        2 0.90669865E-03 0.33537442E+02</pdfrwt>
<pdfrwt beam="2">  1       -2 0.73402389E-02 0.33537442E+02</pdfrwt>
<totfact> 0.10583403E+06</totfact>
</mgrwt>
</event>
<event>
 5    1  0.1247456E+001  0.9038851E+02  0.7546771E-02  0.1301914E+00
         -1   -1    0    0    0  501 -0.00000000000E+00  0.00000000000E+00  0.79010923882E+01  0.79010923882E+01  0.00000000000E+00 0.  1.
          1   -1    0    0  501    0  0.00000000000E+00 -0.00000000000E+00 -0.25851117389E+03  0.25851117389E+03  0.00000000000E+00 0. -1.
         23    2    1    2    0    0  0.00000000000E+00  0.00000000000E+00 -0.25061008150E+03  0.26641226628E+03  0.90388509630E+02 0.  0.
        -11    1    3    3    0    0 -0.30385967450E+02  0.27610136275E+02 -0.18098650279E+03  0.18558486155E+03  0.00000000000E+00 0. -1.
         11    1    3    3    0    0  0.30385967450E+02 -0.27610136275E+02 -0.69623578712E+02  0.80827404732E+02  0.00000000000E+00 0.  1.
<mgrwt>
<rscale>  0 0.90388510E+02</rscale>
<asrwt>0</asrwt>
<pdfrwt beam="2">  1        1 0.39770954E-01 0.90388510E+02</pdfrwt>
<pdfrwt beam="1">  1       -1 0.12155526E-02 0.90388510E+02</pdfrwt>
<totfact> 0.12739696E+05</totfact>
</mgrwt>
</event>
<event>
 5    1  0.1247456E+001  0.9198505E+02  0.7546771E-02  0.1298115E+00
         -1   -1    0    0    0  501 -0.00000000000E+00  0.00000000000E+00  0.86968996853E+01  0.86968996853E+01  0.00000000000E+00 0.  1.
          1   -1    0    0  501    0  0.00000000000E+00 -0.00000000000E+00 -0.24322600066E+03  0.24322600066E+03  0.00000000000E+00 0. -1.
         23    2    1    2    0    0  0.00000000000E+00  0.00000000000E+00 -0.23452910097E+03  0.25192290034E+03  0.91985045058E+02 0.  0.
        -13    1    3    3    0    0  0.27991081485E+02 -0.30536729275E+02 -0.17199269997E+03  0.17691094178E+03  0.00000000000E+00 0. -1.
         13    1    3    3    0    0 -0.27991081485E+02  0.30536729275E+02 -0.62536401001E+02  0.75011958564E+02  0.00000000000E+00 0.  1.
<mgrwt>
<rscale>  0 0.91985045E+02</rscale>
<asrwt>0</asrwt>
<pdfrwt beam="2">  1        1 0.37419382E-01 0.91985045E+02</pdfrwt>
<pdfrwt beam="1">  1       -1 0.13379847E-02 0.91985045E+02</pdfrwt>
<totfact> 0.12013901E+05</totfact>
</mgrwt>
</event>
<event>
 5    1  0.1247456E+001  0.8462872E+02  0.7546771E-02  0.1316406E+00
         -1   -1    0    0    0  501 -0.00000000000E+00  0.00000000000E+00  0.45682141576E+02  0.45682141576E+02  0.00000000000E+00 0.  1.
          1   -1    0    0  501    0  0.00000000000E+00 -0.00000000000E+00 -0.39194860711E+02  0.39194860711E+02  0.00000000000E+00 0. -1.
         23    2    1    2    0    0  0.00000000000E+00  0.00000000000E+00  0.64872808647E+01  0.84877002287E+02  0.84628722690E+02 0.  0.
        -13    1    3    3    0    0 -0.13730022917E+02 -0.19523502408E+01  0.43338166926E+02  0.45502987960E+02  0.00000000000E+00 0.  1.
         13    1    3    3    0    0  0.13730022917E+02  0.19523502408E+01 -0.36850886061E+02  0.39374014327E+02  0.00000000000E+00 0. -1.
<mgrwt>
<rscale>  0 0.84628723E+02</rscale>
<asrwt>0</asrwt>
<pdfrwt beam="2">  1        1 0.60299785E-02 0.84628723E+02</pdfrwt>
<pdfrwt beam="1">  1       -1 0.70280218E-02 0.84628723E+02</pdfrwt>
<totfact> 0.11141958E+05</totfact>
</mgrwt>
</event>
<event>
 5    1  0.1247456E+001  0.8885884E+02  0.7546771E-02  0.1305639E+00
         -1   -1    0    0    0  501 -0.00000000000E+00  0.00000000000E+00  0.15097047861E+02  0.15097047861E+02  0.00000000000E+00 0. -1.
          1   -1    0    0  501    0  0.00000000000E+00 -0.00000000000E+00 -0.13075226200E+03  0.13075226200E+03  0.00000000000E+00 0.  1.
         23    2    1    2    0    0  0.00000000000E+00  0.00000000000E+00 -0.11565521414E+03  0.14584930986E+03  0.88858835403E+02 0.  0.
        -11    1    3    3    0    0 -0.19454799167E+02 -0.58090810678E+01 -0.12269223377E+03  0.12436084135E+03  0.00000000000E+00 0.  1.
         11    1    3    3    0    0  0.19454799167E+02  0.58090810678E+01  0.70370196346E+01  0.21488468508E+02  0.00000000000E+00 0. -1.
<mgrwt>
<rscale>  0 0.88858835E+02</rscale>
<asrwt>0</asrwt>
<pdfrwt beam="2">  1        1 0.20115733E-01 0.88858835E+02</pdfrwt>
<pdfrwt beam="1">  1       -1 0.23226227E-02 0.88858835E+02</pdfrwt>
<totfact> 0.11725559E+05</totfact>
</mgrwt>
</event>
<event>
 5    1  0.1247456E+001  0.8966863E+02  0.7546771E-02  0.1303656E+00
          3   -1    0    0  501    0  0.00000000000E+00  0.00000000000E+00  0.76587055060E+01  0.76587055060E+01  0.00000000000E+00 0. -1.
         -3   -1    0    0    0  501 -0.00000000000E+00 -0.00000000000E+00 -0.26246153598E+03  0.26246153598E+03  0.00000000000E+00 0.  1.
         23    2    1    2    0    0  0.00000000000E+00  0.00000000000E+00 -0.25480283047E+03  0.27012024148E+03  0.89668625744E+02 0.  0.
        -11    1    3    3    0    0 -0.28801725120E+02  0.31864284327E+02 -0.16612530477E+03  0.17158813732E+03  0.00000000000E+00 0.  1.
         11    1    3    3    0    0  0.28801725120E+02 -0.31864284327E+02 -0.88677525706E+02  0.98532104164E+02  0.00000000000E+00 0. -1.
<mgrwt>
<rscale>  0 0.89668626E+02</rscale>
<asrwt>0</asrwt>
<pdfrwt beam="1">  1        3 0.11782626E-02 0.89668626E+02</pdfrwt>
<pdfrwt beam="2">  1       -3 0.40378690E-01 0.89668626E+02</pdfrwt>
<totfact> 0.26383694E+04</totfact>
</mgrwt>
</event>
<event>
 5    1  0.1247456E+001  0.9041841E+02  0.7546771E-02  0.1301842E+00
         -1   -1    0    0    0  501 -0.00000000000E+00  0.00000000000E+00  0.11408604874E+03  0.11408604874E+03  0.00000000000E+00 0.  1.
          1   -1    0    0  501    0  0.00000000000E+00 -0.00000000000E+00 -0.17915180302E+02  0.17915180302E+02  0.00000000000E+00 0. -1.
         23    2    1    2    0    0  0.00000000000E+00  0.00000000000E+00  0.96170868438E+02  0.13200122904E+03  0.90418408151E+02 0.  0.
        -13    1    3    3    0    0 -0.32795912605E+02  0.15535083832E+02  0.87447401831E+02  0.94678185451E+02  0.00000000000E+00 0. -1.
         13    1    3    3    0    0  0.32795912605E+02 -0.15535083832E+02  0.87234666070E+01  0.37323043591E+02  0.00000000000E+00 0.  1.
<mgrwt>
<rscale>  0 0.90418408E+02</rscale>
<asrwt>0</asrwt>
<pdfrwt beam="2">  1        1 0.27561817E-02 0.90418408E+02</pdfrwt>
<pdfrwt beam="1">  1       -1 0.17551699E-01 0.90418408E+02</pdfrwt>
<totfact> 0.81063806E+04</totfact>
</mgrwt>
</event>
<event>
 5    1  0.1247456E+001  0.8437070E+02  0.7546771E-02  0.1317086E+00
          2   -1    0    0  501    0  0.00000000000E+00  0.00000000000E+00  0.19312705302E+03  0.19312705302E+03  0.00000000000E+00 0. -1.
         -2   -1    0    0    0  501 -0.00000000000E+00 -0.00000000000E+00 -0.92146777681E+01  0.92146777681E+01  0.00000000000E+00 0.  1.
         23    2    1    2    0    0  0.00000000000E+00  0.00000000000E+00  0.18391237525E+03  0.20234173079E+03  0.84370695430E+02 0.  0.
        -13    1    3    3    0    0 -0.83928150270E+01  0.41341603650E+02  0.92411383730E+02  0.10158460208E+03  0.00000000000E+00 0.  1.
         13    1    3    3    0    0  0.83928150270E+01 -0.41341603650E+02  0.91500991520E+02  0.10075712871E+03  0.00000000000E+00 0. -1.
<mgrwt>
<rscale>  0 0.84370695E+02</rscale>
<asrwt>0</asrwt>
<pdfrwt beam="1">  1        2 0.29711851E-01 0.84370695E+02</pdfrwt>
<pdfrwt beam="2">  1       -2 0.14176429E-02 0.84370695E+02</pdfrwt>
<totfact> 0.18805081E+05</totfact>
</mgrwt>
</event>
<event>
 5    1  0.1247456E+001  0.9821508E+02  0.7546771E-02  0.1284095E+00
          3   -1    0    0  501    0  0.00000000000E+00  0.00000000000E+00  0.29504584602E+02  0.29504584602E+02  0.00000000000E+00 0. -1.
         -3   -1    0    0    0  501 -0.00000000000E+00 -0.00000000000E+00 -0.81734764273E+02  0.81734764273E+02  0.00000000000E+00 0.  1.
         23    2    1    2    0    0  0.00000000000E+00  0.00000000000E+00 -0.52230179671E+02  0.11123934888E+03  0.98215075573E+02 0.  0.
        -11    1    3    3    0    0 -0.17145791580E+02 -0.30208029729E+02  0.13202083107E+02  0.37159093468E+02  0.00000000000E+00 0. -1.
         11    1    3    3    0    0  0.17145791580E+02  0.30208029729E+02 -0.65432262778E+02  0.74080255408E+02  0.00000000000E+00 0.  1.
<mgrwt>
<rscale>  0 0.98215076E+02</rscale>
<asrwt>0</asrwt>
<pdfrwt beam="1">  1        3 0.45391669E-02 0.98215076E+02</pdfrwt>
<pdfrwt beam="2">  1       -3 0.12574579E-01 0.98215076E+02</pdfrwt>
<totfact> 0.27630037E+04</totfact>
</mgrwt>
</event>
<event>
 5    1  0.1247456E+001  0.8471956E+02  0.7546771E-02  0.1316168E+00
         -2   -1    0    0    0  501 -0.00000000000E+00  0.00000000000E+00  0.34510521295E+02  0.34510521295E+02  0.00000000000E+00 0.  1.
          2   -1    0    0  501    0  0.00000000000E+00 -0.00000000000E+00 -0.51994320632E+02  0.51994320632E+02  0.00000000000E+00 0. -1.
         23    2    1    2    0    0  0.00000000000E+00  0.00000000000E+00 -0.17483799337E+02  0.86504841927E+02  0.84719563488E+02 0.  0.
        -13    1    3    3    0    0  0.31630701654E+02  0.10722625634E+02  0.17862389173E+02  0.37875334118E+02  0.00000000000E+00 0.  1.
         13    1    3    3    0    0 -0.31630701654E+02 -0.10722625634E+02 -0.35346188509E+02  0.48629507809E+02  0.00000000000E+00 0. -1.
<mgrwt>
<rscale>  0 0.84719563E+02</rscale>
<asrwt>0</asrwt>
<pdfrwt beam="2">  1        2 0.79991262E-02 0.84719563E+02</pdfrwt>
<pdfrwt beam="1">  1       -2 0.53093110E-02 0.84719563E+02</pdfrwt>
<totfact> 0.12564774E+05</totfact>
</mgrwt>
</event>
<event>
 5    1  0.1247456E+001  0.9138016E+02  0.7546771E-02  0.1299543E+00
         -3   -1    0    0    0  501 -0.00000000000E+00  0.00000000000E+00  0.29480539804E+02  0.29480539804E+02  0.00000000000E+00 0.  1.
          3   -1    0    0  501    0  0.00000000000E+00 -0.00000000000E+00 -0.70812252232E+02  0.70812252232E+02  0.00000000000E+00 0. -1.
         23    2    1    2    0    0  0.00000000000E+00  0.00000000000E+00 -0.41331712428E+02  0.10029279204E+03  0.91380160221E+02 0.  0.
        -13    1    3    3    0    0  0.72766695715E+01  0.42472986999E+02 -0.37335323445E+02  0.57016058452E+02  0.00000000000E+00 0. -1.
         13    1    3    3    0    0 -0.72766695715E+01 -0.42472986999E+02 -0.39963889834E+01  0.43276733583E+02  0.00000000000E+00 0.  1.
<mgrwt>
<rscale>  0 0.91380160E+02</rscale>
<asrwt>0</asrwt>
<pdfrwt beam="2">  1        3 0.10894193E-01 0.91380160E+02</pdfrwt>
<pdfrwt beam="1">  1       -3 0.45354677E-02 0.91380160E+02</pdfrwt>
<totfact> 0.34439509E+04</totfact>
</mgrwt>
</event>
<event>
 5    1  0.1247456E+001  0.8916480E+02  0.7546771E-02  0.1304887E+00
          4   -1    0    0  501    0  0.00000000000E+00  0.00000000000E+00  0.19970719407E+03  0.19970719407E+03  0.00000000000E+00 0. -1.
         -4   -1    0    0    0  501 -0.00000000000E+00 -0.00000000000E+00 -0.99525219401E+01  0.99525219401E+01  0.00000000000E+00 0.  1.
         23    2    1    2    0    0  0.00000000000E+00  0.00000000000E+00  0.18975467213E+03  0.20965971601E+03  0.89164796431E+02 0.  0.
        -11    1    3    3    0    0  0.39344464770E+02 -0.19235336465E+02  0.11449477318E+03  0.12258482028E+03  0.00000000000E+00 0. -1.
         11    1    3    3    0    0 -0.39344464770E+02  0.19235336465E+02  0.75259898952E+02  0.87074895735E+02  0.00000000000E+00 0.  1.
<mgrwt>
<rscale>  0 0.89164796E+02</rscale>
<asrwt>0</asrwt>
<pdfrwt beam="1">  1        4 0.30724181E-01 0.89164796E+02</pdfrwt>
<pdfrwt beam="2">  1       -4 0.15311574E-02 0.89164796E+02</pdfrwt>
<totfact> 0.22276097E+04</totfact>
</mgrwt>
</event>
<event>
 4    1  0.1247456E+001  0.2211483E+03  0.7546771E-02  0.1133030E+00
          1   -1    0    0  501    0  0.00000000000E+00  0.00000000000E+00  0.34159443283E+03  0.34159443283E+03  0.00000000000E+00 0. -1.
         -1   -1    0    0    0  501 -0.00000000000E+00 -0.00000000000E+00 -0.35792856930E+02  0.35792856930E+02  0.00000000000E+00 0.  1.
        -13    1    1    2    0    0 -0.71013959521E+02 -0.79884696599E+02  0.10457085550E+03  0.14953130447E+03  0.00000000000E+00 0.  1.
         13    1    1    2    0    0  0.71013959521E+02  0.79884696599E+02  0.20123072040E+03  0.22785598529E+03  0.00000000000E+00 0. -1.
<mgrwt>
<rscale>  0 0.22114828E+03</rscale>
<asrwt>0</asrwt>
<pdfrwt beam="1">  1        1 0.52552987E-01 0.22114828E+03</pdfrwt>
<pdfrwt beam="2">  1       -1 0.55065936E-02 0.22114828E+03</pdfrwt>
<totfact> 0.11059719E+04</totfact>
</mgrwt>
</event>
<event>
 5    1  0.1247456E+001  0.8974216E+02  0.7546771E-02  0.1303477E+00
          3   -1    0    0  501    0  0.00000000000E+00  0.00000000000E+00  0.64816559079E+02  0.64816559079E+02  0.00000000000E+00 0. -1.
         -3   -1    0    0    0  501 -0.00000000000E+00 -0.00000000000E+00 -0.31063263255E+02  0.31063263255E+02  0.00000000000E+00 0.  1.
         23    2    1    2    0    0  0.00000000000E+00  0.00000000000E+00  0.33753295825E+02  0.95879822334E+02  0.89742160391E+02 0.  0.
        -11    1    3    3    0    0  0.15980159562E+02  0.17977761515E+02  0.57346695372E+02  0.62186886711E+02  0.00000000000E+00 0. -1.
         11    1    3    3    0    0 -0.15980159562E+02 -0.17977761515E+02 -0.23593399547E+02  0.33692935623E+02  0.00000000000E+00 0.  1.
<mgrwt>
<rscale>  0 0.89742160E+02</rscale>
<asrwt>0</asrwt>
<pdfrwt beam="1">  1        3 0.99717783E-02 0.89742160E+02</pdfrwt>
<pdfrwt beam="2">  1       -3 0.47789636E-02 0.89742160E+02</pdfrwt>
<totfact> 0.36519476E+04</totfact>
</mgrwt>
</event>
<event>
 5    1  0.1247456E+001  0.8998597E+02  0.7546771E-02  0.1302886E+00
         -2   -1    0    0    0  501 -0.00000000000E+00  0.00000000000E+00  0.19424054800E+02  0.19424054800E+02  0.00000000000E+00 0.  1.
          2   -1    0    0  501    0  0.00000000000E+00 -0.00000000000E+00 -0.10421968622E+03  0.10421968622E+03  0.00000000000E+00 0. -1.
         23    2    1    2    0    0  0.00000000000E+00  0.00000000000E+00 -0.84795631425E+02  0.12364374102E+03  0.89985974383E+02 0.  0.
        -11    1    3    3    0    0 -0.21619031591E+02  0.55614402244E+01 -0.96074126100E+02  0.98633411429E+02  0.00000000000E+00 0. -1.
         11    1    3    3    0    0  0.21619031591E+02 -0.55614402244E+01  0.11278494675E+02  0.25010329595E+02  0.00000000000E+00 0.  1.
<mgrwt>
<rscale>  0 0.89985974E+02</rscale>
<asrwt>0</asrwt>
<pdfrwt beam="2">  1        2 0.16033798E-01 0.89985974E+02</pdfrwt>
<pdfrwt beam="1">  1       -2 0.29883161E-02 0.89985974E+02</pdfrwt>
<totfact> 0.12880279E+05</totfact>
</mgrwt>
</event>
<event>
 5    1  0.1247456E+001  0.9070256E+02  0.7546771E-02  0.1301159E+00
         -1   -1    0    0    0  501 -0.00000000000E+00  0.00000000000E+00  0.23604018626E+02  0.23604018626E+02  0.00000000000E+00 0.  1.
          1   -1    0    0  501    0  0.00000000000E+00 -0.00000000000E+00 -0.87135095676E+02  0.87135095676E+02  0.00000000000E+00 0. -1.
         23    2    1    2    0    0  0.00000000000E+00  0.00000000000E+00 -0.63531077051E+02  0.11073911430E+03  0.90702556111E+02 0.  0.
        -11    1    3    3    0    0  0.20412668364E+02  0.18413164702E+02 -0.75803069803E+02  0.80633907605E+02  0.00000000000E+00 0. -1.
         11    1    3    3    0    0 -0.20412668364E+02 -0.18413164702E+02  0.12271992753E+02  0.30105206696E+02  0.00000000000E+00 0.  1.
<mgrwt>
<rscale>  0 0.90702556E+02</rscale>
<asrwt>0</asrwt>
<pdfrwt beam="2">  1        1 0.13405399E-01 0.90702556E+02</pdfrwt>
<pdfrwt beam="1">  1       -1 0.36313875E-02 0.90702556E+02</pdfrwt>
<totfact> 0.10359250E+05</totfact>
</mgrwt>
</event>
<event>
 5    1  0.1247456E+001  0.9247572E+02  0.7546771E-02  0.1296965E+00
          4   -1    0    0  501    0  0.00000000000E+00  0.00000000000E+00  0.19101981423E+03  0.19101981423E+03  0.00000000000E+00 0.  1.
         -4   -1    0    0    0  501 -0.00000000000E+00 -0.00000000000E+00 -0.11192241569E+02  0.11192241569E+02  0.00000000000E+00 0. -1.
         23    2    1    2    0    0  0.00000000000E+00  0.00000000000E+00  0.17982757266E+03  0.20221205580E+03  0.92475724498E+02 0.  0.
        -11    1    3    3    0    0  0.23990969620E+02  0.27686904696E+02  0.28228211885E+02  0.46248927135E+02  0.00000000000E+00 0. -1.
         11    1    3    3    0    0 -0.23990969620E+02 -0.27686904696E+02  0.15159936078E+03  0.15596312867E+03  0.00000000000E+00 0.  1.
<mgrwt>
<rscale>  0 0.92475724E+02</rscale>
<asrwt>0</asrwt>
<pdfrwt beam="1">  1        4 0.29387661E-01 0.92475724E+02</pdfrwt>
<pdfrwt beam="2">  1       -4 0.17218835E-02 0.92475724E+02</pdfrwt>
<totfact> 0.20500898E+04</totfact>
</mgrwt>
</event>
<event>
 5    1  0.1247456E+001  0.8238650E+02  0.7546771E-02  0.1322412E+00
          4   -1    0    0  501    0  0.00000000000E+00  0.00000000000E+00  0.10564986150E+03  0.10564986150E+03  0.00000000000E+00 0. -1.
         -4   -1    0    0    0  501 -0.00000000000E+00 -0.00000000000E+00 -0.16061391746E+02  0.16061391746E+02  0.00000000000E+00 0.  1.
         23    2    1    2    0    0  0.00000000000E+00  0.00000000000E+00  0.89588469759E+02  0.12171125325E+03  0.82386499223E+02 0.  0.
        -11    1    3    3    0    0  0.24991418179E+01 -0.25222769359E+02  0.92766219164E+02  0.96166549392E+02  0.00000000000E+00 0. -1.
         11    1    3    3    0    0 -0.24991418179E+01  0.25222769359E+02 -0.31777494055E+01  0.25544703859E+02  0.00000000000E+00 0.  1.
<mgrwt>
<rscale>  0 0.82386499E+02</rscale>
<asrwt>0</asrwt>
<pdfrwt beam="1">  1        4 0.16253824E-01 0.82386499E+02</pdfrwt>
<pdfrwt beam="2">  1       -4 0.24709834E-02 0.82386499E+02</pdfrwt>
<totfact> 0.33028955E+04</totfact>
</mgrwt>
</event>
<event>
 5    1  0.1247456E+001  0.9851938E+02  0.7546771E-02  0.1283441E+00
         -2   -1    0    0    0  501 -0.00000000000E+00  0.00000000000E+00  0.64556072778E+01  0.64556072778E+01  0.00000000000E+00 0. -1.
          2   -1    0    0  501    0  0.00000000000E+00 -0.00000000000E+00 -0.37587744426E+03  0.37587744426E+03  0.00000000000E+00 0.  1.
         23    2    1    2    0    0  0.00000000000E+00  0.00000000000E+00 -0.36942183698E+03  0.38233305154E+03  0.98519382149E+02 0.  0.
        -11    1    3    3    0    0  0.13191688740E+02 -0.44836812324E+02 -0.24510139748E+03  0.24951764555E+03  0.00000000000E+00 0. -1.
         11    1    3    3    0    0 -0.13191688740E+02  0.44836812324E+02 -0.12432043950E+03  0.13281540599E+03  0.00000000000E+00 0.  1.
<mgrwt>
<rscale>  0 0.98519382E+02</rscale>
<asrwt>0</asrwt>
<pdfrwt beam="2">  1        2 0.57827297E-01 0.98519382E+02</pdfrwt>
<pdfrwt beam="1">  1       -2 0.99317038E-03 0.98519382E+02</pdfrwt>
<totfact> 0.15873733E+05</totfact>
</mgrwt>
</event>
<event>
 5    1  0.1247456E+001  0.9148497E+02  0.7546771E-02  0.1299295E+00
          2   -1    0    0  501    0  0.00000000000E+00  0.00000000000E+00  0.92482736143E+02  0.92482736143E+02  0.00000000000E+00 0. -1.
         -2   -1    0    0    0  501 -0.00000000000E+00 -0.00000000000E+00 -0.22624494041E+02  0.22624494041E+02  0.00000000000E+00 0.  1.
         23    2    1    2    0    0  0.00000000000E+00  0.00000000000E+00  0.69858242102E+02  0.11510723018E+03  0.91484973908E+02 0.  0.
        -13    1    3    3    0    0 -0.38633145104E+02 -0.92517482102E+01  0.63461919124E+02  0.74870086980E+02  0.00000000000E+00 0. -1.
         13    1    3    3    0    0  0.38633145104E+02  0.92517482102E+01  0.63963229782E+01  0.40237143204E+02  0.00000000000E+00 0.  1.
<mgrwt>
<rscale>  0 0.91484974E+02</rscale>
<asrwt>0</asrwt>
<pdfrwt beam="1">  1        2 0.14228113E-01 0.91484974E+02</pdfrwt>
<pdfrwt beam="2">  1       -2 0.34806914E-02 0.91484974E+02</pdfrwt>
<totfact> 0.11870968E+05</totfact>
</mgrwt>
</event>
<event>
 5    1  0.1247456E+001  0.9185968E+02  0.7546771E-02  0.1298410E+00
         -1   -1    0    0    0  501 -0.00000000000E+00  0.00000000000E+00  0.29470054006E+03  0.29470054006E+03  0.00000000000E+00 0.  1.
          1   -1    0    0  501    0  0.00000000000E+00 -0.00000000000E+00 -0.71582834584E+01  0.71582834584E+01  0.00000000000E+00 0. -1.
         23    2    1    2    0    0  0.00000000000E+00  0.00000000000E+00  0.28754225660E+03  0.30185882351E+03  0.91859675616E+02 0.  0.
        -13    1    3    3    0    0  0.31442251437E+02  0.28650738234E+02  0.86847801443E+02  0.96705845698E+02  0.00000000000E+00 0. -1.
         13    1    3    3    0    0 -0.31442251437E+02 -0.28650738234E+02  0.20069445516E+03  0.20515297782E+03  0.00000000000E+00 0.  1.
<mgrwt>
<rscale>  0 0.91859676E+02</rscale>
<asrwt>0</asrwt>
<pdfrwt beam="2">  1        1 0.11012746E-02 0.91859676E+02</pdfrwt>
<pdfrwt beam="1">  1       -1 0.45338535E-01 0.91859676E+02</pdfrwt>
<totfact> 0.59829987E+04</totfact>
</mgrwt>
</event>
<event>
 5    1  0.1247456E+001  0.8882287E+02  0.7546771E-02  0.1305728E+00
         -2   -1    0    0    0  501 -0.00000000000E+00  0.00000000000E+00  0.13243334437E+03  0.13243334437E+03  0.00000000000E+00 0.  1.
          2   -1    0    0  501    0  0.00000000000E+00 -0.00000000000E+00 -0.14893346897E+02  0.14893346897E+02  0.00000000000E+00 0. -1.
         23    2    1    2    0    0  0.00000000000E+00  0.00000000000E+00  0.11753999747E+03  0.14732669127E+03  0.88822874046E+02 0.  0.
        -11    1    3    3    0    0  0.32418580581E+02  0.14810225413E+02  0.14821262929E+02  0.38600219928E+02  0.00000000000E+00 0. -1.
         11    1    3    3    0    0 -0.32418580581E+02 -0.14810225413E+02  0.10271873454E+03  0.10872647134E+03  0.00000000000E+00 0.  1.
<mgrwt>
<rscale>  0 0.88822874E+02</rscale>
<asrwt>0</asrwt>
<pdfrwt beam="2">  1        2 0.22912842E-02 0.88822874E+02</pdfrwt>
<pdfrwt beam="1">  1       -2 0.20374360E-01 0.88822874E+02</pdfrwt>
<totfact> 0.77955955E+04</totfact>
</mgrwt>
</event>
<event>
 5    1  0.1247456E+001  0.9218523E+02  0.7546771E-02  0.1297644E+00
         -1   -1    0    0    0  501 -0.00000000000E+00  0.00000000000E+00  0.11079206059E+02  0.11079206059E+02  0.00000000000E+00 0.  1.
          1   -1    0    0  501    0  0.00000000000E+00 -0.00000000000E+00 -0.19175826973E+03  0.19175826973E+03  0.00000000000E+00 0. -1.
         23    2    1    2    0    0  0.00000000000E+00  0.00000000000E+00 -0.18067906367E+03  0.20283747578E+03  0.92185234908E+02 0.  0.
        -11    1    3    3    0    0 -0.45962999744E+02  0.46234782874E+00 -0.82807387529E+02  0.94709421603E+02  0.00000000000E+00 0.  1.
         11    1    3    3    0    0  0.45962999744E+02 -0.46234782874E+00 -0.97871676137E+02  0.10812805418E+03  0.00000000000E+00 0. -1.
<mgrwt>
<rscale>  0 0.92185235E+02</rscale>
<asrwt>0</asrwt>
<pdfrwt beam="2">  1        1 0.29501271E-01 0.92185235E+02</pdfrwt>
<pdfrwt beam="1">  1       -1 0.17044933E-02 0.92185235E+02</pdfrwt>
<totfact> 0.11402468E+05</totfact>
</mgrwt>
</event>
<event>
 5    1  0.1247456E+001  0.8566966E+02  0.7546771E-02  0.1313691E+00
         -1   -1    0    0    0  501 -0.00000000000E+00  0.00000000000E+00  0.46951734504E+01  0.46951734504E+01  0.00000000000E+00 0.  1.
          1   -1    0    0  501    0  0.00000000000E+00 -0.00000000000E+00 -0.39078911299E+03  0.39078911299E+03  0.00000000000E+00 0. -1.
         23    2    1    2    0    0  0.00000000000E+00  0.00000000000E+00 -0.38609393954E+03  0.39548428644E+03  0.85669660160E+02 0.  0.
        -13    1    3    3    0    0  0.37197252717E+02  0.20190005085E+02 -0.16258205114E+03  0.16800058115E+03  0.00000000000E+00 0.  1.
         13    1    3    3    0    0 -0.37197252717E+02 -0.20190005085E+02 -0.22351188840E+03  0.22748370528E+03  0.00000000000E+00 0. -1.
<mgrwt>
<rscale>  0 0.85669660E+02</rscale>
<asrwt>0</asrwt>
<pdfrwt beam="2">  1        1 0.60121433E-01 0.85669660E+02</pdfrwt>
<pdfrwt beam="1">  1       -1 0.72233400E-03 0.85669660E+02</pdfrwt>
<totfact> 0.15846092E+05</totfact>
</mgrwt>
</event>
<event>
 5    1  0.1247456E+001  0.9041788E+02  0.7546771E-02  0.1301843E+00
          2   -1    0    0  501    0  0.00000000000E+00  0.00000000000E+00  0.13059773859E+03  0.13059773859E+03  0.00000000000E+00 0. -1.
         -2   -1    0    0    0  501 -0.00000000000E+00 -0.00000000000E+00 -0.15649951795E+02  0.15649951795E+02  0.00000000000E+00 0.  1.
         23    2    1    2    0    0  0.00000000000E+00  0.00000000000E+00  0.11494778679E+03  0.14624769038E+03  0.90417881270E+02 0.  0.
        -13    1    3    3    0    0 -0.39831909966E+02 -0.75235006436E+01  0.25097761578E+02  0.47676847104E+02  0.00000000000E+00 0.  1.
         13    1    3    3    0    0  0.39831909966E+02  0.75235006436E+01  0.89850025213E+02  0.98570843277E+02  0.00000000000E+00 0. -1.
<mgrwt>
<rscale>  0 0.90417881E+02</rscale>
<asrwt>0</asrwt>
<pdfrwt beam="1">  1        2 0.20091959E-01 0.90417881E+02</pdfrwt>
<pdfrwt beam="2">  1       -2 0.24076850E-02 0.90417881E+02</pdfrwt>
<totfact> 0.13655459E+05</totfact>
</mgrwt>
</event>
<event>
 5    1  0.1247456E+001  0.9137771E+02  0.7546771E-02  0.1299549E+00
          2   -1    0    0  501    0  0.00000000000E+00  0.00000000000E+00  0.19375020116E+02  0.19375020116E+02  0.00000000000E+00 0. -1.
         -2   -1    0    0    0  501 -0.00000000000E+00 -0.00000000000E+00 -0.10774034498E+03  0.10774034498E+03  0.00000000000E+00 0.  1.
         23    2    1    2    0    0  0.00000000000E+00  0.00000000000E+00 -0.88365324861E+02  0.12711536509E+03  0.91377707373E+02 0.  0.
        -11    1    3    3    0    0 -0.32957772930E+02 -0.12541009021E+02 -0.37694123407E+01  0.35464068762E+02  0.00000000000E+00 0. -1.
         11    1    3    3    0    0  0.32957772930E+02  0.12541009021E+02 -0.84595912520E+02  0.91651296329E+02  0.00000000000E+00 0.  1.
<mgrwt>
<rscale>  0 0.91377707E+02</rscale>
<asrwt>0</asrwt>
<pdfrwt beam="1">  1        2 0.29807723E-02 0.91377707E+02</pdfrwt>
<pdfrwt beam="2">  1       -2 0.16575438E-01 0.91377707E+02</pdfrwt>
<totfact> 0.77595891E+04</totfact>
</mgrwt>
</event>
<event>
 5    1  0.1247456E+001  0.9181424E+02  0.7546771E-02  0.1298517E+00
         -1   -1    0    0    0  501 -0.00000000000E+00  0.00000000000E+00  0.67701652985E+01  0.67701652985E+01  0.00000000000E+00 0.  1.
          1   -1    0    0  501    0  0.00000000000E+00 -0.00000000000E+00 -0.31128688439E+03  0.31128688439E+03  0.00000000000E+00 0. -1.
         23    2    1    2    0    0  0.00000000000E+00  0.00000000000E+00 -0.30451671909E+03  0.31805704969E+03  0.91814239910E+02 0.  0.
        -11    1    3    3    0    0  0.30562815115E+02 -0.34062959614E+02 -0.16479297083E+03  0.17102951242E+03  0.00000000000E+00 0.  1.
         11    1    3    3    0    0 -0.30562815115E+02  0.34062959614E+02 -0.13972374826E+03  0.14702753726E+03  0.00000000000E+00 0. -1.
<mgrwt>
<rscale>  0 0.91814240E+02</rscale>
<asrwt>0</asrwt>
<pdfrwt beam="2">  1        1 0.47890297E-01 0.91814240E+02</pdfrwt>
<pdfrwt beam="1">  1       -1 0.10415637E-02 0.91814240E+02</pdfrwt>
<totfact> 0.12664793E+05</totfact>
</mgrwt>
</event>
<event>
 5    1  0.1247456E+001  0.9230598E+02  0.7546771E-02  0.1297362E+00
          2   -1    0    0  501    0  0.00000000000E+00  0.00000000000E+00  0.94303823786E+02  0.94303823786E+02  0.00000000000E+00 0. -1.
         -2   -1    0    0    0  501 -0.00000000000E+00 -0.00000000000E+00 -0.22587615331E+02  0.22587615331E+02  0.00000000000E+00 0.  1.
         23    2    1    2    0    0  0.00000000000E+00  0.00000000000E+00  0.71716208455E+02  0.11689143912E+03  0.92305980215E+02 0.  0.
        -11    1    3    3    0    0  0.22439666050E+02 -0.87665277301E+01 -0.13993344862E+02  0.27860443667E+02  0.00000000000E+00 0.  1.
         11    1    3    3    0    0 -0.22439666050E+02  0.87665277301E+01  0.85709553317E+02  0.89030995449E+02  0.00000000000E+00 0. -1.
<mgrwt>
<rscale>  0 0.92305980E+02</rscale>
<asrwt>0</asrwt>
<pdfrwt beam="1">  1        2 0.14508280E-01 0.92305980E+02</pdfrwt>
<pdfrwt beam="2">  1       -2 0.34750178E-02 0.92305980E+02</pdfrwt>
<totfact> 0.11649036E+05</totfact>
</mgrwt>
</event>
<event>
 5    1  0.1247456E+001  0.9164218E+02  0.7546771E-02  0.1298923E+00
         -1   -1    0    0    0  501 -0.00000000000E+00  0.00000000000E+00  0.54342260370E+02  0.54342260370E+02  0.00000000000E+00 0.  1.
          1   -1    0    0  501    0  0.00000000000E+00 -0.00000000000E+00 -0.38636089671E+02  0.38636089671E+02  0.00000000000E+00 0. -1.
         23    2    1    2    0    0  0.00000000000E+00  0.00000000000E+00  0.15706170699E+02  0.92978350041E+02  0.91642183400E+02 0.  0.
        -13    1    3    3    0    0  0.23576575898E+02  0.20109100119E+02  0.42099363977E+02  0.52274155047E+02  0.00000000000E+00 0.  1.
         13    1    3    3    0    0 -0.23576575898E+02 -0.20109100119E+02 -0.26393193278E+02  0.40704194994E+02  0.00000000000E+00 0. -1.
<mgrwt>
<rscale>  0 0.91642183E+02</rscale>
<asrwt>0</asrwt>
<pdfrwt beam="2">  1        1 0.59440138E-02 0.91642183E+02</pdfrwt>
<pdfrwt beam="1">  1       -1 0.83603478E-02 0.91642183E+02</pdfrwt>
<totfact> 0.88894079E+04</totfact>
</mgrwt>
</event>
<event>
 5    1  0.1247456E+001  0.9407875E+02  0.7546771E-02  0.1293265E+00
         -1   -1    0    0    0  501 -0.00000000000E+00  0.00000000000E+00  0.10958477571E+02  0.10958477571E+02  0.00000000000E+00 0.  1.
          1   -1    0    0  501    0  0.00000000000E+00 -0.00000000000E+00 -0.20191700882E+03  0.20191700882E+03  0.00000000000E+00 0. -1.
         23    2    1    2    0    0  0.00000000000E+00  0.00000000000E+00 -0.19095853125E+03  0.21287548639E+03  0.94078754506E+02 0.  0.
        -13    1    3    3    0    0 -0.29306700863E+01  0.36198143478E+02 -0.27831048204E+02  0.45754362224E+02  0.00000000000E+00 0.  1.
         13    1    3    3    0    0  0.29306700863E+01 -0.36198143478E+02 -0.16312748304E+03  0.16712112417E+03  0.00000000000E+00 0. -1.
<mgrwt>
<rscale>  0 0.94078755E+02</rscale>
<asrwt>0</asrwt>
<pdfrwt beam="2">  1        1 0.31064156E-01 0.94078755E+02</pdfrwt>
<pdfrwt beam="1">  1       -1 0.16859196E-02 0.94078755E+02</pdfrwt>
<totfact> 0.10904426E+05</totfact>
</mgrwt>
</event>
<event>
 5    1  0.1247456E+001  0.9240804E+02  0.7546771E-02  0.1297123E+00
          1   -1    0    0  501    0  0.00000000000E+00  0.00000000000E+00  0.76415465154E+02  0.76415465154E+02  0.00000000000E+00 0. -1.
         -1   -1    0    0    0  501 -0.00000000000E+00 -0.00000000000E+00 -0.27936906277E+02  0.27936906277E+02  0.00000000000E+00 0.  1.
         23    2    1    2    0    0  0.00000000000E+00  0.00000000000E+00  0.48478558877E+02  0.10435237143E+03  0.92408044847E+02 0.  0.
        -13    1    3    3    0    0  0.98947492179E+01  0.45007648862E+02  0.20457169128E+02  0.50419146035E+02  0.00000000000E+00 0.  1.
         13    1    3    3    0    0 -0.98947492179E+01 -0.45007648862E+02  0.28021389749E+02  0.53933225396E+02  0.00000000000E+00 0. -1.
<mgrwt>
<rscale>  0 0.92408045E+02</rscale>
<asrwt>0</asrwt>
<pdfrwt beam="1">  1        1 0.11756225E-01 0.92408045E+02</pdfrwt>
<pdfrwt beam="2">  1       -1 0.42979856E-02 0.92408045E+02</pdfrwt>
<totfact> 0.96393142E+04</totfact>
</mgrwt>
</event>
<event>
 5    1  0.1247456E+001  0.9361077E+02  0.7546771E-02  0.1294336E+00
         -1   -1    0    0    0  501 -0.00000000000E+00  0.00000000000E+00  0.18219302647E+02  0.18219302647E+02  0.00000000000E+00 0.  1.
          1   -1    0    0  501    0  0.00000000000E+00 -0.00000000000E+00 -0.12024303761E+03  0.12024303761E+03  0.00000000000E+00 0. -1.
         23    2    1    2    0    0  0.00000000000E+00  0.00000000000E+00 -0.10202373496E+03  0.13846234025E+03  0.93610774878E+02 0.  0.
        -11    1    3    3    0    0 -0.14444451974E+02  0.17931410819E+02  0.92626826388E+01  0.24818843173E+02  0.00000000000E+00 0.  1.
         11    1    3    3    0    0  0.14444451974E+02 -0.17931410819E+02 -0.11128641760E+03  0.11364349708E+03  0.00000000000E+00 0. -1.
<mgrwt>
<rscale>  0 0.93610775E+02</rscale>
<asrwt>0</asrwt>
<pdfrwt beam="2">  1        1 0.18498928E-01 0.93610775E+02</pdfrwt>
<pdfrwt beam="1">  1       -1 0.28029697E-02 0.93610775E+02</pdfrwt>
<totfact> 0.10032729E+05</totfact>
</mgrwt>
</event>
<event>
 5    1  0.1247456E+001  0.9619696E+02  0.7546771E-02  0.1288503E+00
          2   -1    0    0  501    0  0.00000000000E+00  0.00000000000E+00  0.14584606738E+03  0.14584606738E+03  0.00000000000E+00 0. -1.
         -2   -1    0    0    0  501 -0.00000000000E+00 -0.00000000000E+00 -0.15862366860E+02  0.15862366860E+02  0.00000000000E+00 0.  1.
         23    2    1    2    0    0  0.00000000000E+00  0.00000000000E+00  0.12998370052E+03  0.16170843424E+03  0.96196960987E+02 0.  0.
        -11    1    3    3    0    0 -0.31451680977E+02 -0.15666440094E+02  0.97783270032E+01  0.36472746818E+02  0.00000000000E+00 0.  1.
         11    1    3    3    0    0  0.31451680977E+02  0.15666440094E+02  0.12020537351E+03  0.12523568742E+03  0.00000000000E+00 0. -1.
<mgrwt>
<rscale>  0 0.96196961E+02</rscale>
<asrwt>0</asrwt>
<pdfrwt beam="1">  1        2 0.22437856E-01 0.96196961E+02</pdfrwt>
<pdfrwt beam="2">  1       -2 0.24403642E-02 0.96196961E+02</pdfrwt>
<totfact> 0.11964702E+05</totfact>
</mgrwt>
</event>
<event>
 5    1  0.1247456E+001  0.9045238E+02  0.7546771E-02  0.1301760E+00
          2   -1    0    0  501    0  0.00000000000E+00  0.00000000000E+00  0.69610413885E+02  0.69610413885E+02  0.00000000000E+00 0. -1.
         -2   -1    0    0    0  501 -0.00000000000E+00 -0.00000000000E+00 -0.29383652648E+02  0.29383652648E+02  0.00000000000E+00 0.  1.
         23    2    1    2    0    0  0.00000000000E+00  0.00000000000E+00  0.40226761237E+02  0.98994066533E+02  0.90452379124E+02 0.  0.
        -11    1    3    3    0    0 -0.40418499577E+02  0.31720282043E+01 -0.18215068662E+01  0.40583676007E+02  0.00000000000E+00 0.  1.
         11    1    3    3    0    0  0.40418499577E+02 -0.31720282043E+01  0.42048268103E+02  0.58410390526E+02  0.00000000000E+00 0. -1.
<mgrwt>
<rscale>  0 0.90452379E+02</rscale>
<asrwt>0</asrwt>
<pdfrwt beam="1">  1        2 0.10709294E-01 0.90452379E+02</pdfrwt>
<pdfrwt beam="2">  1       -2 0.45205620E-02 0.90452379E+02</pdfrwt>
<totfact> 0.11293894E+05</totfact>
</mgrwt>
</event>
<event>
 5    1  0.1247456E+001  0.8692115E+02  0.7546771E-02  0.1310484E+00
         -1   -1    0    0    0  501 -0.00000000000E+00  0.00000000000E+00  0.69329209436E+01  0.69329209436E+01  0.00000000000E+00 0.  1.
          1   -1    0    0  501    0  0.00000000000E+00 -0.00000000000E+00 -0.27244240510E+03  0.27244240510E+03  0.00000000000E+00 0. -1.
         23    2    1    2    0    0  0.00000000000E+00  0.00000000000E+00 -0.26550948416E+03  0.27937532605E+03  0.86921151770E+02 0.  0.
        -13    1    3    3    0    0  0.42881858968E+02 -0.70686168190E+01 -0.13291493328E+03  0.13983990368E+03  0.00000000000E+00 0. -1.
         13    1    3    3    0    0 -0.42881858968E+02  0.70686168190E+01 -0.13259455088E+03  0.13953542237E+03  0.00000000000E+00 0.  1.
<mgrwt>
<rscale>  0 0.86921152E+02</rscale>
<asrwt>0</asrwt>
<pdfrwt beam="2">  1        1 0.41914210E-01 0.86921152E+02</pdfrwt>
<pdfrwt beam="1">  1       -1 0.10666034E-02 0.86921152E+02</pdfrwt>
<totfact> 0.14281404E+05</totfact>
</mgrwt>
</event>
<event>
 5    1  0.1247456E+001  0.9294226E+02  0.7546771E-02  0.1295879E+00
         -2   -1    0    0    0  501 -0.00000000000E+00  0.00000000000E+00  0.31024751733E+02  0.31024751733E+02  0.00000000000E+00 0.  1.
          2   -1    0    0  501    0  0.00000000000E+00 -0.00000000000E+00 -0.69607839479E+02  0.69607839479E+02  0.00000000000E+00 0. -1.
         23    2    1    2    0    0  0.00000000000E+00  0.00000000000E+00 -0.38583087746E+02  0.10063259121E+03  0.92942260323E+02 0.  0.
        -11    1    3    3    0    0  0.26888886734E+02  0.34369211469E+02 -0.19909823695E+01  0.43683165380E+02  0.00000000000E+00 0.  1.
         11    1    3    3    0    0 -0.26888886734E+02 -0.34369211469E+02 -0.36592105376E+02  0.56949425832E+02  0.00000000000E+00 0. -1.
<mgrwt>
<rscale>  0 0.92942260E+02</rscale>
<asrwt>0</asrwt>
<pdfrwt beam="2">  1        2 0.10708898E-01 0.92942260E+02</pdfrwt>
<pdfrwt beam="1">  1       -2 0.47730388E-02 0.92942260E+02</pdfrwt>
<totfact> 0.10466203E+05</totfact>
</mgrwt>
</event>
<event>
 5    1  0.1247456E+001  0.8049493E+02  0.7546771E-02  0.1327653E+00
         -1   -1    0    0    0  501 -0.00000000000E+00  0.00000000000E+00  0.36017130260E+02  0.36017130260E+02  0.00000000000E+00 0.  1.
          1   -1    0    0  501    0  0.00000000000E+00 -0.00000000000E+00 -0.44974663710E+02  0.44974663710E+02  0.00000000000E+00 0. -1.
         23    2    1    2    0    0  0.00000000000E+00  0.00000000000E+00 -0.89575334507E+01  0.80991793970E+02  0.80494927076E+02 0.  0.
        -13    1    3    3    0    0  0.29972330270E+02  0.24562296675E+02  0.64608484148E+01  0.39285997022E+02  0.00000000000E+00 0.  1.
         13    1    3    3    0    0 -0.29972330270E+02 -0.24562296675E+02 -0.15418381865E+02  0.41705796948E+02  0.00000000000E+00 0. -1.
<mgrwt>
<rscale>  0 0.80494927E+02</rscale>
<asrwt>0</asrwt>
<pdfrwt beam="2">  1        1 0.69191790E-02 0.80494927E+02</pdfrwt>
<pdfrwt beam="1">  1       -1 0.55410970E-02 0.80494927E+02</pdfrwt>
<totfact> 0.13046625E+05</totfact>
</mgrwt>
</event>
<event>
 5    1  0.1247456E+001  0.8746089E+02  0.7546771E-02  0.1309120E+00
         -4   -1    0    0    0  501 -0.00000000000E+00  0.00000000000E+00  0.15616203844E+03  0.15616203844E+03  0.00000000000E+00 0.  1.
          4   -1    0    0  501    0  0.00000000000E+00 -0.00000000000E+00 -0.12245946789E+02  0.12245946789E+02  0.00000000000E+00 0. -1.
         23    2    1    2    0    0  0.00000000000E+00  0.00000000000E+00  0.14391609165E+03  0.16840798522E+03  0.87460894419E+02 0.  0.
        -13    1    3    3    0    0  0.39157997603E+01  0.35558510108E+02  0.23527752912E+02  0.42817009306E+02  0.00000000000E+00 0. -1.
         13    1    3    3    0    0 -0.39157997603E+01 -0.35558510108E+02  0.12038833873E+03  0.12559097592E+03  0.00000000000E+00 0.  1.
<mgrwt>
<rscale>  0 0.87460894E+02</rscale>
<asrwt>0</asrwt>
<pdfrwt beam="2">  1        4 0.18839919E-02 0.87460894E+02</pdfrwt>
<pdfrwt beam="1">  1       -4 0.24024928E-01 0.87460894E+02</pdfrwt>
<totfact> 0.25461777E+04</totfact>
</mgrwt>
</event>
<event>
 5    1  0.1247456E+001  0.9173610E+02  0.7546771E-02  0.1298701E+00
          2   -1    0    0  501    0  0.00000000000E+00  0.00000000000E+00  0.58147652812E+02  0.58147652812E+02  0.00000000000E+00 0. -1.
         -2   -1    0    0    0  501 -0.00000000000E+00 -0.00000000000E+00 -0.36181649068E+02  0.36181649068E+02  0.00000000000E+00 0.  1.
         23    2    1    2    0    0  0.00000000000E+00  0.00000000000E+00  0.21966003744E+02  0.94329301881E+02  0.91736099071E+02 0.  0.
        -13    1    3    3    0    0 -0.25056716812E+02  0.22982278813E+02  0.42640531572E+02  0.54536585239E+02  0.00000000000E+00 0.  1.
         13    1    3    3    0    0  0.25056716812E+02 -0.22982278813E+02 -0.20674527828E+02  0.39792716642E+02  0.00000000000E+00 0. -1.
<mgrwt>
<rscale>  0 0.91736099E+02</rscale>
<asrwt>0</asrwt>
<pdfrwt beam="1">  1        2 0.89457927E-02 0.91736099E+02</pdfrwt>
<pdfrwt beam="2">  1       -2 0.55664075E-02 0.91736099E+02</pdfrwt>
<totfact> 0.10337849E+05</totfact>
</mgrwt>
</event>
<event>
 5    1  0.1247456E+001  0.9204471E+02  0.7546771E-02  0.1297974E+00
         -1   -1    0    0    0  501 -0.00000000000E+00  0.00000000000E+00  0.35228557722E+02  0.35228557722E+02  0.00000000000E+00 0.  1.
          1   -1    0    0  501    0  0.00000000000E+00 -0.00000000000E+00 -0.60123296358E+02  0.60123296358E+02  0.00000000000E+00 0. -1.
         23    2    1    2    0    0  0.00000000000E+00  0.00000000000E+00 -0.24894738636E+02  0.95351854080E+02  0.92044706881E+02 0.  0.
        -13    1    3    3    0    0 -0.14301747164E+02  0.12934288120E+02 -0.55736608765E+02  0.58978007238E+02  0.00000000000E+00 0. -1.
         13    1    3    3    0    0  0.14301747164E+02 -0.12934288120E+02  0.30841870128E+02  0.36373846843E+02  0.00000000000E+00 0.  1.
<mgrwt>
<rscale>  0 0.92044707E+02</rscale>
<asrwt>0</asrwt>
<pdfrwt beam="2">  1        1 0.92497378E-02 0.92044707E+02</pdfrwt>
<pdfrwt beam="1">  1       -1 0.54197782E-02 0.92044707E+02</pdfrwt>
<totfact> 0.93897035E+04</totfact>
</mgrwt>
</event>
<event>
 5    1  0.1247456E+001  0.7636874E+02  0.7546771E-02  0.1339684E+00
          1   -1    0    0  501    0  0.00000000000E+00  0.00000000000E+00  0.21501725218E+02  0.21501725218E+02  0.00000000000E+00 0. -1.
         -1   -1    0    0    0  501 -0.00000000000E+00 -0.00000000000E+00 -0.67810659321E+02  0.67810659321E+02  0.00000000000E+00 0.  1.
         23    2    1    2    0    0  0.00000000000E+00  0.00000000000E+00 -0.46308934103E+02  0.89312384539E+02  0.76368741343E+02 0.  0.
        -13    1    3    3    0    0 -0.54381052742E+01 -0.23625073255E+02 -0.57655953082E+02  0.62545391526E+02  0.00000000000E+00 0.  1.
         13    1    3    3    0    0  0.54381052742E+01  0.23625073255E+02  0.11347018979E+02  0.26766993014E+02  0.00000000000E+00 0. -1.
<mgrwt>
<rscale>  0 0.76368741E+02</rscale>
<asrwt>0</asrwt>
<pdfrwt beam="1">  1        1 0.33079578E-02 0.76368741E+02</pdfrwt>
<pdfrwt beam="2">  1       -1 0.10432409E-01 0.76368741E+02</pdfrwt>
<totfact> 0.13646184E+05</totfact>
</mgrwt>
</event>
<event>
 5    1  0.1247456E+001  0.9213943E+02  0.7546771E-02  0.1297752E+00
          1   -1    0    0  501    0  0.00000000000E+00  0.00000000000E+00  0.11347354499E+02  0.11347354499E+02  0.00000000000E+00 0. -1.
         -1   -1    0    0    0  501 -0.00000000000E+00 -0.00000000000E+00 -0.18704081541E+03  0.18704081541E+03  0.00000000000E+00 0.  1.
         23    2    1    2    0    0  0.00000000000E+00  0.00000000000E+00 -0.17569346091E+03  0.19838816991E+03  0.92139425616E+02 0.  0.
        -13    1    3    3    0    0 -0.92579470022E+01 -0.33172744237E+02 -0.15372962260E+03  0.15754027233E+03  0.00000000000E+00 0.  1.
         13    1    3    3    0    0  0.92579470022E+01  0.33172744237E+02 -0.21963838313E+02  0.40847897575E+02  0.00000000000E+00 0. -1.
<mgrwt>
<rscale>  0 0.92139426E+02</rscale>
<asrwt>0</asrwt>
<pdfrwt beam="1">  1        1 0.17457470E-02 0.92139426E+02</pdfrwt>
<pdfrwt beam="2">  1       -1 0.28775507E-01 0.92139426E+02</pdfrwt>
<totfact> 0.68825707E+04</totfact>
</mgrwt>
</event>
<event>
 5    1  0.1247456E+001  0.9114041E+02  0.7546771E-02  0.1300113E+00
         -2   -1    0    0    0  501 -0.00000000000E+00  0.00000000000E+00  0.31969185052E+02  0.31969185052E+02  0.00000000000E+00 0.  1.
          2   -1    0    0  501    0  0.00000000000E+00 -0.00000000000E+00 -0.64957665197E+02  0.64957665197E+02  0.00000000000E+00 0. -1.
         23    2    1    2    0    0  0.00000000000E+00  0.00000000000E+00 -0.32988480145E+02  0.96926850249E+02  0.91140410779E+02 0.  0.
        -13    1    3    3    0    0  0.75743553350E+01 -0.27683667583E+02  0.21149184285E+02  0.35651708311E+02  0.00000000000E+00 0.  1.
         13    1    3    3    0    0 -0.75743553350E+01  0.27683667583E+02 -0.54137664430E+02  0.61275141938E+02  0.00000000000E+00 0. -1.
<mgrwt>
<rscale>  0 0.91140411E+02</rscale>
<asrwt>0</asrwt>
<pdfrwt beam="2">  1        2 0.99934868E-02 0.91140411E+02</pdfrwt>
<pdfrwt beam="1">  1       -2 0.49183362E-02 0.91140411E+02</pdfrwt>
<totfact> 0.10849245E+05</totfact>
</mgrwt>
</event>
<event>
 5    1  0.1247456E+001  0.9478161E+02  0.7546771E-02  0.1291669E+00
          1   -1    0    0  501    0  0.00000000000E+00  0.00000000000E+00  0.24292000990E+03  0.24292000990E+03  0.00000000000E+00 0. -1.
         -1   -1    0    0    0  501 -0.00000000000E+00 -0.00000000000E+00 -0.92453824032E+01  0.92453824032E+01  0.00000000000E+00 0.  1.
         23    2    1    2    0    0  0.00000000000E+00  0.00000000000E+00  0.23367462750E+03  0.25216539230E+03  0.94781609713E+02 0.  0.
        -11    1    3    3    0    0 -0.22941085053E+02 -0.29208506557E+02  0.19515055468E+03  0.19865338967E+03  0.00000000000E+00 0. -1.
         11    1    3    3    0    0  0.22941085053E+02  0.29208506557E+02  0.38524072822E+02  0.53512002630E+02  0.00000000000E+00 0.  1.
<mgrwt>
<rscale>  0 0.94781610E+02</rscale>
<asrwt>0</asrwt>
<pdfrwt beam="1">  1        1 0.37372304E-01 0.94781610E+02</pdfrwt>
<pdfrwt beam="2">  1       -1 0.14223667E-02 0.94781610E+02</pdfrwt>
<totfact> 0.11084151E+05</totfact>
</mgrwt>
</event>
<event>
 5    1  0.1247456E+001  0.9311365E+02  0.7546771E-02  0.1295482E+00
          1   -1    0    0  501    0  0.00000000000E+00  0.00000000000E+00  0.49330436337E+02  0.49330436337E+02  0.00000000000E+00 0. -1.
         -1   -1    0    0    0  501 -0.00000000000E+00 -0.00000000000E+00 -0.43939163976E+02  0.43939163976E+02  0.00000000000E+00 0.  1.
         23    2    1    2    0    0  0.00000000000E+00  0.00000000000E+00  0.53912723619E+01  0.93269600313E+02  0.93113653805E+02 0.  0.
        -11    1    3    3    0    0 -0.42826538984E+02  0.47216259152E+01 -0.14972837925E+02  0.45613507519E+02  0.00000000000E+00 0.  1.
         11    1    3    3    0    0  0.42826538984E+02 -0.47216259152E+01  0.20364110287E+02  0.47656092794E+02  0.00000000000E+00 0. -1.
<mgrwt>
<rscale>  0 0.93113654E+02</rscale>
<asrwt>0</asrwt>
<pdfrwt beam="1">  1        1 0.75892979E-02 0.93113654E+02</pdfrwt>
<pdfrwt beam="2">  1       -1 0.67598714E-02 0.93113654E+02</pdfrwt>
<totfact> 0.88218011E+04</totfact>
</mgrwt>
</event>
<event>
 5    1  0.1247456E+001  0.9084028E+02  0.7546771E-02  0.1300830E+00
          2   -1    0    0  501    0  0.00000000000E+00  0.00000000000E+00  0.73978556847E+02  0.73978556847E+02  0.00000000000E+00 0. -1.
         -2   -1    0    0    0  501 -0.00000000000E+00 -0.00000000000E+00 -0.27886309520E+02  0.27886309520E+02  0.00000000000E+00 0.  1.
         23    2    1    2    0    0  0.00000000000E+00  0.00000000000E+00  0.46092247326E+02  0.10186486637E+03  0.90840275959E+02 0.  0.
        -13    1    3    3    0    0 -0.36229204669E+02  0.15897851689E+02  0.48062608997E+02  0.62251998706E+02  0.00000000000E+00 0. -1.
         13    1    3    3    0    0  0.36229204669E+02 -0.15897851689E+02 -0.19703616706E+01  0.39612867661E+02  0.00000000000E+00 0.  1.
<mgrwt>
<rscale>  0 0.90840276E+02</rscale>
<asrwt>0</asrwt>
<pdfrwt beam="1">  1        2 0.11381316E-01 0.90840276E+02</pdfrwt>
<pdfrwt beam="2">  1       -2 0.42902015E-02 0.90840276E+02</pdfrwt>
<totfact> 0.11350240E+05</totfact>
</mgrwt>
</event>
<event>
 5    1  0.1247456E+001  0.9081213E+02  0.7546771E-02  0.1300897E+00
          2   -1    0    0  501    0  0.00000000000E+00  0.00000000000E+00  0.28085005129E+02  0.28085005129E+02  0.00000000000E+00 0.  1.
         -2   -1    0    0    0  501 -0.00000000000E+00 -0.00000000000E+00 -0.73409665241E+02  0.73409665241E+02  0.00000000000E+00 0. -1.
         23    2    1    2    0    0  0.00000000000E+00  0.00000000000E+00 -0.45324660113E+02  0.10149467037E+03  0.90812131894E+02 0.  0.
        -13    1    3    3    0    0 -0.10230646347E+02  0.22149419978E+02 -0.65461237674E+02  0.69860121442E+02  0.00000000000E+00 0. -1.
         13    1    3    3    0    0  0.10230646347E+02 -0.22149419978E+02  0.20136577561E+02  0.31634548929E+02  0.00000000000E+00 0.  1.
<mgrwt>
<rscale>  0 0.90812132E+02</rscale>
<asrwt>0</asrwt>
<pdfrwt beam="1">  1        2 0.43207701E-02 0.90812132E+02</pdfrwt>
<pdfrwt beam="2">  1       -2 0.11293794E-01 0.90812132E+02</pdfrwt>
<totfact> 0.87957063E+04</totfact>
</mgrwt>
</event>
<event>
 5    1  0.1247456E+001  0.9251856E+02  0.7546771E-02  0.1296865E+00
          1   -1    0    0  501    0  0.00000000000E+00  0.00000000000E+00  0.70654404918E+01  0.70654404918E+01  0.00000000000E+00 0. -1.
         -1   -1    0    0    0  501 -0.00000000000E+00 -0.00000000000E+00 -0.30287156527E+03  0.30287156527E+03  0.00000000000E+00 0.  1.
         23    2    1    2    0    0  0.00000000000E+00  0.00000000000E+00 -0.29580612478E+03  0.30993700577E+03  0.92518560756E+02 0.  0.
        -11    1    3    3    0    0  0.35655839805E+02 -0.21719312934E+02 -0.21463899013E+03  0.21866175603E+03  0.00000000000E+00 0.  1.
         11    1    3    3    0    0 -0.35655839805E+02  0.21719312934E+02 -0.81167134655E+02  0.91275249738E+02  0.00000000000E+00 0. -1.
<mgrwt>
<rscale>  0 0.92518561E+02</rscale>
<asrwt>0</asrwt>
<pdfrwt beam="1">  1        1 0.10869911E-02 0.92518561E+02</pdfrwt>
<pdfrwt beam="2">  1       -1 0.46595614E-01 0.92518561E+02</pdfrwt>
<totfact> 0.58093470E+04</totfact>
</mgrwt>
</event>
<event>
 5    1  0.1247456E+001  0.9108724E+02  0.7546771E-02  0.1300240E+00
         -3   -1    0    0    0  501 -0.00000000000E+00  0.00000000000E+00  0.19542656735E+02  0.19542656735E+02  0.00000000000E+00 0.  1.
          3   -1    0    0  501    0  0.00000000000E+00 -0.00000000000E+00 -0.10613814978E+03  0.10613814978E+03  0.00000000000E+00 0. -1.
         23    2    1    2    0    0  0.00000000000E+00  0.00000000000E+00 -0.86595493046E+02  0.12568080651E+03  0.91087242303E+02 0.  0.
        -11    1    3    3    0    0  0.42706503779E+02  0.12106655514E+02 -0.29239853377E+02  0.53154356343E+02  0.00000000000E+00 0. -1.
         11    1    3    3    0    0 -0.42706503779E+02 -0.12106655514E+02 -0.57355639668E+02  0.72526450171E+02  0.00000000000E+00 0.  1.
<mgrwt>
<rscale>  0 0.91087242E+02</rscale>
<asrwt>0</asrwt>
<pdfrwt beam="2">  1        3 0.16328946E-01 0.91087242E+02</pdfrwt>
<pdfrwt beam="1">  1       -3 0.30065626E-02 0.91087242E+02</pdfrwt>
<totfact> 0.32950168E+04</totfact>
</mgrwt>
</event>
<event>
 5    1  0.1247456E+001  0.9158575E+02  0.7546771E-02  0.1299056E+00
          3   -1    0    0  501    0  0.00000000000E+00  0.00000000000E+00  0.53570623948E+02  0.53570623948E+02  0.00000000000E+00 0. -1.
         -3   -1    0    0    0  501 -0.00000000000E+00 -0.00000000000E+00 -0.39144350483E+02  0.39144350483E+02  0.00000000000E+00 0.  1.
         23    2    1    2    0    0  0.00000000000E+00  0.00000000000E+00  0.14426273464E+02  0.92714974431E+02  0.91585747350E+02 0.  0.
        -13    1    3    3    0    0 -0.40511617658E+02 -0.75826423427E+01  0.27416652514E+02  0.49501115798E+02  0.00000000000E+00 0. -1.
         13    1    3    3    0    0  0.40511617658E+02  0.75826423427E+01 -0.12990379050E+02  0.43213858633E+02  0.00000000000E+00 0.  1.
<mgrwt>
<rscale>  0 0.91585747E+02</rscale>
<asrwt>0</asrwt>
<pdfrwt beam="1">  1        3 0.82416345E-02 0.91585747E+02</pdfrwt>
<pdfrwt beam="2">  1       -3 0.60222077E-02 0.91585747E+02</pdfrwt>
<totfact> 0.34793393E+04</totfact>
</mgrwt>
</event>
<event>
 5    1  0.1247456E+001  0.8919938E+02  0.7546771E-02  0.1304802E+00
          4   -1    0    0  501    0  0.00000000000E+00  0.00000000000E+00  0.32560136937E+02  0.32560136937E+02  0.00000000000E+00 0. -1.
         -4   -1    0    0    0  501 -0.00000000000E+00 -0.00000000000E+00 -0.61091030506E+02  0.61091030506E+02  0.00000000000E+00 0.  1.
         23    2    1    2    0    0  0.00000000000E+00  0.00000000000E+00 -0.28530893569E+02  0.93651167443E+02  0.89199379345E+02 0.  0.
        -13    1    3    3    0    0 -0.19235670747E+02 -0.32800279333E+01 -0.56371386109E+02  0.59653187544E+02  0.00000000000E+00 0.  1.
         13    1    3    3    0    0  0.19235670747E+02  0.32800279333E+01  0.27840492540E+02  0.33997979898E+02  0.00000000000E+00 0. -1.
<mgrwt>
<rscale>  0 0.89199379E+02</rscale>
<asrwt>0</asrwt>
<pdfrwt beam="1">  1        4 0.50092518E-02 0.89199379E+02</pdfrwt>
<pdfrwt beam="2">  1       -4 0.93986201E-02 0.89199379E+02</pdfrwt>
<totfact> 0.28498277E+04</totfact>
</mgrwt>
</event>
<event>
 5    1  0.1247456E+001  0.9143501E+02  0.7546771E-02  0.1299413E+00
         -2   -1    0    0    0  501 -0.00000000000E+00  0.00000000000E+00  0.94320951676E+01  0.94320951676E+01  0.00000000000E+00 0.  1.
          2   -1    0    0  501    0  0.00000000000E+00 -0.00000000000E+00 -0.22159344322E+03  0.22159344322E+03  0.00000000000E+00 0. -1.
         23    2    1    2    0    0  0.00000000000E+00  0.00000000000E+00 -0.21216134805E+03  0.23102553838E+03  0.91435013970E+02 0.  0.
        -13    1    3    3    0    0  0.17226806587E+02  0.33846735617E+02 -0.41775910834E+02  0.56458755770E+02  0.00000000000E+00 0.  1.
         13    1    3    3    0    0 -0.17226806587E+02 -0.33846735617E+02 -0.17038543722E+03  0.17456678261E+03  0.00000000000E+00 0. -1.
<mgrwt>
<rscale>  0 0.91435014E+02</rscale>
<asrwt>0</asrwt>
<pdfrwt beam="2">  1        2 0.34091297E-01 0.91435014E+02</pdfrwt>
<pdfrwt beam="1">  1       -2 0.14510916E-02 0.91435014E+02</pdfrwt>
<totfact> 0.15934835E+05</totfact>
</mgrwt>
</event>
<event>
 5    1  0.1247456E+001  0.9118782E+02  0.7546771E-02  0.1300000E+00
          1   -1    0    0  501    0  0.00000000000E+00  0.00000000000E+00  0.34857529667E+02  0.34857529667E+02  0.00000000000E+00 0. -1.
         -1   -1    0    0    0  501 -0.00000000000E+00 -0.00000000000E+00 -0.59637173218E+02  0.59637173218E+02  0.00000000000E+00 0.  1.
         23    2    1    2    0    0  0.00000000000E+00  0.00000000000E+00 -0.24779643551E+02  0.94494702886E+02  0.91187817930E+02 0.  0.
        -11    1    3    3    0    0  0.36342144760E+02  0.55856316699E+01  0.15548104271E+02  0.39921101104E+02  0.00000000000E+00 0. -1.
         11    1    3    3    0    0 -0.36342144760E+02 -0.55856316699E+01 -0.40327747823E+02  0.54573601781E+02  0.00000000000E+00 0.  1.
<mgrwt>
<rscale>  0 0.91187818E+02</rscale>
<asrwt>0</asrwt>
<pdfrwt beam="1">  1        1 0.53626969E-02 0.91187818E+02</pdfrwt>
<pdfrwt beam="2">  1       -1 0.91749496E-02 0.91187818E+02</pdfrwt>
<totfact> 0.88737204E+04</totfact>
</mgrwt>
</event>
<event>
 5    1  0.1247456E+001  0.9070235E+02  0.7546771E-02  0.1301160E+00
          1   -1    0    0  501    0  0.00000000000E+00  0.00000000000E+00  0.31316480210E+03  0.31316480210E+03  0.00000000000E+00 0. -1.
         -1   -1    0    0    0  501 -0.00000000000E+00 -0.00000000000E+00 -0.65675613629E+01  0.65675613629E+01  0.00000000000E+00 0.  1.
         23    2    1    2    0    0  0.00000000000E+00  0.00000000000E+00  0.30659724073E+03  0.31973236346E+03  0.90702349572E+02 0.  0.
        -13    1    3    3    0    0 -0.20482586015E+02  0.36523612223E+02  0.21468130661E+03  0.21872716792E+03  0.00000000000E+00 0. -1.
         13    1    3    3    0    0  0.20482586015E+02 -0.36523612223E+02  0.91915934129E+02  0.10100519554E+03  0.00000000000E+00 0.  1.
<mgrwt>
<rscale>  0 0.90702350E+02</rscale>
<asrwt>0</asrwt>
<pdfrwt beam="1">  1        1 0.48179189E-01 0.90702350E+02</pdfrwt>
<pdfrwt beam="2">  1       -1 0.10103943E-02 0.90702350E+02</pdfrwt>
<totfact> 0.13097443E+05</totfact>
</mgrwt>
</event>
<event>
 5    1  0.1247456E+001  0.9359911E+02  0.7546771E-02  0.1294363E+00
          1   -1    0    0  501    0  0.00000000000E+00  0.00000000000E+00  0.11916124796E+03  0.11916124796E+03  0.00000000000E+00 0. -1.
         -1   -1    0    0    0  501 -0.00000000000E+00 -0.00000000000E+00 -0.18380120853E+02  0.18380120853E+02  0.00000000000E+00 0.  1.
         23    2    1    2    0    0  0.00000000000E+00  0.00000000000E+00  0.10078112711E+03  0.13754136882E+03  0.93599105522E+02 0.  0.
        -13    1    3    3    0    0  0.40218975139E+02 -0.21488096407E+02  0.34916105320E+02  0.57432035130E+02  0.00000000000E+00 0. -1.
         13    1    3    3    0    0 -0.40218975139E+02  0.21488096407E+02  0.65865021790E+02  0.80109333687E+02  0.00000000000E+00 0.  1.
<mgrwt>
<rscale>  0 0.93599106E+02</rscale>
<asrwt>0</asrwt>
<pdfrwt beam="1">  1        1 0.18332499E-01 0.93599106E+02</pdfrwt>
<pdfrwt beam="2">  1       -1 0.28277110E-02 0.93599106E+02</pdfrwt>
<totfact> 0.10020230E+05</totfact>
</mgrwt>
</event>
<event>
 5    1  0.1247456E+001  0.9112586E+02  0.7546771E-02  0.1300148E+00
          3   -1    0    0  501    0  0.00000000000E+00  0.00000000000E+00  0.65709932135E+02  0.65709932135E+02  0.00000000000E+00 0. -1.
         -3   -1    0    0    0  501 -0.00000000000E+00 -0.00000000000E+00 -0.31593099293E+02  0.31593099293E+02  0.00000000000E+00 0.  1.
         23    2    1    2    0    0  0.00000000000E+00  0.00000000000E+00  0.34116832842E+02  0.97303031428E+02  0.91125856056E+02 0.  0.
        -11    1    3    3    0    0 -0.25275609282E+02  0.37908706536E+02  0.16810389245E+02  0.48564551294E+02  0.00000000000E+00 0. -1.
         11    1    3    3    0    0  0.25275609282E+02 -0.37908706536E+02  0.17306443598E+02  0.48738480134E+02  0.00000000000E+00 0.  1.
<mgrwt>
<rscale>  0 0.91125856E+02</rscale>
<asrwt>0</asrwt>
<pdfrwt beam="1">  1        3 0.10109220E-01 0.91125856E+02</pdfrwt>
<pdfrwt beam="2">  1       -3 0.48604768E-02 0.91125856E+02</pdfrwt>
<totfact> 0.34925459E+04</totfact>
</mgrwt>
</event>
<event>
 5    1  0.1247456E+001  0.9267517E+02  0.7546771E-02  0.1296500E+00
          2   -1    0    0  501    0  0.00000000000E+00  0.00000000000E+00  0.79711680571E+02  0.79711680571E+02  0.00000000000E+00 0. -1.
         -2   -1    0    0    0  501 -0.00000000000E+00 -0.00000000000E+00 -0.26936729316E+02  0.26936729316E+02  0.00000000000E+00 0.  1.
         23    2    1    2    0    0  0.00000000000E+00  0.00000000000E+00  0.52774951254E+02  0.10664840989E+03  0.92675173868E+02 0.  0.
        -13    1    3    3    0    0 -0.32551300519E+02 -0.22030532341E+02 -0.18532553175E+01  0.39349283043E+02  0.00000000000E+00 0.  1.
         13    1    3    3    0    0  0.32551300519E+02  0.22030532341E+02  0.54628206572E+02  0.67299126844E+02  0.00000000000E+00 0. -1.
<mgrwt>
<rscale>  0 0.92675174E+02</rscale>
<asrwt>0</asrwt>
<pdfrwt beam="1">  1        2 0.12263335E-01 0.92675174E+02</pdfrwt>
<pdfrwt beam="2">  1       -2 0.41441122E-02 0.92675174E+02</pdfrwt>
<totfact> 0.10964357E+05</totfact>
</mgrwt>
</event>
<event>
 5    1  0.1247456E+001  0.9443881E+02  0.7546771E-02  0.1292445E+00
         -1   -1    0    0    0  501 -0.00000000000E+00  0.00000000000E+00  0.42299316077E+02  0.42299316077E+02  0.00000000000E+00 0.  1.
          1   -1    0    0  501    0  0.00000000000E+00 -0.00000000000E+00 -0.52711781568E+02  0.52711781568E+02  0.00000000000E+00 0. -1.
         23    2    1    2    0    0  0.00000000000E+00  0.00000000000E+00 -0.10412465490E+02  0.95011097645E+02  0.94438812139E+02 0.  0.
        -13    1    3    3    0    0  0.21187951643E+02 -0.41357357605E+02  0.32298048003E+01  0.46581025772E+02  0.00000000000E+00 0. -1.
         13    1    3    3    0    0 -0.21187951643E+02  0.41357357605E+02 -0.13642270291E+02  0.48430071873E+02  0.00000000000E+00 0.  1.
<mgrwt>
<rscale>  0 0.94438812E+02</rscale>
<asrwt>0</asrwt>
<pdfrwt beam="2">  1        1 0.81095049E-02 0.94438812E+02</pdfrwt>
<pdfrwt beam="1">  1       -1 0.65075871E-02 0.94438812E+02</pdfrwt>
<totfact> 0.85654247E+04</totfact>
</mgrwt>
</event>
<event>
 5    1  0.1247456E+001  0.8975269E+02  0.7546771E-02  0.1303452E+00
          3   -1    0    0  501    0  0.00000000000E+00  0.00000000000E+00  0.19464408065E+02  0.19464408065E+02  0.00000000000E+00 0. -1.
         -3   -1    0    0    0  501 -0.00000000000E+00 -0.00000000000E+00 -0.10346505999E+03  0.10346505999E+03  0.00000000000E+00 0.  1.
         23    2    1    2    0    0  0.00000000000E+00  0.00000000000E+00 -0.84000651927E+02  0.12292946806E+03  0.89752685713E+02 0.  0.
        -13    1    3    3    0    0 -0.34441389738E+02 -0.28338712419E+02 -0.35207900277E+02  0.56823306754E+02  0.00000000000E+00 0.  1.
         13    1    3    3    0    0  0.34441389738E+02  0.28338712419E+02 -0.48792751650E+02  0.66106161303E+02  0.00000000000E+00 0. -1.
<mgrwt>
<rscale>  0 0.89752686E+02</rscale>
<asrwt>0</asrwt>
<pdfrwt beam="1">  1        3 0.29945243E-02 0.89752686E+02</pdfrwt>
<pdfrwt beam="2">  1       -3 0.15917701E-01 0.89752686E+02</pdfrwt>
<totfact> 0.34488771E+04</totfact>
</mgrwt>
</event>
<event>
 5    1  0.1247456E+001  0.9121845E+02  0.7546771E-02  0.1299928E+00
         -1   -1    0    0    0  501 -0.00000000000E+00  0.00000000000E+00  0.15419982420E+03  0.15419982420E+03  0.00000000000E+00 0.  1.
          1   -1    0    0  501    0  0.00000000000E+00 -0.00000000000E+00 -0.13490296788E+02  0.13490296788E+02  0.00000000000E+00 0. -1.
         23    2    1    2    0    0  0.00000000000E+00  0.00000000000E+00  0.14070952742E+03  0.16769012099E+03  0.91218449739E+02 0.  0.
        -11    1    3    3    0    0 -0.33559438974E+01 -0.34492902704E+02  0.12486315553E+03  0.12958329485E+03  0.00000000000E+00 0.  1.
         11    1    3    3    0    0  0.33559438974E+01  0.34492902704E+02  0.15846371887E+02  0.38106826138E+02  0.00000000000E+00 0. -1.
<mgrwt>
<rscale>  0 0.91218450E+02</rscale>
<asrwt>0</asrwt>
<pdfrwt beam="2">  1        1 0.20754304E-02 0.91218450E+02</pdfrwt>
<pdfrwt beam="1">  1       -1 0.23723049E-01 0.91218450E+02</pdfrwt>
<totfact> 0.74214168E+04</totfact>
</mgrwt>
</event>
<event>
 5    1  0.1247456E+001  0.9141015E+02  0.7546771E-02  0.1299472E+00
          3   -1    0    0  501    0  0.00000000000E+00  0.00000000000E+00  0.58364509707E+02  0.58364509707E+02  0.00000000000E+00 0. -1.
         -3   -1    0    0    0  501 -0.00000000000E+00 -0.00000000000E+00 -0.35791508701E+02  0.35791508701E+02  0.00000000000E+00 0.  1.
         23    2    1    2    0    0  0.00000000000E+00  0.00000000000E+00  0.22573001006E+02  0.94156018409E+02  0.91410149481E+02 0.  0.
        -13    1    3    3    0    0  0.27227680263E+02 -0.30704175357E+02  0.32012075310E+02  0.52046766687E+02  0.00000000000E+00 0. -1.
         13    1    3    3    0    0 -0.27227680263E+02  0.30704175357E+02 -0.94390743038E+01  0.42109251722E+02  0.00000000000E+00 0.  1.
<mgrwt>
<rscale>  0 0.91410149E+02</rscale>
<asrwt>0</asrwt>
<pdfrwt beam="1">  1        3 0.89791554E-02 0.91410149E+02</pdfrwt>
<pdfrwt beam="2">  1       -3 0.55063859E-02 0.91410149E+02</pdfrwt>
<totfact> 0.34866915E+04</totfact>
</mgrwt>
</event>
<event>
 5    1  0.1247456E+001  0.8737095E+02  0.7546771E-02  0.1309346E+00
          1   -1    0    0  501    0  0.00000000000E+00  0.00000000000E+00  0.20701300057E+02  0.20701300057E+02  0.00000000000E+00 0. -1.
         -1   -1    0    0    0  501 -0.00000000000E+00 -0.00000000000E+00 -0.92188454153E+02  0.92188454153E+02  0.00000000000E+00 0.  1.
         23    2    1    2    0    0  0.00000000000E+00  0.00000000000E+00 -0.71487154096E+02  0.11288975421E+03  0.87370952866E+02 0.  0.
        -11    1    3    3    0    0 -0.75794017895E+01  0.15936551933E+02 -0.87378066902E+02  0.89142288475E+02  0.00000000000E+00 0.  1.
         11    1    3    3    0    0  0.75794017895E+01 -0.15936551933E+02  0.15890912806E+02  0.23747465734E+02  0.00000000000E+00 0. -1.
<mgrwt>
<rscale>  0 0.87370953E+02</rscale>
<asrwt>0</asrwt>
<pdfrwt beam="1">  1        1 0.31848154E-02 0.87370953E+02</pdfrwt>
<pdfrwt beam="2">  1       -1 0.14182839E-01 0.87370953E+02</pdfrwt>
<totfact> 0.92136502E+04</totfact>
</mgrwt>
</event>
<event>
 5    1  0.1247456E+001  0.9079007E+02  0.7546771E-02  0.1300950E+00
         -2   -1    0    0    0  501 -0.00000000000E+00  0.00000000000E+00  0.13853081476E+03  0.13853081476E+03  0.00000000000E+00 0.  1.
          2   -1    0    0  501    0  0.00000000000E+00 -0.00000000000E+00 -0.14875456304E+02  0.14875456304E+02  0.00000000000E+00 0. -1.
         23    2    1    2    0    0  0.00000000000E+00  0.00000000000E+00  0.12365535845E+03  0.15340627106E+03  0.90790067335E+02 0.  0.
        -11    1    3    3    0    0  0.13862091005E+02 -0.25464835317E+02  0.12084797253E+03  0.12427730231E+03  0.00000000000E+00 0.  1.
         11    1    3    3    0    0 -0.13862091005E+02  0.25464835317E+02  0.28073859221E+01  0.29128968750E+02  0.00000000000E+00 0. -1.
<mgrwt>
<rscale>  0 0.90790067E+02</rscale>
<asrwt>0</asrwt>
<pdfrwt beam="2">  1        2 0.22885318E-02 0.90790067E+02</pdfrwt>
<pdfrwt beam="1">  1       -2 0.21312432E-01 0.90790067E+02</pdfrwt>
<totfact> 0.72639481E+04</totfact>
</mgrwt>
</event>
<event>
 5    1  0.1247456E+001  0.9453321E+02  0.7546771E-02  0.1292231E+00
          2   -1    0    0  501    0  0.00000000000E+00  0.00000000000E+00  0.14689175080E+03  0.14689175080E+03  0.00000000000E+00 0. -1.
         -2   -1    0    0    0  501 -0.00000000000E+00 -0.00000000000E+00 -0.15209375503E+02  0.15209375503E+02  0.00000000000E+00 0.  1.
         23    2    1    2    0    0  0.00000000000E+00  0.00000000000E+00  0.13168237529E+03  0.16210112630E+03  0.94533206781E+02 0.  0.
        -13    1    3    3    0    0 -0.45006254330E+01 -0.23403590247E+02 -0.41524310122E+01  0.24191451983E+02  0.00000000000E+00 0.  1.
         13    1    3    3    0    0  0.45006254330E+01  0.23403590247E+02  0.13583480631E+03  0.13790967432E+03  0.00000000000E+00 0. -1.
<mgrwt>
<rscale>  0 0.94533207E+02</rscale>
<asrwt>0</asrwt>
<pdfrwt beam="1">  1        2 0.22598730E-01 0.94533207E+02</pdfrwt>
<pdfrwt beam="2">  1       -2 0.23399040E-02 0.94533207E+02</pdfrwt>
<totfact> 0.12579928E+05</totfact>
</mgrwt>
</event>
<event>
 5    1  0.1247456E+001  0.9081525E+02  0.7546771E-02  0.1300889E+00
          1   -1    0    0  501    0  0.00000000000E+00  0.00000000000E+00  0.78424672129E+02  0.78424672129E+02  0.00000000000E+00 0. -1.
         -1   -1    0    0    0  501 -0.00000000000E+00 -0.00000000000E+00 -0.26290864017E+02  0.26290864017E+02  0.00000000000E+00 0.  1.
         23    2    1    2    0    0  0.00000000000E+00  0.00000000000E+00  0.52133808113E+02  0.10471553615E+03  0.90815249611E+02 0.  0.
        -11    1    3    3    0    0 -0.17899348859E+02  0.21708721224E+01 -0.21986191557E+02  0.28433993644E+02  0.00000000000E+00 0.  1.
         11    1    3    3    0    0  0.17899348859E+02 -0.21708721224E+01  0.74119999670E+02  0.76281542502E+02  0.00000000000E+00 0. -1.
<mgrwt>
<rscale>  0 0.90815250E+02</rscale>
<asrwt>0</asrwt>
<pdfrwt beam="1">  1        1 0.12065334E-01 0.90815250E+02</pdfrwt>
<pdfrwt beam="2">  1       -1 0.40447483E-02 0.90815250E+02</pdfrwt>
<totfact> 0.10153061E+05</totfact>
</mgrwt>
</event>
<event>
 5    1  0.1247456E+001  0.9003318E+02  0.7546771E-02  0.1302771E+00
         -2   -1    0    0    0  501 -0.00000000000E+00  0.00000000000E+00  0.60170060013E+02  0.60170060013E+02  0.00000000000E+00 0.  1.
          2   -1    0    0  501    0  0.00000000000E+00 -0.00000000000E+00 -0.33679433654E+02  0.33679433654E+02  0.00000000000E+00 0. -1.
         23    2    1    2    0    0  0.00000000000E+00  0.00000000000E+00  0.26490626359E+02  0.93849493667E+02  0.90033183752E+02 0.  0.
        -11    1    3    3    0    0 -0.19308229874E+02  0.47614800796E+01  0.55342995367E+02  0.58807538374E+02  0.00000000000E+00 0.  1.
         11    1    3    3    0    0  0.19308229874E+02 -0.47614800796E+01 -0.28852369007E+02  0.35041955293E+02  0.00000000000E+00 0. -1.
<mgrwt>
<rscale>  0 0.90033184E+02</rscale>
<asrwt>0</asrwt>
<pdfrwt beam="2">  1        2 0.51814513E-02 0.90033184E+02</pdfrwt>
<pdfrwt beam="1">  1       -2 0.92569323E-02 0.90033184E+02</pdfrwt>
<totfact> 0.94652797E+04</totfact>
</mgrwt>
</event>
<event>
 5    1  0.1247456E+001  0.9119556E+02  0.7546771E-02  0.1299982E+00
          1   -1    0    0  501    0  0.00000000000E+00  0.00000000000E+00  0.47106294784E+01  0.47106294784E+01  0.00000000000E+00 0. -1.
         -1   -1    0    0    0  501 -0.00000000000E+00 -0.00000000000E+00 -0.44137569698E+03  0.44137569698E+03  0.00000000000E+00 0.  1.
         23    2    1    2    0    0  0.00000000000E+00  0.00000000000E+00 -0.43666506750E+03  0.44608632646E+03  0.91195556235E+02 0.  0.
        -13    1    3    3    0    0  0.10690734423E+02  0.43315852686E+02 -0.17228905209E+03  0.17797211120E+03  0.00000000000E+00 0. -1.
         13    1    3    3    0    0 -0.10690734423E+02 -0.43315852686E+02 -0.26437601542E+03  0.26811421526E+03  0.00000000000E+00 0.  1.
<mgrwt>
<rscale>  0 0.91195556E+02</rscale>
<asrwt>0</asrwt>
<pdfrwt beam="1">  1        1 0.72471242E-03 0.91195556E+02</pdfrwt>
<pdfrwt beam="2">  1       -1 0.67903936E-01 0.91195556E+02</pdfrwt>
<totfact> 0.50564837E+04</totfact>
</mgrwt>
</event>
<event>
 5    1  0.1247456E+001  0.9029743E+02  0.7546771E-02  0.1302133E+00
          1   -1    0    0  501    0  0.00000000000E+00  0.00000000000E+00  0.30691210793E+02  0.30691210793E+02  0.00000000000E+00 0. -1.
         -1   -1    0    0    0  501 -0.00000000000E+00 -0.00000000000E+00 -0.66416612060E+02  0.66416612060E+02  0.00000000000E+00 0.  1.
         23    2    1    2    0    0  0.00000000000E+00  0.00000000000E+00 -0.35725401267E+02  0.97107822854E+02  0.90297425011E+02 0.  0.
        -11    1    3    3    0    0  0.11030470509E+02 -0.43564427594E+02 -0.22534985842E+02  0.50272817886E+02  0.00000000000E+00 0.  1.
         11    1    3    3    0    0 -0.11030470509E+02  0.43564427594E+02 -0.13190415425E+02  0.46835004968E+02  0.00000000000E+00 0. -1.
<mgrwt>
<rscale>  0 0.90297425E+02</rscale>
<asrwt>0</asrwt>
<pdfrwt beam="1">  1        1 0.47217248E-02 0.90297425E+02</pdfrwt>
<pdfrwt beam="2">  1       -1 0.10217940E-01 0.90297425E+02</pdfrwt>
<totfact> 0.89450073E+04</totfact>
</mgrwt>
</event>
<event>
 5    1  0.1247456E+001  0.9640723E+02  0.7546771E-02  0.1288038E+00
         -2   -1    0    0    0  501 -0.00000000000E+00  0.00000000000E+00  0.31398677210E+02  0.31398677210E+02  0.00000000000E+00 0.  1.
          2   -1    0    0  501    0  0.00000000000E+00 -0.00000000000E+00 -0.74002755551E+02  0.74002755551E+02  0.00000000000E+00 0. -1.
         23    2    1    2    0    0  0.00000000000E+00  0.00000000000E+00 -0.42604078341E+02  0.10540143276E+03  0.96407232803E+02 0.  0.
        -11    1    3    3    0    0 -0.39874653500E+02 -0.24926501167E+02 -0.97177574571E+01  0.48018259674E+02  0.00000000000E+00 0.  1.
         11    1    3    3    0    0  0.39874653500E+02  0.24926501167E+02 -0.32886320884E+02  0.57383173086E+02  0.00000000000E+00 0. -1.
<mgrwt>
<rscale>  0 0.96407233E+02</rscale>
<asrwt>0</asrwt>
<pdfrwt beam="2">  1        2 0.11385039E-01 0.96407233E+02</pdfrwt>
<pdfrwt beam="1">  1       -2 0.48305658E-02 0.96407233E+02</pdfrwt>
<totfact> 0.96074549E+04</totfact>
</mgrwt>
</event>
<event>
 5    1  0.1247456E+001  0.8898313E+02  0.7546771E-02  0.1305333E+00
         -4   -1    0    0    0  501 -0.00000000000E+00  0.00000000000E+00  0.11517687854E+02  0.11517687854E+02  0.00000000000E+00 0.  1.
          4   -1    0    0  501    0  0.00000000000E+00 -0.00000000000E+00 -0.17186605444E+03  0.17186605444E+03  0.00000000000E+00 0. -1.
         23    2    1    2    0    0  0.00000000000E+00  0.00000000000E+00 -0.16034836659E+03  0.18338374229E+03  0.88983134754E+02 0.  0.
        -13    1    3    3    0    0 -0.22678811526E+02 -0.37790234181E+02 -0.92721769320E+02  0.10266331768E+03  0.00000000000E+00 0. -1.
         13    1    3    3    0    0  0.22678811526E+02  0.37790234181E+02 -0.67626597266E+02  0.80720424611E+02  0.00000000000E+00 0.  1.
<mgrwt>
<rscale>  0 0.88983135E+02</rscale>
<asrwt>0</asrwt>
<pdfrwt beam="2">  1        4 0.26440932E-01 0.88983135E+02</pdfrwt>
<pdfrwt beam="1">  1       -4 0.17719519E-02 0.88983135E+02</pdfrwt>
<totfact> 0.23586716E+04</totfact>
</mgrwt>
</event>
<event>
 5    1  0.1247456E+001  0.9059424E+02  0.7546771E-02  0.1301419E+00
          2   -1    0    0  501    0  0.00000000000E+00  0.00000000000E+00  0.17099009863E+03  0.17099009863E+03  0.00000000000E+00 0. -1.
         -2   -1    0    0    0  501 -0.00000000000E+00 -0.00000000000E+00 -0.11999696295E+02  0.11999696295E+02  0.00000000000E+00 0.  1.
         23    2    1    2    0    0  0.00000000000E+00  0.00000000000E+00  0.15899040234E+03  0.18298979493E+03  0.90594243815E+02 0.  0.
        -11    1    3    3    0    0  0.20918025628E+02 -0.35013654183E+02  0.11929815121E+03  0.12607762949E+03  0.00000000000E+00 0. -1.
         11    1    3    3    0    0 -0.20918025628E+02  0.35013654183E+02  0.39692251128E+02  0.56912165440E+02  0.00000000000E+00 0.  1.
<mgrwt>
<rscale>  0 0.90594244E+02</rscale>
<asrwt>0</asrwt>
<pdfrwt beam="1">  1        2 0.26306167E-01 0.90594244E+02</pdfrwt>
<pdfrwt beam="2">  1       -2 0.18461072E-02 0.90594244E+02</pdfrwt>
<totfact> 0.14883030E+05</totfact>
</mgrwt>
</event>
<event>
 5    1  0.1247456E+001  0.9055063E+02  0.7546771E-02  0.1301524E+00
          2   -1    0    0  501    0  0.00000000000E+00  0.00000000000E+00  0.17714389147E+03  0.17714389147E+03  0.00000000000E+00 0. -1.
         -2   -1    0    0    0  501 -0.00000000000E+00 -0.00000000000E+00 -0.11571688846E+02  0.11571688846E+02  0.00000000000E+00 0.  1.
         23    2    1    2    0    0  0.00000000000E+00  0.00000000000E+00  0.16557220262E+03  0.18871558031E+03  0.90550626568E+02 0.  0.
        -11    1    3    3    0    0 -0.44237084059E+02  0.61920782652E+01  0.98184763868E+02  0.10786801794E+03  0.00000000000E+00 0. -1.
         11    1    3    3    0    0  0.44237084059E+02 -0.61920782652E+01  0.67387438752E+02  0.80847562368E+02  0.00000000000E+00 0.  1.
<mgrwt>
<rscale>  0 0.90550627E+02</rscale>
<asrwt>0</asrwt>
<pdfrwt beam="1">  1        2 0.27252904E-01 0.90550627E+02</pdfrwt>
<pdfrwt beam="2">  1       -2 0.17802600E-02 0.90550627E+02</pdfrwt>
<totfact> 0.15088448E+05</totfact>
</mgrwt>
</event>
<event>
 5    1  0.1247456E+001  0.8962171E+02  0.7546771E-02  0.1303770E+00
          2   -1    0    0  501    0  0.00000000000E+00  0.00000000000E+00  0.25478783064E+02  0.25478783064E+02  0.00000000000E+00 0. -1.
         -2   -1    0    0    0  501 -0.00000000000E+00 -0.00000000000E+00 -0.78811172352E+02  0.78811172352E+02  0.00000000000E+00 0.  1.
         23    2    1    2    0    0  0.00000000000E+00  0.00000000000E+00 -0.53332389288E+02  0.10428995542E+03  0.89621710838E+02 0.  0.
        -13    1    3    3    0    0 -0.14258911990E+02  0.42445722415E+02 -0.24631657288E+02  0.51104544448E+02  0.00000000000E+00 0. -1.
         13    1    3    3    0    0  0.14258911990E+02 -0.42445722415E+02 -0.28700732000E+02  0.53185410968E+02  0.00000000000E+00 0.  1.
<mgrwt>
<rscale>  0 0.89621711E+02</rscale>
<asrwt>0</asrwt>
<pdfrwt beam="1">  1        2 0.39198129E-02 0.89621711E+02</pdfrwt>
<pdfrwt beam="2">  1       -2 0.12124796E-01 0.89621711E+02</pdfrwt>
<totfact> 0.89113176E+04</totfact>
</mgrwt>
</event>
<event>
 5    1  0.1247456E+001  0.1071088E+03  0.7546771E-02  0.1266019E+00
         -1   -1    0    0    0  501 -0.00000000000E+00  0.00000000000E+00  0.19262981832E+03  0.19262981832E+03  0.00000000000E+00 0.  1.
          1   -1    0    0  501    0  0.00000000000E+00 -0.00000000000E+00 -0.14889053478E+02  0.14889053478E+02  0.00000000000E+00 0. -1.
         23    2    1    2    0    0  0.00000000000E+00  0.00000000000E+00  0.17774076484E+03  0.20751887180E+03  0.10710883561E+03 0.  0.
        -13    1    3    3    0    0 -0.32505748558E+02  0.15679120676E+02  0.16553148917E+03  0.16941998826E+03  0.00000000000E+00 0.  1.
         13    1    3    3    0    0  0.32505748558E+02 -0.15679120676E+02  0.12209275670E+02  0.38098883538E+02  0.00000000000E+00 0. -1.
<mgrwt>
<rscale>  0 0.10710884E+03</rscale>
<asrwt>0</asrwt>
<pdfrwt beam="2">  1        1 0.22906237E-02 0.10710884E+03</pdfrwt>
<pdfrwt beam="1">  1       -1 0.29635355E-01 0.10710884E+03</pdfrwt>
<totfact> 0.46039282E+04</totfact>
</mgrwt>
</event>
<event>
 5    1  0.1247456E+001  0.9245288E+02  0.7546771E-02  0.1297018E+00
         -3   -1    0    0    0  501 -0.00000000000E+00  0.00000000000E+00  0.13455282562E+02  0.13455282562E+02  0.00000000000E+00 0.  1.
          3   -1    0    0  501    0  0.00000000000E+00 -0.00000000000E+00 -0.15881373384E+03  0.15881373384E+03  0.00000000000E+00 0. -1.
         23    2    1    2    0    0  0.00000000000E+00  0.00000000000E+00 -0.14535845128E+03  0.17226901641E+03  0.92452878020E+02 0.  0.
        -13    1    3    3    0    0 -0.42612497724E+02 -0.16360112806E+02 -0.59062290566E+02  0.74644707918E+02  0.00000000000E+00 0.  1.
         13    1    3    3    0    0  0.42612497724E+02  0.16360112806E+02 -0.86296160716E+02  0.97624308487E+02  0.00000000000E+00 0. -1.
<mgrwt>
<rscale>  0 0.92452878E+02</rscale>
<asrwt>0</asrwt>
<pdfrwt beam="2">  1        3 0.24432882E-01 0.92452878E+02</pdfrwt>
<pdfrwt beam="1">  1       -3 0.20700435E-02 0.92452878E+02</pdfrwt>
<totfact> 0.28889047E+04</totfact>
</mgrwt>
</event>
<event>
 5    1  0.1247456E+001  0.9205149E+02  0.7546771E-02  0.1297958E+00
          2   -1    0    0  501    0  0.00000000000E+00  0.00000000000E+00  0.98030512903E+01  0.98030512903E+01  0.00000000000E+00 0. -1.
         -2   -1    0    0    0  501 -0.00000000000E+00 -0.00000000000E+00 -0.21609286241E+03  0.21609286241E+03  0.00000000000E+00 0.  1.
         23    2    1    2    0    0  0.00000000000E+00  0.00000000000E+00 -0.20628981112E+03  0.22589591370E+03  0.92051494582E+02 0.  0.
        -11    1    3    3    0    0 -0.21550816283E+01  0.44939809663E+02 -0.79334802797E+02  0.91204395751E+02  0.00000000000E+00 0. -1.
         11    1    3    3    0    0  0.21550816283E+01 -0.44939809663E+02 -0.12695500833E+03  0.13469151795E+03  0.00000000000E+00 0.  1.
<mgrwt>
<rscale>  0 0.92051495E+02</rscale>
<asrwt>0</asrwt>
<pdfrwt beam="1">  1        2 0.15081618E-02 0.92051495E+02</pdfrwt>
<pdfrwt beam="2">  1       -2 0.33245055E-01 0.92051495E+02</pdfrwt>
<totfact> 0.58761399E+04</totfact>
</mgrwt>
</event>
<event>
 5    1  0.1247456E+001  0.8503421E+02  0.7546771E-02  0.1315343E+00
          1   -1    0    0  501    0  0.00000000000E+00  0.00000000000E+00  0.70209474979E+01  0.70209474979E+01  0.00000000000E+00 0.  1.
         -1   -1    0    0    0  501 -0.00000000000E+00 -0.00000000000E+00 -0.25747298145E+03  0.25747298145E+03  0.00000000000E+00 0. -1.
         23    2    1    2    0    0  0.00000000000E+00  0.00000000000E+00 -0.25045203395E+03  0.26449392894E+03  0.85034211583E+02 0.  0.
        -13    1    3    3    0    0  0.77799923896E+01 -0.38042763027E+02 -0.17909363376E+03  0.18325476734E+03  0.00000000000E+00 0.  1.
         13    1    3    3    0    0 -0.77799923896E+01  0.38042763027E+02 -0.71358400188E+02  0.81239161602E+02  0.00000000000E+00 0. -1.
<mgrwt>
<rscale>  0 0.85034212E+02</rscale>
<asrwt>0</asrwt>
<pdfrwt beam="1">  1        1 0.10801457E-02 0.85034212E+02</pdfrwt>
<pdfrwt beam="2">  1       -1 0.39611230E-01 0.85034212E+02</pdfrwt>
<totfact> 0.76885396E+04</totfact>
</mgrwt>
</event>
<event>
 5    1  0.1247456E+001  0.8975797E+02  0.7546771E-02  0.1303439E+00
          2   -1    0    0  501    0  0.00000000000E+00  0.00000000000E+00  0.95164651905E+02  0.95164651905E+02  0.00000000000E+00 0. -1.
         -2   -1    0    0    0  501 -0.00000000000E+00 -0.00000000000E+00 -0.21164616418E+02  0.21164616418E+02  0.00000000000E+00 0.  1.
         23    2    1    2    0    0  0.00000000000E+00  0.00000000000E+00  0.74000035487E+02  0.11632926832E+03  0.89757971325E+02 0.  0.
        -13    1    3    3    0    0 -0.13943812500E+02  0.33138533817E+02  0.21868556037E+01  0.36019087551E+02  0.00000000000E+00 0. -1.
         13    1    3    3    0    0  0.13943812500E+02 -0.33138533817E+02  0.71813179883E+02  0.80310180771E+02  0.00000000000E+00 0.  1.
<mgrwt>
<rscale>  0 0.89757971E+02</rscale>
<asrwt>0</asrwt>
<pdfrwt beam="1">  1        2 0.14640715E-01 0.89757971E+02</pdfrwt>
<pdfrwt beam="2">  1       -2 0.32560949E-02 0.89757971E+02</pdfrwt>
<totfact> 0.12618407E+05</totfact>
</mgrwt>
</event>
<event>
 5    1  0.1247456E+001  0.8878340E+02  0.7546771E-02  0.1305825E+00
         -4   -1    0    0    0  501 -0.00000000000E+00  0.00000000000E+00  0.18037079579E+03  0.18037079579E+03  0.00000000000E+00 0. -1.
          4   -1    0    0  501    0  0.00000000000E+00 -0.00000000000E+00 -0.10925400525E+02  0.10925400525E+02  0.00000000000E+00 0.  1.
         23    2    1    2    0    0  0.00000000000E+00  0.00000000000E+00  0.16944539526E+03  0.19129619631E+03  0.88783403562E+02 0.  0.
        -13    1    3    3    0    0  0.19556837382E+02 -0.39601068485E+02  0.94336511428E+02  0.10416377442E+03  0.00000000000E+00 0. -1.
         13    1    3    3    0    0 -0.19556837382E+02  0.39601068485E+02  0.75108883833E+02  0.87132421888E+02  0.00000000000E+00 0.  1.
<mgrwt>
<rscale>  0 0.88783404E+02</rscale>
<asrwt>0</asrwt>
<pdfrwt beam="2">  1        4 0.16808310E-02 0.88783404E+02</pdfrwt>
<pdfrwt beam="1">  1       -4 0.27749351E-01 0.88783404E+02</pdfrwt>
<totfact> 0.23356508E+04</totfact>
</mgrwt>
</event>
<event>
 5    1  0.1247456E+001  0.9309461E+02  0.7546771E-02  0.1295526E+00
          3   -1    0    0  501    0  0.00000000000E+00  0.00000000000E+00  0.53705892449E+02  0.53705892449E+02  0.00000000000E+00 0. -1.
         -3   -1    0    0    0  501 -0.00000000000E+00 -0.00000000000E+00 -0.40342904082E+02  0.40342904082E+02  0.00000000000E+00 0.  1.
         23    2    1    2    0    0  0.00000000000E+00  0.00000000000E+00  0.13362988367E+02  0.94048796531E+02  0.93094611395E+02 0.  0.
        -13    1    3    3    0    0  0.76595451647E+01  0.42387430150E+02  0.24505710634E+02  0.49556964400E+02  0.00000000000E+00 0.  1.
         13    1    3    3    0    0 -0.76595451647E+01 -0.42387430150E+02 -0.11142722266E+02  0.44491832131E+02  0.00000000000E+00 0. -1.
<mgrwt>
<rscale>  0 0.93094611E+02</rscale>
<asrwt>0</asrwt>
<pdfrwt beam="1">  1        3 0.82624450E-02 0.93094611E+02</pdfrwt>
<pdfrwt beam="2">  1       -3 0.62066006E-02 0.93094611E+02</pdfrwt>
<totfact> 0.33178275E+04</totfact>
</mgrwt>
</event>
<event>
 5    1  0.1247456E+001  0.9223851E+02  0.7546771E-02  0.1297520E+00
         -2   -1    0    0    0  501 -0.00000000000E+00  0.00000000000E+00  0.35755317305E+02  0.35755317305E+02  0.00000000000E+00 0.  1.
          2   -1    0    0  501    0  0.00000000000E+00 -0.00000000000E+00 -0.59487259199E+02  0.59487259199E+02  0.00000000000E+00 0. -1.
         23    2    1    2    0    0  0.00000000000E+00  0.00000000000E+00 -0.23731941894E+02  0.95242576503E+02  0.92238513176E+02 0.  0.
        -13    1    3    3    0    0  0.79673152348E+01  0.27711195931E+02  0.25300717301E+02  0.38360328308E+02  0.00000000000E+00 0.  1.
         13    1    3    3    0    0 -0.79673152348E+01 -0.27711195931E+02 -0.49032659195E+02  0.56882248195E+02  0.00000000000E+00 0. -1.
<mgrwt>
<rscale>  0 0.92238513E+02</rscale>
<asrwt>0</asrwt>
<pdfrwt beam="2">  1        2 0.91518860E-02 0.92238513E+02</pdfrwt>
<pdfrwt beam="1">  1       -2 0.55008181E-02 0.92238513E+02</pdfrwt>
<totfact> 0.10241737E+05</totfact>
</mgrwt>
</event>
<event>
 5    1  0.1247456E+001  0.9462932E+02  0.7546771E-02  0.1292013E+00
          1   -1    0    0  501    0  0.00000000000E+00  0.00000000000E+00  0.20619946080E+02  0.20619946080E+02  0.00000000000E+00 0. -1.
         -1   -1    0    0    0  501 -0.00000000000E+00 -0.00000000000E+00 -0.10856853088E+03  0.10856853088E+03  0.00000000000E+00 0.  1.
         23    2    1    2    0    0  0.00000000000E+00  0.00000000000E+00 -0.87948584801E+02  0.12918847696E+03  0.94629324267E+02 0.  0.
        -13    1    3    3    0    0  0.30861525373E+02 -0.20678491131E+02 -0.83978390626E+02  0.91828121161E+02  0.00000000000E+00 0.  1.
         13    1    3    3    0    0 -0.30861525373E+02  0.20678491131E+02 -0.39701941751E+01  0.37360355801E+02  0.00000000000E+00 0. -1.
<mgrwt>
<rscale>  0 0.94629324E+02</rscale>
<asrwt>0</asrwt>
<pdfrwt beam="1">  1        1 0.31722994E-02 0.94629324E+02</pdfrwt>
<pdfrwt beam="2">  1       -1 0.16702851E-01 0.94629324E+02</pdfrwt>
<totfact> 0.72775244E+04</totfact>
</mgrwt>
</event>
<event>
 5    1  0.1247456E+001  0.9112902E+02  0.7546771E-02  0.1300140E+00
          2   -1    0    0  501    0  0.00000000000E+00  0.00000000000E+00  0.22012334499E+02  0.22012334499E+02  0.00000000000E+00 0. -1.
         -2   -1    0    0    0  501 -0.00000000000E+00 -0.00000000000E+00 -0.94316409389E+02  0.94316409389E+02  0.00000000000E+00 0.  1.
         23    2    1    2    0    0  0.00000000000E+00  0.00000000000E+00 -0.72304074889E+02  0.11632874389E+03  0.91129015187E+02 0.  0.
        -11    1    3    3    0    0  0.11880032891E+02 -0.42016181351E+02 -0.52777788649E+02  0.68498099619E+02  0.00000000000E+00 0.  1.
         11    1    3    3    0    0 -0.11880032891E+02  0.42016181351E+02 -0.19526286240E+02  0.47830644268E+02  0.00000000000E+00 0. -1.
<mgrwt>
<rscale>  0 0.91129015E+02</rscale>
<asrwt>0</asrwt>
<pdfrwt beam="1">  1        2 0.33865130E-02 0.91129015E+02</pdfrwt>
<pdfrwt beam="2">  1       -2 0.14510217E-01 0.91129015E+02</pdfrwt>
<totfact> 0.81301959E+04</totfact>
</mgrwt>
</event>
<event>
 5    1  0.1247456E+001  0.9166650E+02  0.7546771E-02  0.1298865E+00
          3   -1    0    0  501    0  0.00000000000E+00  0.00000000000E+00  0.89373179437E+01  0.89373179437E+01  0.00000000000E+00 0. -1.
         -3   -1    0    0    0  501 -0.00000000000E+00 -0.00000000000E+00 -0.23504668402E+03  0.23504668402E+03  0.00000000000E+00 0.  1.
         23    2    1    2    0    0  0.00000000000E+00  0.00000000000E+00 -0.22610936607E+03  0.24398400196E+03  0.91666503079E+02 0.  0.
        -13    1    3    3    0    0 -0.38925996425E+02  0.41310646980E+01 -0.49598615154E+02  0.63184820316E+02  0.00000000000E+00 0. -1.
         13    1    3    3    0    0  0.38925996425E+02 -0.41310646980E+01 -0.17651075092E+03  0.18079918164E+03  0.00000000000E+00 0.  1.
<mgrwt>
<rscale>  0 0.91666503E+02</rscale>
<asrwt>0</asrwt>
<pdfrwt beam="1">  1        3 0.13749722E-02 0.91666503E+02</pdfrwt>
<pdfrwt beam="2">  1       -3 0.36161023E-01 0.91666503E+02</pdfrwt>
<totfact> 0.25991453E+04</totfact>
</mgrwt>
</event>
<event>
 5    1  0.1247456E+001  0.9492971E+02  0.7546771E-02  0.1291334E+00
         -3   -1    0    0    0  501 -0.00000000000E+00  0.00000000000E+00  0.17459730039E+03  0.17459730039E+03  0.00000000000E+00 0.  1.
          3   -1    0    0  501    0  0.00000000000E+00 -0.00000000000E+00 -0.12903477798E+02  0.12903477798E+02  0.00000000000E+00 0. -1.
         23    2    1    2    0    0  0.00000000000E+00  0.00000000000E+00  0.16169382260E+03  0.18750077819E+03  0.94929708505E+02 0.  0.
        -11    1    3    3    0    0  0.77932744168E+01 -0.27169061019E+02  0.55311230522E+01  0.28800804242E+02  0.00000000000E+00 0. -1.
         11    1    3    3    0    0 -0.77932744168E+01  0.27169061019E+02  0.15616269954E+03  0.15869997395E+03  0.00000000000E+00 0.  1.
<mgrwt>
<rscale>  0 0.94929709E+02</rscale>
<asrwt>0</asrwt>
<pdfrwt beam="2">  1        3 0.19851506E-02 0.94929709E+02</pdfrwt>
<pdfrwt beam="1">  1       -3 0.26861121E-01 0.94929709E+02</pdfrwt>
<totfact> 0.26138010E+04</totfact>
</mgrwt>
</event>
<event>
 5    1  0.1247456E+001  0.9149889E+02  0.7546771E-02  0.1299262E+00
          1   -1    0    0  501    0  0.00000000000E+00  0.00000000000E+00  0.14761074254E+03  0.14761074254E+03  0.00000000000E+00 0. -1.
         -1   -1    0    0    0  501 -0.00000000000E+00 -0.00000000000E+00 -0.14179265523E+02  0.14179265523E+02  0.00000000000E+00 0.  1.
         23    2    1    2    0    0  0.00000000000E+00  0.00000000000E+00  0.13343147701E+03  0.16179000806E+03  0.91498894254E+02 0.  0.
        -11    1    3    3    0    0 -0.30064257520E+02 -0.34482563495E+02  0.67289107589E+02  0.81367873055E+02  0.00000000000E+00 0. -1.
         11    1    3    3    0    0  0.30064257520E+02  0.34482563495E+02  0.66142369423E+02  0.80422135002E+02  0.00000000000E+00 0.  1.
<mgrwt>
<rscale>  0 0.91498894E+02</rscale>
<asrwt>0</asrwt>
<pdfrwt beam="1">  1        1 0.22709344E-01 0.91498894E+02</pdfrwt>
<pdfrwt beam="2">  1       -1 0.21814256E-02 0.91498894E+02</pdfrwt>
<totfact> 0.11074277E+05</totfact>
</mgrwt>
</event>
<event>
 5    1  0.1247456E+001  0.9054254E+02  0.7546771E-02  0.1301543E+00
          1   -1    0    0  501    0  0.00000000000E+00  0.00000000000E+00  0.19732965486E+02  0.19732965486E+02  0.00000000000E+00 0. -1.
         -1   -1    0    0    0  501 -0.00000000000E+00 -0.00000000000E+00 -0.10386111490E+03  0.10386111490E+03  0.00000000000E+00 0.  1.
         23    2    1    2    0    0  0.00000000000E+00  0.00000000000E+00 -0.84128149416E+02  0.12359408039E+03  0.90542537974E+02 0.  0.
        -13    1    3    3    0    0  0.24789852416E+02  0.36178133097E+02 -0.26735855652E+02  0.51363411827E+02  0.00000000000E+00 0. -1.
         13    1    3    3    0    0 -0.24789852416E+02 -0.36178133097E+02 -0.57392293764E+02  0.72230668560E+02  0.00000000000E+00 0.  1.
<mgrwt>
<rscale>  0 0.90542538E+02</rscale>
<asrwt>0</asrwt>
<pdfrwt beam="1">  1        1 0.30358409E-02 0.90542538E+02</pdfrwt>
<pdfrwt beam="2">  1       -1 0.15978633E-01 0.90542538E+02</pdfrwt>
<totfact> 0.82260001E+04</totfact>
</mgrwt>
</event>
<event>
 5    1  0.1247456E+001  0.8682516E+02  0.7546771E-02  0.1310727E+00
          2   -1    0    0  501    0  0.00000000000E+00  0.00000000000E+00  0.17459078716E+02  0.17459078716E+02  0.00000000000E+00 0. -1.
         -2   -1    0    0    0  501 -0.00000000000E+00 -0.00000000000E+00 -0.10794681447E+03  0.10794681447E+03  0.00000000000E+00 0.  1.
         23    2    1    2    0    0  0.00000000000E+00  0.00000000000E+00 -0.90487735751E+02  0.12540589318E+03  0.86825156053E+02 0.  0.
        -13    1    3    3    0    0  0.41280454030E+02  0.19054492713E+01 -0.26031013101E+02  0.48839740631E+02  0.00000000000E+00 0. -1.
         13    1    3    3    0    0 -0.41280454030E+02 -0.19054492713E+01 -0.64456722650E+02  0.76566152552E+02  0.00000000000E+00 0.  1.
<mgrwt>
<rscale>  0 0.86825156E+02</rscale>
<asrwt>0</asrwt>
<pdfrwt beam="1">  1        2 0.26860122E-02 0.86825156E+02</pdfrwt>
<pdfrwt beam="2">  1       -2 0.16607202E-01 0.86825156E+02</pdfrwt>
<totfact> 0.88101903E+04</totfact>
</mgrwt>
</event>
<event>
 5    1  0.1247456E+001  0.8583770E+02  0.7546771E-02  0.1313256E+00
         -1   -1    0    0    0  501 -0.00000000000E+00  0.00000000000E+00  0.14818191220E+03  0.14818191220E+03  0.00000000000E+00 0.  1.
          1   -1    0    0  501    0  0.00000000000E+00 -0.00000000000E+00 -0.12430854686E+02  0.12430854686E+02  0.00000000000E+00 0. -1.
         23    2    1    2    0    0  0.00000000000E+00  0.00000000000E+00  0.13575105752E+03  0.16061276689E+03  0.85837703083E+02 0.  0.
        -11    1    3    3    0    0 -0.38660676668E+02 -0.51496097624E+01  0.10139218801E+03  0.10863490319E+03  0.00000000000E+00 0.  1.
         11    1    3    3    0    0  0.38660676668E+02  0.51496097624E+01  0.34358869507E+02  0.51977863701E+02  0.00000000000E+00 0. -1.
<mgrwt>
<rscale>  0 0.85837703E+02</rscale>
<asrwt>0</asrwt>
<pdfrwt beam="2">  1        1 0.19124393E-02 0.85837703E+02</pdfrwt>
<pdfrwt beam="1">  1       -1 0.22797216E-01 0.85837703E+02</pdfrwt>
<totfact> 0.87683767E+04</totfact>
</mgrwt>
</event>
<event>
 5    1  0.1247456E+001  0.9061149E+02  0.7546771E-02  0.1301378E+00
         -2   -1    0    0    0  501 -0.00000000000E+00  0.00000000000E+00  0.17210034861E+03  0.17210034861E+03  0.00000000000E+00 0.  1.
          2   -1    0    0  501    0  0.00000000000E+00 -0.00000000000E+00 -0.11926825055E+02  0.11926825055E+02  0.00000000000E+00 0. -1.
         23    2    1    2    0    0  0.00000000000E+00  0.00000000000E+00  0.16017352356E+03  0.18402717367E+03  0.90611494851E+02 0.  0.
        -13    1    3    3    0    0 -0.11690529118E+02  0.38100505480E+02  0.12384855249E+03  0.13010296285E+03  0.00000000000E+00 0.  1.
         13    1    3    3    0    0  0.11690529118E+02 -0.38100505480E+02  0.36324971063E+02  0.53924210811E+02  0.00000000000E+00 0. -1.
<mgrwt>
<rscale>  0 0.90611495E+02</rscale>
<asrwt>0</asrwt>
<pdfrwt beam="2">  1        2 0.18348963E-02 0.90611495E+02</pdfrwt>
<pdfrwt beam="1">  1       -2 0.26476975E-01 0.90611495E+02</pdfrwt>
<totfact> 0.67369596E+04</totfact>
</mgrwt>
</event>
<event>
 5    1  0.1247456E+001  0.8937219E+02  0.7546771E-02  0.1304379E+00
          4   -1    0    0  501    0  0.00000000000E+00  0.00000000000E+00  0.61617726179E+02  0.61617726179E+02  0.00000000000E+00 0. -1.
         -4   -1    0    0    0  501 -0.00000000000E+00 -0.00000000000E+00 -0.32407021866E+02  0.32407021866E+02  0.00000000000E+00 0.  1.
         23    2    1    2    0    0  0.00000000000E+00  0.00000000000E+00  0.29210704313E+02  0.94024748045E+02  0.89372188060E+02 0.  0.
        -11    1    3    3    0    0 -0.38724348198E+02 -0.12111479544E+02  0.34303971306E+02  0.53132151542E+02  0.00000000000E+00 0.  1.
         11    1    3    3    0    0  0.38724348198E+02  0.12111479544E+02 -0.50932669933E+01  0.40892596503E+02  0.00000000000E+00 0. -1.
<mgrwt>
<rscale>  0 0.89372188E+02</rscale>
<asrwt>0</asrwt>
<pdfrwt beam="1">  1        4 0.94796502E-02 0.89372188E+02</pdfrwt>
<pdfrwt beam="2">  1       -4 0.49856957E-02 0.89372188E+02</pdfrwt>
<totfact> 0.28324460E+04</totfact>
</mgrwt>
</event>
<event>
 5    1  0.1247456E+001  0.8843873E+02  0.7546771E-02  0.1306677E+00
          3   -1    0    0  501    0  0.00000000000E+00  0.00000000000E+00  0.40429451725E+02  0.40429451725E+02  0.00000000000E+00 0. -1.
         -3   -1    0    0    0  501 -0.00000000000E+00 -0.00000000000E+00 -0.48364549528E+02  0.48364549528E+02  0.00000000000E+00 0.  1.
         23    2    1    2    0    0  0.00000000000E+00  0.00000000000E+00 -0.79350978030E+01  0.88794001253E+02  0.88438729533E+02 0.  0.
        -11    1    3    3    0    0 -0.37479838459E+02 -0.15523079710E+02 -0.21635053751E+02  0.45975861551E+02  0.00000000000E+00 0.  1.
         11    1    3    3    0    0  0.37479838459E+02  0.15523079710E+02  0.13699955948E+02  0.42818139702E+02  0.00000000000E+00 0. -1.
<mgrwt>
<rscale>  0 0.88438730E+02</rscale>
<asrwt>0</asrwt>
<pdfrwt beam="1">  1        3 0.62199157E-02 0.88438730E+02</pdfrwt>
<pdfrwt beam="2">  1       -3 0.74406999E-02 0.88438730E+02</pdfrwt>
<totfact> 0.38591183E+04</totfact>
</mgrwt>
</event>
<event>
 5    1  0.1247456E+001  0.9076700E+02  0.7546771E-02  0.1301005E+00
          1   -1    0    0  501    0  0.00000000000E+00  0.00000000000E+00  0.21748978935E+03  0.21748978935E+03  0.00000000000E+00 0. -1.
         -1   -1    0    0    0  501 -0.00000000000E+00 -0.00000000000E+00 -0.94701558828E+01  0.94701558828E+01  0.00000000000E+00 0.  1.
         23    2    1    2    0    0  0.00000000000E+00  0.00000000000E+00  0.20801963346E+03  0.22695994523E+03  0.90767002992E+02 0.  0.
        -13    1    3    3    0    0  0.24042363635E+02  0.35201551044E+02  0.14294634096E+03  0.14916715738E+03  0.00000000000E+00 0.  1.
         13    1    3    3    0    0 -0.24042363635E+02 -0.35201551044E+02  0.65073292501E+02  0.77792787854E+02  0.00000000000E+00 0. -1.
<mgrwt>
<rscale>  0 0.90767003E+02</rscale>
<asrwt>0</asrwt>
<pdfrwt beam="1">  1        1 0.33459964E-01 0.90767003E+02</pdfrwt>
<pdfrwt beam="2">  1       -1 0.14569472E-02 0.90767003E+02</pdfrwt>
<totfact> 0.12181354E+05</totfact>
</mgrwt>
</event>
<event>
 4    1  0.1247456E+001  0.1387943E+03  0.7546771E-02  0.1214961E+00
          2   -1    0    0  501    0  0.00000000000E+00  0.00000000000E+00  0.83051015809E+02  0.83051015809E+02  0.00000000000E+00 0.  1.
         -2   -1    0    0    0  501 -0.00000000000E+00 -0.00000000000E+00 -0.57988021615E+02  0.57988021615E+02  0.00000000000E+00 0. -1.
        -13    1    1    2    0    0  0.45278735523E+02 -0.33275222782E+01 -0.40802860135E+02  0.61041868339E+02  0.00000000000E+00 0. -1.
         13    1    1    2    0    0 -0.45278735523E+02  0.33275222782E+01  0.65865854330E+02  0.79997169085E+02  0.00000000000E+00 0.  1.
<mgrwt>
<rscale>  0 0.13879430E+03</rscale>
<asrwt>0</asrwt>
<pdfrwt beam="1">  1        2 0.12777079E-01 0.13879430E+03</pdfrwt>
<pdfrwt beam="2">  1       -2 0.89212340E-02 0.13879430E+03</pdfrwt>
<totfact> 0.34591215E+04</totfact>
</mgrwt>
</event>
<event>
 5    1  0.1247456E+001  0.9043447E+02  0.7546771E-02  0.1301803E+00
         -1   -1    0    0    0  501 -0.00000000000E+00  0.00000000000E+00  0.12037778295E+02  0.12037778295E+02  0.00000000000E+00 0.  1.
          1   -1    0    0  501    0  0.00000000000E+00 -0.00000000000E+00 -0.16984848610E+03  0.16984848610E+03  0.00000000000E+00 0. -1.
         23    2    1    2    0    0  0.00000000000E+00  0.00000000000E+00 -0.15781070780E+03  0.18188626439E+03  0.90434471731E+02 0.  0.
        -13    1    3    3    0    0 -0.13968939354E+02 -0.35547592308E+02 -0.30224984659E+02  0.48706388526E+02  0.00000000000E+00 0. -1.
         13    1    3    3    0    0  0.13968939354E+02  0.35547592308E+02 -0.12758572314E+03  0.13317987587E+03  0.00000000000E+00 0.  1.
<mgrwt>
<rscale>  0 0.90434472E+02</rscale>
<asrwt>0</asrwt>
<pdfrwt beam="2">  1        1 0.26130536E-01 0.90434472E+02</pdfrwt>
<pdfrwt beam="1">  1       -1 0.18519659E-02 0.90434472E+02</pdfrwt>
<totfact> 0.11730562E+05</totfact>
</mgrwt>
</event>
<event>
 5    1  0.1247456E+001  0.9142989E+02  0.7546771E-02  0.1299426E+00
          1   -1    0    0  501    0  0.00000000000E+00  0.00000000000E+00  0.11548882015E+03  0.11548882015E+03  0.00000000000E+00 0. -1.
         -1   -1    0    0    0  501 -0.00000000000E+00 -0.00000000000E+00 -0.18095743432E+02  0.18095743432E+02  0.00000000000E+00 0.  1.
         23    2    1    2    0    0  0.00000000000E+00  0.00000000000E+00  0.97393076715E+02  0.13358456358E+03  0.91429886987E+02 0.  0.
        -11    1    3    3    0    0 -0.30147308721E+02  0.24485738310E+02  0.13465762323E+02  0.41106427218E+02  0.00000000000E+00 0.  1.
         11    1    3    3    0    0  0.30147308721E+02 -0.24485738310E+02  0.83927314392E+02  0.92478136361E+02  0.00000000000E+00 0. -1.
<mgrwt>
<rscale>  0 0.91429887E+02</rscale>
<asrwt>0</asrwt>
<pdfrwt beam="1">  1        1 0.17767510E-01 0.91429887E+02</pdfrwt>
<pdfrwt beam="2">  1       -1 0.27839606E-02 0.91429887E+02</pdfrwt>
<totfact> 0.10622417E+05</totfact>
</mgrwt>
</event>
<event>
 5    1  0.1247456E+001  0.9236581E+02  0.7546771E-02  0.1297222E+00
          4   -1    0    0  501    0  0.00000000000E+00  0.00000000000E+00  0.53925217414E+02  0.53925217414E+02  0.00000000000E+00 0. -1.
         -4   -1    0    0    0  501 -0.00000000000E+00 -0.00000000000E+00 -0.39552193507E+02  0.39552193507E+02  0.00000000000E+00 0.  1.
         23    2    1    2    0    0  0.00000000000E+00  0.00000000000E+00  0.14373023907E+02  0.93477410921E+02  0.92365808264E+02 0.  0.
        -11    1    3    3    0    0 -0.28419346082E+02 -0.28203210131E+02  0.30480473770E+02  0.50320369381E+02  0.00000000000E+00 0. -1.
         11    1    3    3    0    0  0.28419346082E+02  0.28203210131E+02 -0.16107449863E+02  0.43157041540E+02  0.00000000000E+00 0.  1.
<mgrwt>
<rscale>  0 0.92365808E+02</rscale>
<asrwt>0</asrwt>
<pdfrwt beam="1">  1        4 0.82961873E-02 0.92365808E+02</pdfrwt>
<pdfrwt beam="2">  1       -4 0.60849529E-02 0.92365808E+02</pdfrwt>
<totfact> 0.25938322E+04</totfact>
</mgrwt>
</event>
<event>
 5    1  0.1247456E+001  0.7989620E+02  0.7546771E-02  0.1329346E+00
          1   -1    0    0  501    0  0.00000000000E+00  0.00000000000E+00  0.18909684972E+02  0.18909684972E+02  0.00000000000E+00 0. -1.
         -1   -1    0    0    0  501 -0.00000000000E+00 -0.00000000000E+00 -0.84393293356E+02  0.84393293356E+02  0.00000000000E+00 0.  1.
         23    2    1    2    0    0  0.00000000000E+00  0.00000000000E+00 -0.65483608384E+02  0.10330297833E+03  0.79896197433E+02 0.  0.
        -13    1    3    3    0    0 -0.20391995142E+02 -0.11103060989E+02 -0.74772892367E+02  0.78294935099E+02  0.00000000000E+00 0.  1.
         13    1    3    3    0    0  0.20391995142E+02  0.11103060989E+02  0.92892839831E+01  0.25008043228E+02  0.00000000000E+00 0. -1.
<mgrwt>
<rscale>  0 0.79896197E+02</rscale>
<asrwt>0</asrwt>
<pdfrwt beam="1">  1        1 0.29091822E-02 0.79896197E+02</pdfrwt>
<pdfrwt beam="2">  1       -1 0.12983584E-01 0.79896197E+02</pdfrwt>
<totfact> 0.11758489E+05</totfact>
</mgrwt>
</event>
<event>
 5    1  0.1247456E+001  0.8976657E+02  0.7546771E-02  0.1303418E+00
         -2   -1    0    0    0  501 -0.00000000000E+00  0.00000000000E+00  0.22755156274E+02  0.22755156274E+02  0.00000000000E+00 0.  1.
          2   -1    0    0  501    0  0.00000000000E+00 -0.00000000000E+00 -0.88529787442E+02  0.88529787442E+02  0.00000000000E+00 0. -1.
         23    2    1    2    0    0  0.00000000000E+00  0.00000000000E+00 -0.65774631168E+02  0.11128494372E+03  0.89766567231E+02 0.  0.
        -13    1    3    3    0    0 -0.90197989641E+01  0.20863252868E+02 -0.80867275066E+02  0.84000882556E+02  0.00000000000E+00 0. -1.
         13    1    3    3    0    0  0.90197989641E+01 -0.20863252868E+02  0.15092643897E+02  0.27284061160E+02  0.00000000000E+00 0.  1.
<mgrwt>
<rscale>  0 0.89766567E+02</rscale>
<asrwt>0</asrwt>
<pdfrwt beam="2">  1        2 0.13619967E-01 0.89766567E+02</pdfrwt>
<pdfrwt beam="1">  1       -2 0.35007934E-02 0.89766567E+02</pdfrwt>
<totfact> 0.12348492E+05</totfact>
</mgrwt>
</event>
<event>
 5    1  0.1247456E+001  0.8629596E+02  0.7546771E-02  0.1312078E+00
         -4   -1    0    0    0  501 -0.00000000000E+00  0.00000000000E+00  0.29293241172E+03  0.29293241172E+03  0.00000000000E+00 0. -1.
          4   -1    0    0  501    0  0.00000000000E+00 -0.00000000000E+00 -0.63555559448E+01  0.63555559448E+01  0.00000000000E+00 0.  1.
         23    2    1    2    0    0  0.00000000000E+00  0.00000000000E+00  0.28657685578E+03  0.29928796767E+03  0.86295963539E+02 0.  0.
        -11    1    3    3    0    0  0.52794071573E+01 -0.37647203521E+02  0.72503665782E+02  0.81865533802E+02  0.00000000000E+00 0.  1.
         11    1    3    3    0    0 -0.52794071573E+01  0.37647203521E+02  0.21407319000E+03  0.21742243387E+03  0.00000000000E+00 0. -1.
<mgrwt>
<rscale>  0 0.86295964E+02</rscale>
<asrwt>0</asrwt>
<pdfrwt beam="2">  1        4 0.97777807E-03 0.86295964E+02</pdfrwt>
<pdfrwt beam="1">  1       -4 0.45066514E-01 0.86295964E+02</pdfrwt>
<totfact> 0.20636057E+04</totfact>
</mgrwt>
</event>
<event>
 5    1  0.1247456E+001  0.8936504E+02  0.7546771E-02  0.1304397E+00
         -4   -1    0    0    0  501 -0.00000000000E+00  0.00000000000E+00  0.76019096439E+01  0.76019096439E+01  0.00000000000E+00 0.  1.
          4   -1    0    0  501    0  0.00000000000E+00 -0.00000000000E+00 -0.26263501153E+03  0.26263501153E+03  0.00000000000E+00 0. -1.
         23    2    1    2    0    0  0.00000000000E+00  0.00000000000E+00 -0.25503310189E+03  0.27023692118E+03  0.89365040749E+02 0.  0.
        -13    1    3    3    0    0  0.34314391205E+02  0.26506078372E+02 -0.94880397587E+02  0.10431845225E+03  0.00000000000E+00 0.  1.
         13    1    3    3    0    0 -0.34314391205E+02 -0.26506078372E+02 -0.16015270430E+03  0.16591846892E+03  0.00000000000E+00 0. -1.
<mgrwt>
<rscale>  0 0.89365041E+02</rscale>
<asrwt>0</asrwt>
<pdfrwt beam="2">  1        4 0.40405378E-01 0.89365041E+02</pdfrwt>
<pdfrwt beam="1">  1       -4 0.11695248E-02 0.89365041E+02</pdfrwt>
<totfact> 0.19796000E+04</totfact>
</mgrwt>
</event>
<event>
 5    1  0.1247456E+001  0.9101388E+02  0.7546771E-02  0.1300415E+00
         -3   -1    0    0    0  501 -0.00000000000E+00  0.00000000000E+00  0.19148364580E+02  0.19148364580E+02  0.00000000000E+00 0.  1.
          3   -1    0    0  501    0  0.00000000000E+00 -0.00000000000E+00 -0.10814927052E+03  0.10814927052E+03  0.00000000000E+00 0. -1.
         23    2    1    2    0    0  0.00000000000E+00  0.00000000000E+00 -0.89000905942E+02  0.12729763510E+03  0.91013881600E+02 0.  0.
        -13    1    3    3    0    0  0.19637025794E+02 -0.34232273688E+02 -0.76192422091E+02  0.85806448056E+02  0.00000000000E+00 0. -1.
         13    1    3    3    0    0 -0.19637025794E+02  0.34232273688E+02 -0.12808483851E+02  0.41491187045E+02  0.00000000000E+00 0.  1.
<mgrwt>
<rscale>  0 0.91013882E+02</rscale>
<asrwt>0</asrwt>
<pdfrwt beam="2">  1        3 0.16638349E-01 0.91013882E+02</pdfrwt>
<pdfrwt beam="1">  1       -3 0.29459022E-02 0.91013882E+02</pdfrwt>
<totfact> 0.32914100E+04</totfact>
</mgrwt>
</event>
<event>
 5    1  0.1247456E+001  0.9159654E+02  0.7546771E-02  0.1299031E+00
         -1   -1    0    0    0  501 -0.00000000000E+00  0.00000000000E+00  0.22247150708E+02  0.22247150708E+02  0.00000000000E+00 0.  1.
          1   -1    0    0  501    0  0.00000000000E+00 -0.00000000000E+00 -0.94280907847E+02  0.94280907847E+02  0.00000000000E+00 0. -1.
         23    2    1    2    0    0  0.00000000000E+00  0.00000000000E+00 -0.72033757139E+02  0.11652805856E+03  0.91596540672E+02 0.  0.
        -13    1    3    3    0    0 -0.23241354332E+02  0.34049465691E+02 -0.10638237267E+02  0.42575800135E+02  0.00000000000E+00 0.  1.
         13    1    3    3    0    0  0.23241354332E+02 -0.34049465691E+02 -0.61395519872E+02  0.73952258420E+02  0.00000000000E+00 0. -1.
<mgrwt>
<rscale>  0 0.91596541E+02</rscale>
<asrwt>0</asrwt>
<pdfrwt beam="2">  1        1 0.14504755E-01 0.91596541E+02</pdfrwt>
<pdfrwt beam="1">  1       -1 0.34226386E-02 0.91596541E+02</pdfrwt>
<totfact> 0.10215035E+05</totfact>
</mgrwt>
</event>
<event>
 4    1  0.1247456E+001  0.5161716E+02  0.7546771E-02  0.1436809E+00
         -1   -1    0    0    0  501 -0.00000000000E+00  0.00000000000E+00  0.27936312207E+01  0.27936312207E+01  0.00000000000E+00 0.  1.
          1   -1    0    0  501    0  0.00000000000E+00 -0.00000000000E+00 -0.23842904211E+03  0.23842904211E+03  0.00000000000E+00 0. -1.
        -11    1    1    2    0    0 -0.23235767801E+01  0.25698909925E+02 -0.11548182194E+03  0.11832955750E+03  0.00000000000E+00 0. -1.
         11    1    1    2    0    0  0.23235767801E+01 -0.25698909925E+02 -0.12015358895E+03  0.12289311583E+03  0.00000000000E+00 0.  1.
<mgrwt>
<rscale>  0 0.51617161E+02</rscale>
<asrwt>0</asrwt>
<pdfrwt beam="2">  1        1 0.36681394E-01 0.51617161E+02</pdfrwt>
<pdfrwt beam="1">  1       -1 0.42978938E-03 0.51617161E+02</pdfrwt>
<totfact> 0.53522167E+05</totfact>
</mgrwt>
</event>
<event>
 5    1  0.1247456E+001  0.8290954E+02  0.7546771E-02  0.1320992E+00
          3   -1    0    0  501    0  0.00000000000E+00  0.00000000000E+00  0.80739048228E+02  0.80739048228E+02  0.00000000000E+00 0. -1.
         -3   -1    0    0    0  501 -0.00000000000E+00 -0.00000000000E+00 -0.21284595945E+02  0.21284595945E+02  0.00000000000E+00 0.  1.
         23    2    1    2    0    0  0.00000000000E+00  0.00000000000E+00  0.59454452282E+02  0.10202364417E+03  0.82909541515E+02 0.  0.
        -13    1    3    3    0    0  0.55394510450E+01  0.28013371747E+02 -0.72517995288E+01  0.29462231940E+02  0.00000000000E+00 0.  1.
         13    1    3    3    0    0 -0.55394510450E+01 -0.28013371747E+02  0.66706251811E+02  0.72561412232E+02  0.00000000000E+00 0. -1.
<mgrwt>
<rscale>  0 0.82909542E+02</rscale>
<asrwt>0</asrwt>
<pdfrwt beam="1">  1        3 0.12421392E-01 0.82909542E+02</pdfrwt>
<pdfrwt beam="2">  1       -3 0.32745533E-02 0.82909542E+02</pdfrwt>
<totfact> 0.44631202E+04</totfact>
</mgrwt>
</event>
<event>
 5    1  0.1247456E+001  0.9702446E+02  0.7546771E-02  0.1286681E+00
          3   -1    0    0  501    0  0.00000000000E+00  0.00000000000E+00  0.33915246476E+03  0.33915246476E+03  0.00000000000E+00 0. -1.
         -3   -1    0    0    0  501 -0.00000000000E+00 -0.00000000000E+00 -0.69391694628E+01  0.69391694628E+01  0.00000000000E+00 0.  1.
         23    2    1    2    0    0  0.00000000000E+00  0.00000000000E+00  0.33221329529E+03  0.34609163422E+03  0.97024459322E+02 0.  0.
        -11    1    3    3    0    0  0.41231656833E+02 -0.21741817733E+02  0.21405406591E+03  0.21907053498E+03  0.00000000000E+00 0. -1.
         11    1    3    3    0    0 -0.41231656833E+02  0.21741817733E+02  0.11815922938E+03  0.12702109924E+03  0.00000000000E+00 0.  1.
<mgrwt>
<rscale>  0 0.97024459E+02</rscale>
<asrwt>0</asrwt>
<pdfrwt beam="1">  1        3 0.52177290E-01 0.97024459E+02</pdfrwt>
<pdfrwt beam="2">  1       -3 0.10675648E-02 0.97024459E+02</pdfrwt>
<totfact> 0.18907234E+04</totfact>
</mgrwt>
</event>
<event>
 5    1  0.1247456E+001  0.9059499E+02  0.7546771E-02  0.1301417E+00
         -2   -1    0    0    0  501 -0.00000000000E+00  0.00000000000E+00  0.22667122158E+03  0.22667122158E+03  0.00000000000E+00 0.  1.
          2   -1    0    0  501    0  0.00000000000E+00 -0.00000000000E+00 -0.90521556101E+01  0.90521556101E+01  0.00000000000E+00 0. -1.
         23    2    1    2    0    0  0.00000000000E+00  0.00000000000E+00  0.21761906597E+03  0.23572337719E+03  0.90594992578E+02 0.  0.
        -13    1    3    3    0    0  0.12831345281E+01 -0.42995286444E+02  0.14575553977E+03  0.15197012359E+03  0.00000000000E+00 0. -1.
         13    1    3    3    0    0 -0.12831345281E+01  0.42995286444E+02  0.71863526202E+02  0.83753253601E+02  0.00000000000E+00 0.  1.
<mgrwt>
<rscale>  0 0.90594993E+02</rscale>
<asrwt>0</asrwt>
<pdfrwt beam="2">  1        2 0.13926395E-02 0.90594993E+02</pdfrwt>
<pdfrwt beam="1">  1       -2 0.34872491E-01 0.90594993E+02</pdfrwt>
<totfact> 0.59875811E+04</totfact>
</mgrwt>
</event>
<event>
 5    1  0.1247456E+001  0.8848197E+02  0.7546771E-02  0.1306570E+00
          1   -1    0    0  501    0  0.00000000000E+00  0.00000000000E+00  0.41946218842E+02  0.41946218842E+02  0.00000000000E+00 0. -1.
         -1   -1    0    0    0  501 -0.00000000000E+00 -0.00000000000E+00 -0.46661296324E+02  0.46661296324E+02  0.00000000000E+00 0.  1.
         23    2    1    2    0    0  0.00000000000E+00  0.00000000000E+00 -0.47150774826E+01  0.88607515166E+02  0.88481974369E+02 0.  0.
        -13    1    3    3    0    0  0.43462318633E+02 -0.27948352876E+01 -0.10145506842E+02  0.44718179237E+02  0.00000000000E+00 0.  1.
         13    1    3    3    0    0 -0.43462318633E+02  0.27948352876E+01  0.54304293589E+01  0.43889335929E+02  0.00000000000E+00 0. -1.
<mgrwt>
<rscale>  0 0.88481974E+02</rscale>
<asrwt>0</asrwt>
<pdfrwt beam="1">  1        1 0.64532645E-02 0.88481974E+02</pdfrwt>
<pdfrwt beam="2">  1       -1 0.71786609E-02 0.88481974E+02</pdfrwt>
<totfact> 0.99347281E+04</totfact>
</mgrwt>
</event>
<event>
 5    1  0.1247456E+001  0.8665255E+02  0.7546771E-02  0.1311167E+00
         -1   -1    0    0    0  501 -0.00000000000E+00  0.00000000000E+00  0.98701621383E+02  0.98701621383E+02  0.00000000000E+00 0.  1.
          1   -1    0    0  501    0  0.00000000000E+00 -0.00000000000E+00 -0.19018592389E+02  0.19018592389E+02  0.00000000000E+00 0. -1.
         23    2    1    2    0    0  0.00000000000E+00  0.00000000000E+00  0.79683028994E+02  0.11772021377E+03  0.86652545380E+02 0.  0.
        -13    1    3    3    0    0 -0.19107997872E+02  0.14627756962E+02  0.88787861843E+02  0.91991147765E+02  0.00000000000E+00 0.  1.
         13    1    3    3    0    0  0.19107997872E+02 -0.14627756962E+02 -0.91048328490E+01  0.25729066007E+02  0.00000000000E+00 0. -1.
<mgrwt>
<rscale>  0 0.86652545E+02</rscale>
<asrwt>0</asrwt>
<pdfrwt beam="2">  1        1 0.29259373E-02 0.86652545E+02</pdfrwt>
<pdfrwt beam="1">  1       -1 0.15184865E-01 0.86652545E+02</pdfrwt>
<totfact> 0.92966102E+04</totfact>
</mgrwt>
</event>
<event>
 5    1  0.1247456E+001  0.9076172E+02  0.7546771E-02  0.1301017E+00
          3   -1    0    0  501    0  0.00000000000E+00  0.00000000000E+00  0.72211947859E+02  0.72211947859E+02  0.00000000000E+00 0. -1.
         -3   -1    0    0    0  501 -0.00000000000E+00 -0.00000000000E+00 -0.28519138732E+02  0.28519138732E+02  0.00000000000E+00 0.  1.
         23    2    1    2    0    0  0.00000000000E+00  0.00000000000E+00  0.43692809127E+02  0.10073108659E+03  0.90761722308E+02 0.  0.
        -11    1    3    3    0    0  0.35003443727E+02 -0.20199710036E+02 -0.10645755091E+01  0.40427746404E+02  0.00000000000E+00 0.  1.
         11    1    3    3    0    0 -0.35003443727E+02  0.20199710036E+02  0.44757384636E+02  0.60303340187E+02  0.00000000000E+00 0. -1.
<mgrwt>
<rscale>  0 0.90761722E+02</rscale>
<asrwt>0</asrwt>
<pdfrwt beam="1">  1        3 0.11109530E-01 0.90761722E+02</pdfrwt>
<pdfrwt beam="2">  1       -3 0.43875598E-02 0.90761722E+02</pdfrwt>
<totfact> 0.35049212E+04</totfact>
</mgrwt>
</event>
<event>
 5    1  0.1247456E+001  0.9750968E+02  0.7546771E-02  0.1285622E+00
          1   -1    0    0  501    0  0.00000000000E+00  0.00000000000E+00  0.52276459725E+02  0.52276459725E+02  0.00000000000E+00 0. -1.
         -1   -1    0    0    0  501 -0.00000000000E+00 -0.00000000000E+00 -0.45470451398E+02  0.45470451398E+02  0.00000000000E+00 0.  1.
         23    2    1    2    0    0  0.00000000000E+00  0.00000000000E+00  0.68060083269E+01  0.97746911123E+02  0.97509675852E+02 0.  0.
        -11    1    3    3    0    0 -0.43266510890E+02 -0.21682967427E+02  0.93243357630E+01  0.49285751272E+02  0.00000000000E+00 0.  1.
         11    1    3    3    0    0  0.43266510890E+02  0.21682967427E+02 -0.25183274360E+01  0.48461159851E+02  0.00000000000E+00 0. -1.
<mgrwt>
<rscale>  0 0.97509676E+02</rscale>
<asrwt>0</asrwt>
<pdfrwt beam="1">  1        1 0.80425323E-02 0.97509676E+02</pdfrwt>
<pdfrwt beam="2">  1       -1 0.69954540E-02 0.97509676E+02</pdfrwt>
<totfact> 0.78177103E+04</totfact>
</mgrwt>
</event>
<event>
 5    1  0.1247456E+001  0.9651652E+02  0.7546771E-02  0.1287797E+00
          3   -1    0    0  501    0  0.00000000000E+00  0.00000000000E+00  0.19944326296E+02  0.19944326296E+02  0.00000000000E+00 0. -1.
         -3   -1    0    0    0  501 -0.00000000000E+00 -0.00000000000E+00 -0.11676803710E+03  0.11676803710E+03  0.00000000000E+00 0.  1.
         23    2    1    2    0    0  0.00000000000E+00  0.00000000000E+00 -0.96823710799E+02  0.13671236339E+03  0.96516523618E+02 0.  0.
        -11    1    3    3    0    0  0.19630495897E+02 -0.43633599856E+02 -0.57326865668E+02  0.74670053789E+02  0.00000000000E+00 0.  1.
         11    1    3    3    0    0 -0.19630495897E+02  0.43633599856E+02 -0.39496845132E+02  0.62042309603E+02  0.00000000000E+00 0. -1.
<mgrwt>
<rscale>  0 0.96516524E+02</rscale>
<asrwt>0</asrwt>
<pdfrwt beam="1">  1        3 0.30683578E-02 0.96516524E+02</pdfrwt>
<pdfrwt beam="2">  1       -3 0.17964314E-01 0.96516524E+02</pdfrwt>
<totfact> 0.27525179E+04</totfact>
</mgrwt>
</event>
<event>
 5    1  0.1247456E+001  0.7772717E+02  0.7546771E-02  0.1335628E+00
         -3   -1    0    0    0  501 -0.00000000000E+00  0.00000000000E+00  0.14668698324E+03  0.14668698324E+03  0.00000000000E+00 0.  1.
          3   -1    0    0  501    0  0.00000000000E+00 -0.00000000000E+00 -0.10296606030E+02  0.10296606030E+02  0.00000000000E+00 0. -1.
         23    2    1    2    0    0  0.00000000000E+00  0.00000000000E+00  0.13639037721E+03  0.15698358927E+03  0.77727165806E+02 0.  0.
        -11    1    3    3    0    0  0.65857359464E+01  0.34842058017E+02  0.36067937536E+02  0.50579017813E+02  0.00000000000E+00 0. -1.
         11    1    3    3    0    0 -0.65857359464E+01 -0.34842058017E+02  0.10032243967E+03  0.10640457145E+03  0.00000000000E+00 0.  1.
<mgrwt>
<rscale>  0 0.77727166E+02</rscale>
<asrwt>0</asrwt>
<pdfrwt beam="2">  1        3 0.15840933E-02 0.77727166E+02</pdfrwt>
<pdfrwt beam="1">  1       -3 0.22567227E-01 0.77727166E+02</pdfrwt>
<totfact> 0.47360742E+04</totfact>
</mgrwt>
</event>
<event>
 5    1  0.1247456E+001  0.8856022E+02  0.7546771E-02  0.1306376E+00
         -1   -1    0    0    0  501 -0.00000000000E+00  0.00000000000E+00  0.15620789385E+02  0.15620789385E+02  0.00000000000E+00 0.  1.
          1   -1    0    0  501    0  0.00000000000E+00 -0.00000000000E+00 -0.12552043843E+03  0.12552043843E+03  0.00000000000E+00 0. -1.
         23    2    1    2    0    0  0.00000000000E+00  0.00000000000E+00 -0.10989964904E+03  0.14114122781E+03  0.88560224303E+02 0.  0.
        -13    1    3    3    0    0  0.35177593736E+02  0.25177020595E+02 -0.70017363336E+02  0.82302956421E+02  0.00000000000E+00 0. -1.
         13    1    3    3    0    0 -0.35177593736E+02 -0.25177020595E+02 -0.39882285704E+02  0.58838271389E+02  0.00000000000E+00 0.  1.
<mgrwt>
<rscale>  0 0.88560224E+02</rscale>
<asrwt>0</asrwt>
<pdfrwt beam="2">  1        1 0.19310837E-01 0.88560224E+02</pdfrwt>
<pdfrwt beam="1">  1       -1 0.24031983E-02 0.88560224E+02</pdfrwt>
<totfact> 0.11748007E+05</totfact>
</mgrwt>
</event>
<event>
 5    1  0.1247456E+001  0.9222346E+02  0.7546771E-02  0.1297555E+00
          2   -1    0    0  501    0  0.00000000000E+00  0.00000000000E+00  0.16647922090E+03  0.16647922090E+03  0.00000000000E+00 0. -1.
         -2   -1    0    0    0  501 -0.00000000000E+00 -0.00000000000E+00 -0.12772114575E+02  0.12772114575E+02  0.00000000000E+00 0.  1.
         23    2    1    2    0    0  0.00000000000E+00  0.00000000000E+00  0.15370710632E+03  0.17925133547E+03  0.92223460868E+02 0.  0.
        -13    1    3    3    0    0  0.42409600122E+02 -0.17949733219E+02  0.72285085467E+02  0.85708229978E+02  0.00000000000E+00 0.  1.
         13    1    3    3    0    0 -0.42409600122E+02  0.17949733219E+02  0.81422020854E+02  0.93543105492E+02  0.00000000000E+00 0. -1.
<mgrwt>
<rscale>  0 0.92223461E+02</rscale>
<asrwt>0</asrwt>
<pdfrwt beam="1">  1        2 0.25612186E-01 0.92223461E+02</pdfrwt>
<pdfrwt beam="2">  1       -2 0.19649408E-02 0.92223461E+02</pdfrwt>
<totfact> 0.14050324E+05</totfact>
</mgrwt>
</event>
<event>
 5    1  0.1247456E+001  0.9119614E+02  0.7546771E-02  0.1299981E+00
         -4   -1    0    0    0  501 -0.00000000000E+00  0.00000000000E+00  0.11032982368E+02  0.11032982368E+02  0.00000000000E+00 0.  1.
          4   -1    0    0  501    0  0.00000000000E+00 -0.00000000000E+00 -0.18845166351E+03  0.18845166351E+03  0.00000000000E+00 0. -1.
         23    2    1    2    0    0  0.00000000000E+00  0.00000000000E+00 -0.17741868114E+03  0.19948464588E+03  0.91196137652E+02 0.  0.
        -13    1    3    3    0    0 -0.12212909138E+02  0.33056247716E+02 -0.25413233204E+02  0.43447705170E+02  0.00000000000E+00 0.  1.
         13    1    3    3    0    0  0.12212909138E+02 -0.33056247716E+02 -0.15200544794E+03  0.15603694071E+03  0.00000000000E+00 0. -1.
<mgrwt>
<rscale>  0 0.91196138E+02</rscale>
<asrwt>0</asrwt>
<pdfrwt beam="2">  1        4 0.28992564E-01 0.91196138E+02</pdfrwt>
<pdfrwt beam="1">  1       -4 0.16973819E-02 0.91196138E+02</pdfrwt>
<totfact> 0.21395585E+04</totfact>
</mgrwt>
</event>
<event>
 5    1  0.1247456E+001  0.9049563E+02  0.7546771E-02  0.1301656E+00
          2   -1    0    0  501    0  0.00000000000E+00  0.00000000000E+00  0.15448837284E+03  0.15448837284E+03  0.00000000000E+00 0. -1.
         -2   -1    0    0    0  501 -0.00000000000E+00 -0.00000000000E+00 -0.13252548095E+02  0.13252548095E+02  0.00000000000E+00 0.  1.
         23    2    1    2    0    0  0.00000000000E+00  0.00000000000E+00  0.14123582474E+03  0.16774092093E+03  0.90495626218E+02 0.  0.
        -13    1    3    3    0    0  0.38806582909E+02  0.79756555567E+01  0.11113476507E+03  0.11798515994E+03  0.00000000000E+00 0. -1.
         13    1    3    3    0    0 -0.38806582909E+02 -0.79756555567E+01  0.30101059672E+02  0.49755760993E+02  0.00000000000E+00 0.  1.
<mgrwt>
<rscale>  0 0.90495626E+02</rscale>
<asrwt>0</asrwt>
<pdfrwt beam="1">  1        2 0.23767441E-01 0.90495626E+02</pdfrwt>
<pdfrwt beam="2">  1       -2 0.20388537E-02 0.90495626E+02</pdfrwt>
<totfact> 0.14412232E+05</totfact>
</mgrwt>
</event>
<event>
 5    1  0.1247456E+001  0.9257125E+02  0.7546771E-02  0.1296742E+00
          2   -1    0    0  501    0  0.00000000000E+00  0.00000000000E+00  0.16383168961E+03  0.16383168961E+03  0.00000000000E+00 0. -1.
         -2   -1    0    0    0  501 -0.00000000000E+00 -0.00000000000E+00 -0.13076584689E+02  0.13076584689E+02  0.00000000000E+00 0.  1.
         23    2    1    2    0    0  0.00000000000E+00  0.00000000000E+00  0.15075510492E+03  0.17690827430E+03  0.92571247457E+02 0.  0.
        -13    1    3    3    0    0  0.26241066265E+02  0.34778082914E+02  0.10524441690E+03  0.11390564472E+03  0.00000000000E+00 0. -1.
         13    1    3    3    0    0 -0.26241066265E+02 -0.34778082914E+02  0.45510688014E+02  0.63002629575E+02  0.00000000000E+00 0.  1.
<mgrwt>
<rscale>  0 0.92571247E+02</rscale>
<asrwt>0</asrwt>
<pdfrwt beam="1">  1        2 0.25204874E-01 0.92571247E+02</pdfrwt>
<pdfrwt beam="2">  1       -2 0.20117824E-02 0.92571247E+02</pdfrwt>
<totfact> 0.13830093E+05</totfact>
</mgrwt>
</event>
<event>
 5    1  0.1247456E+001  0.8977003E+02  0.7546771E-02  0.1303410E+00
          2   -1    0    0  501    0  0.00000000000E+00  0.00000000000E+00  0.79077821496E+02  0.79077821496E+02  0.00000000000E+00 0.  1.
         -2   -1    0    0    0  501 -0.00000000000E+00 -0.00000000000E+00 -0.25476988627E+02  0.25476988627E+02  0.00000000000E+00 0. -1.
         23    2    1    2    0    0  0.00000000000E+00  0.00000000000E+00  0.53600832869E+02  0.10455481012E+03  0.89770034174E+02 0.  0.
        -11    1    3    3    0    0  0.19134738907E+02  0.13167625523E+02 -0.17932711918E+02  0.29344620490E+02  0.00000000000E+00 0. -1.
         11    1    3    3    0    0 -0.19134738907E+02 -0.13167625523E+02  0.71533544786E+02  0.75210189633E+02  0.00000000000E+00 0.  1.
<mgrwt>
<rscale>  0 0.89770034E+02</rscale>
<asrwt>0</asrwt>
<pdfrwt beam="1">  1        2 0.12165819E-01 0.89770034E+02</pdfrwt>
<pdfrwt beam="2">  1       -2 0.39195367E-02 0.89770034E+02</pdfrwt>
<totfact> 0.11952409E+05</totfact>
</mgrwt>
</event>
<event>
 5    1  0.1247456E+001  0.8658915E+02  0.7546771E-02  0.1311328E+00
          1   -1    0    0  501    0  0.00000000000E+00  0.00000000000E+00  0.19741424915E+02  0.19741424915E+02  0.00000000000E+00 0. -1.
         -1   -1    0    0    0  501 -0.00000000000E+00 -0.00000000000E+00 -0.94948586900E+02  0.94948586900E+02  0.00000000000E+00 0.  1.
         23    2    1    2    0    0  0.00000000000E+00  0.00000000000E+00 -0.75207161985E+02  0.11469001182E+03  0.86589154034E+02 0.  0.
        -13    1    3    3    0    0  0.42142442116E+02  0.86261013849E+01 -0.44095856340E+02  0.61602269430E+02  0.00000000000E+00 0.  1.
         13    1    3    3    0    0 -0.42142442116E+02 -0.86261013849E+01 -0.31111305644E+02  0.53087742385E+02  0.00000000000E+00 0. -1.
<mgrwt>
<rscale>  0 0.86589154E+02</rscale>
<asrwt>0</asrwt>
<pdfrwt beam="1">  1        1 0.30371423E-02 0.86589154E+02</pdfrwt>
<pdfrwt beam="2">  1       -1 0.14607475E-01 0.86589154E+02</pdfrwt>
<totfact> 0.93793347E+04</totfact>
</mgrwt>
</event>
<event>
 5    1  0.1247456E+001  0.9091348E+02  0.7546771E-02  0.1300655E+00
         -1   -1    0    0    0  501 -0.00000000000E+00  0.00000000000E+00  0.11843877195E+03  0.11843877195E+03  0.00000000000E+00 0.  1.
          1   -1    0    0  501    0  0.00000000000E+00 -0.00000000000E+00 -0.17446272568E+02  0.17446272568E+02  0.00000000000E+00 0. -1.
         23    2    1    2    0    0  0.00000000000E+00  0.00000000000E+00  0.10099249938E+03  0.13588504452E+03  0.90913477506E+02 0.  0.
        -11    1    3    3    0    0  0.35777297799E+02  0.26838997700E+02  0.62636032433E+02  0.76965053071E+02  0.00000000000E+00 0.  1.
         11    1    3    3    0    0 -0.35777297799E+02 -0.26838997700E+02  0.38356466950E+02  0.58919991448E+02  0.00000000000E+00 0. -1.
<mgrwt>
<rscale>  0 0.90913478E+02</rscale>
<asrwt>0</asrwt>
<pdfrwt beam="2">  1        1 0.26840420E-02 0.90913478E+02</pdfrwt>
<pdfrwt beam="1">  1       -1 0.18221349E-01 0.90913478E+02</pdfrwt>
<totfact> 0.79331420E+04</totfact>
</mgrwt>
</event>
<event>
 5    1  0.1247456E+001  0.9067729E+02  0.7546771E-02  0.1301220E+00
         -1   -1    0    0    0  501 -0.00000000000E+00  0.00000000000E+00  0.84303075601E+02  0.84303075601E+02  0.00000000000E+00 0.  1.
          1   -1    0    0  501    0  0.00000000000E+00 -0.00000000000E+00 -0.24383364194E+02  0.24383364194E+02  0.00000000000E+00 0. -1.
         23    2    1    2    0    0  0.00000000000E+00  0.00000000000E+00  0.59919711408E+02  0.10868643980E+03  0.90677287014E+02 0.  0.
        -11    1    3    3    0    0  0.80842119822E+01  0.32799955919E+02  0.66204612669E+02  0.74325246924E+02  0.00000000000E+00 0.  1.
         11    1    3    3    0    0 -0.80842119822E+01 -0.32799955919E+02 -0.62849012613E+01  0.34361192871E+02  0.00000000000E+00 0. -1.
<mgrwt>
<rscale>  0 0.90677287E+02</rscale>
<asrwt>0</asrwt>
<pdfrwt beam="2">  1        1 0.37512868E-02 0.90677287E+02</pdfrwt>
<pdfrwt beam="1">  1       -1 0.12969704E-01 0.90677287E+02</pdfrwt>
<totfact> 0.85086067E+04</totfact>
</mgrwt>
</event>
<event>
 5    1  0.1247456E+001  0.9257553E+02  0.7546771E-02  0.1296732E+00
         -1   -1    0    0    0  501 -0.00000000000E+00  0.00000000000E+00  0.15245136497E+02  0.15245136497E+02  0.00000000000E+00 0.  1.
          1   -1    0    0  501    0  0.00000000000E+00 -0.00000000000E+00 -0.14054035996E+03  0.14054035996E+03  0.00000000000E+00 0. -1.
         23    2    1    2    0    0  0.00000000000E+00  0.00000000000E+00 -0.12529522347E+03  0.15578549646E+03  0.92575525296E+02 0.  0.
        -13    1    3    3    0    0  0.31466006947E+02 -0.33897813437E+02 -0.59551261584E+02  0.75402414453E+02  0.00000000000E+00 0. -1.
         13    1    3    3    0    0 -0.31466006947E+02  0.33897813437E+02 -0.65743961881E+02  0.80383082006E+02  0.00000000000E+00 0.  1.
<mgrwt>
<rscale>  0 0.92575525E+02</rscale>
<asrwt>0</asrwt>
<pdfrwt beam="2">  1        1 0.21621595E-01 0.92575525E+02</pdfrwt>
<pdfrwt beam="1">  1       -1 0.23454055E-02 0.92575525E+02</pdfrwt>
<totfact> 0.10633442E+05</totfact>
</mgrwt>
</event>
<event>
 5    1  0.1247456E+001  0.9004363E+02  0.7546771E-02  0.1302746E+00
         -3   -1    0    0    0  501 -0.00000000000E+00  0.00000000000E+00  0.32323736839E+02  0.32323736839E+02  0.00000000000E+00 0.  1.
          3   -1    0    0  501    0  0.00000000000E+00 -0.00000000000E+00 -0.62708207640E+02  0.62708207640E+02  0.00000000000E+00 0. -1.
         23    2    1    2    0    0  0.00000000000E+00  0.00000000000E+00 -0.30384470801E+02  0.95031944480E+02  0.90043625014E+02 0.  0.
        -13    1    3    3    0    0 -0.16919423806E+02 -0.38741521588E+02 -0.31535291427E+02  0.52741321583E+02  0.00000000000E+00 0.  1.
         13    1    3    3    0    0  0.16919423806E+02  0.38741521588E+02  0.11508206262E+01  0.42290622897E+02  0.00000000000E+00 0. -1.
<mgrwt>
<rscale>  0 0.90043625E+02</rscale>
<asrwt>0</asrwt>
<pdfrwt beam="2">  1        3 0.96474165E-02 0.90043625E+02</pdfrwt>
<pdfrwt beam="1">  1       -3 0.49728826E-02 0.90043625E+02</pdfrwt>
<totfact> 0.36255235E+04</totfact>
</mgrwt>
</event>
<event>
 5    1  0.1247456E+001  0.9058688E+02  0.7546771E-02  0.1301437E+00
         -2   -1    0    0    0  501 -0.00000000000E+00  0.00000000000E+00  0.61742318067E+02  0.61742318067E+02  0.00000000000E+00 0.  1.
          2   -1    0    0  501    0  0.00000000000E+00 -0.00000000000E+00 -0.33226737775E+02  0.33226737775E+02  0.00000000000E+00 0. -1.
         23    2    1    2    0    0  0.00000000000E+00  0.00000000000E+00  0.28515580292E+02  0.94969055841E+02  0.90586882318E+02 0.  0.
        -13    1    3    3    0    0  0.20366568937E+02 -0.73134650390E+01 -0.27456641582E+02  0.34959277283E+02  0.00000000000E+00 0. -1.
         13    1    3    3    0    0 -0.20366568937E+02  0.73134650390E+01  0.55972221874E+02  0.60009778559E+02  0.00000000000E+00 0.  1.
<mgrwt>
<rscale>  0 0.90586882E+02</rscale>
<asrwt>0</asrwt>
<pdfrwt beam="2">  1        2 0.51118058E-02 0.90586882E+02</pdfrwt>
<pdfrwt beam="1">  1       -2 0.94988181E-02 0.90586882E+02</pdfrwt>
<totfact> 0.92640963E+04</totfact>
</mgrwt>
</event>
<event>
 5    1  0.1247456E+001  0.9216341E+02  0.7546771E-02  0.1297696E+00
         -3   -1    0    0    0  501 -0.00000000000E+00  0.00000000000E+00  0.13034413395E+03  0.13034413395E+03  0.00000000000E+00 0.  1.
          3   -1    0    0  501    0  0.00000000000E+00 -0.00000000000E+00 -0.16291671120E+02  0.16291671120E+02  0.00000000000E+00 0. -1.
         23    2    1    2    0    0  0.00000000000E+00  0.00000000000E+00  0.11405246283E+03  0.14663580507E+03  0.92163414925E+02 0.  0.
        -11    1    3    3    0    0  0.33162448424E+02  0.28758248337E+02  0.34709703732E+02  0.55960239153E+02  0.00000000000E+00 0. -1.
         11    1    3    3    0    0 -0.33162448424E+02 -0.28758248337E+02  0.79342759094E+02  0.90675565913E+02  0.00000000000E+00 0.  1.
<mgrwt>
<rscale>  0 0.92163415E+02</rscale>
<asrwt>0</asrwt>
<pdfrwt beam="2">  1        3 0.25064110E-02 0.92163415E+02</pdfrwt>
<pdfrwt beam="1">  1       -3 0.20052943E-01 0.92163415E+02</pdfrwt>
<totfact> 0.30607810E+04</totfact>
</mgrwt>
</event>
<event>
 5    1  0.1247456E+001  0.9125815E+02  0.7546771E-02  0.1299833E+00
         -1   -1    0    0    0  501 -0.00000000000E+00  0.00000000000E+00  0.11805711209E+03  0.11805711209E+03  0.00000000000E+00 0.  1.
          1   -1    0    0  501    0  0.00000000000E+00 -0.00000000000E+00 -0.17635636410E+02  0.17635636410E+02  0.00000000000E+00 0. -1.
         23    2    1    2    0    0  0.00000000000E+00  0.00000000000E+00  0.10042147568E+03  0.13569274850E+03  0.91258146037E+02 0.  0.
        -11    1    3    3    0    0 -0.80944716223E+00  0.22384512482E+02 -0.88982455469E+01  0.24101874981E+02  0.00000000000E+00 0. -1.
         11    1    3    3    0    0  0.80944716223E+00 -0.22384512482E+02  0.10931972123E+03  0.11159087352E+03  0.00000000000E+00 0.  1.
<mgrwt>
<rscale>  0 0.91258146E+02</rscale>
<asrwt>0</asrwt>
<pdfrwt beam="2">  1        1 0.27131749E-02 0.91258146E+02</pdfrwt>
<pdfrwt beam="1">  1       -1 0.18162632E-01 0.91258146E+02</pdfrwt>
<totfact> 0.78610608E+04</totfact>
</mgrwt>
</event>
<event>
 5    1  0.1247456E+001  0.9357121E+02  0.7546771E-02  0.1294427E+00
         -1   -1    0    0    0  501 -0.00000000000E+00  0.00000000000E+00  0.89855631782E+01  0.89855631782E+01  0.00000000000E+00 0.  1.
          1   -1    0    0  501    0  0.00000000000E+00 -0.00000000000E+00 -0.24360109641E+03  0.24360109641E+03  0.00000000000E+00 0. -1.
         23    2    1    2    0    0  0.00000000000E+00  0.00000000000E+00 -0.23461553324E+03  0.25258665959E+03  0.93571214422E+02 0.  0.
        -11    1    3    3    0    0  0.42388735236E+02  0.19791043864E+02 -0.11559465394E+03  0.12470210227E+03  0.00000000000E+00 0. -1.
         11    1    3    3    0    0 -0.42388735236E+02 -0.19791043864E+02 -0.11902087930E+03  0.12788455732E+03  0.00000000000E+00 0.  1.
<mgrwt>
<rscale>  0 0.93571214E+02</rscale>
<asrwt>0</asrwt>
<pdfrwt beam="2">  1        1 0.37477089E-01 0.93571214E+02</pdfrwt>
<pdfrwt beam="1">  1       -1 0.13823944E-02 0.93571214E+02</pdfrwt>
<totfact> 0.11479454E+05</totfact>
</mgrwt>
</event>
<event>
 5    1  0.1247456E+001  0.7971797E+02  0.7546771E-02  0.1329854E+00
         -1   -1    0    0    0  501 -0.00000000000E+00  0.00000000000E+00  0.61092644328E+02  0.61092644328E+02  0.00000000000E+00 0.  1.
          1   -1    0    0  501    0  0.00000000000E+00 -0.00000000000E+00 -0.26005398077E+02  0.26005398077E+02  0.00000000000E+00 0. -1.
         23    2    1    2    0    0  0.00000000000E+00  0.00000000000E+00  0.35087246251E+02  0.87098042404E+02  0.79717966238E+02 0.  0.
        -13    1    3    3    0    0 -0.17081500327E+02  0.34718619290E+02  0.27999214602E+02  0.47761032204E+02  0.00000000000E+00 0.  1.
         13    1    3    3    0    0  0.17081500327E+02 -0.34718619290E+02  0.70880316493E+01  0.39337010200E+02  0.00000000000E+00 0. -1.
<mgrwt>
<rscale>  0 0.79717966E+02</rscale>
<asrwt>0</asrwt>
<pdfrwt beam="2">  1        1 0.40008305E-02 0.79717966E+02</pdfrwt>
<pdfrwt beam="1">  1       -1 0.93988683E-02 0.79717966E+02</pdfrwt>
<totfact> 0.12427469E+05</totfact>
</mgrwt>
</event>
<event>
 5    1  0.1247456E+001  0.8989879E+02  0.7546771E-02  0.1303097E+00
         -4   -1    0    0    0  501 -0.00000000000E+00  0.00000000000E+00  0.46776926739E+02  0.46776926739E+02  0.00000000000E+00 0.  1.
          4   -1    0    0  501    0  0.00000000000E+00 -0.00000000000E+00 -0.43193266092E+02  0.43193266092E+02  0.00000000000E+00 0. -1.
         23    2    1    2    0    0  0.00000000000E+00  0.00000000000E+00  0.35836606471E+01  0.89970192831E+02  0.89898792953E+02 0.  0.
        -13    1    3    3    0    0 -0.13317192740E+02 -0.69180665356E+01 -0.40612105341E+02  0.43296077967E+02  0.00000000000E+00 0. -1.
         13    1    3    3    0    0  0.13317192740E+02  0.69180665356E+01  0.44195765988E+02  0.46674114864E+02  0.00000000000E+00 0.  1.
<mgrwt>
<rscale>  0 0.89898793E+02</rscale>
<asrwt>0</asrwt>
<pdfrwt beam="2">  1        4 0.66451179E-02 0.89898793E+02</pdfrwt>
<pdfrwt beam="1">  1       -4 0.71964502E-02 0.89898793E+02</pdfrwt>
<totfact> 0.28150166E+04</totfact>
</mgrwt>
</event>
<event>
 5    1  0.1247456E+001  0.8974724E+02  0.7546771E-02  0.1303465E+00
          1   -1    0    0  501    0  0.00000000000E+00  0.00000000000E+00  0.11408693791E+03  0.11408693791E+03  0.00000000000E+00 0. -1.
         -1   -1    0    0    0  501 -0.00000000000E+00 -0.00000000000E+00 -0.17650062972E+02  0.17650062972E+02  0.00000000000E+00 0.  1.
         23    2    1    2    0    0  0.00000000000E+00  0.00000000000E+00  0.96436874936E+02  0.13173700088E+03  0.89747237024E+02 0.  0.
        -13    1    3    3    0    0 -0.28048340739E+02 -0.99463993678E+00 -0.31766735297E+01  0.28245176252E+02  0.00000000000E+00 0.  1.
         13    1    3    3    0    0  0.28048340739E+02  0.99463993678E+00  0.99613548466E+02  0.10349182463E+03  0.00000000000E+00 0. -1.
<mgrwt>
<rscale>  0 0.89747237E+02</rscale>
<asrwt>0</asrwt>
<pdfrwt beam="1">  1        1 0.17551836E-01 0.89747237E+02</pdfrwt>
<pdfrwt beam="2">  1       -1 0.27153944E-02 0.89747237E+02</pdfrwt>
<totfact> 0.11147827E+05</totfact>
</mgrwt>
</event>
<event>
 5    1  0.1247456E+001  0.9211616E+02  0.7546771E-02  0.1297807E+00
         -2   -1    0    0    0  501 -0.00000000000E+00  0.00000000000E+00  0.27744420568E+02  0.27744420568E+02  0.00000000000E+00 0.  1.
          2   -1    0    0  501    0  0.00000000000E+00 -0.00000000000E+00 -0.76460300864E+02  0.76460300864E+02  0.00000000000E+00 0. -1.
         23    2    1    2    0    0  0.00000000000E+00  0.00000000000E+00 -0.48715880296E+02  0.10420472143E+03  0.92116160232E+02 0.  0.
        -13    1    3    3    0    0  0.20280589207E+02 -0.28756443542E+02 -0.57974968156E+02  0.67818377129E+02  0.00000000000E+00 0. -1.
         13    1    3    3    0    0 -0.20280589207E+02  0.28756443542E+02  0.92590878598E+01  0.36386344304E+02  0.00000000000E+00 0.  1.
<mgrwt>
<rscale>  0 0.92116160E+02</rscale>
<asrwt>0</asrwt>
<pdfrwt beam="2">  1        2 0.11763123E-01 0.92116160E+02</pdfrwt>
<pdfrwt beam="1">  1       -2 0.42683724E-02 0.92116160E+02</pdfrwt>
<totfact> 0.11019021E+05</totfact>
</mgrwt>
</event>
<event>
 5    1  0.1247456E+001  0.9371885E+02  0.7546771E-02  0.1294088E+00
          4   -1    0    0  501    0  0.00000000000E+00  0.00000000000E+00  0.28413680737E+02  0.28413680737E+02  0.00000000000E+00 0.  1.
         -4   -1    0    0    0  501 -0.00000000000E+00 -0.00000000000E+00 -0.77279879510E+02  0.77279879510E+02  0.00000000000E+00 0. -1.
         23    2    1    2    0    0  0.00000000000E+00  0.00000000000E+00 -0.48866198772E+02  0.10569356025E+03  0.93718852400E+02 0.  0.
        -13    1    3    3    0    0 -0.33380952535E+01 -0.12311159705E+02 -0.75284246328E+02  0.76357221521E+02  0.00000000000E+00 0. -1.
         13    1    3    3    0    0  0.33380952535E+01  0.12311159705E+02  0.26418047556E+02  0.29336338726E+02  0.00000000000E+00 0.  1.
<mgrwt>
<rscale>  0 0.93718852E+02</rscale>
<asrwt>0</asrwt>
<pdfrwt beam="1">  1        4 0.43713355E-02 0.93718852E+02</pdfrwt>
<pdfrwt beam="2">  1       -4 0.11889212E-01 0.93718852E+02</pdfrwt>
<totfact> 0.24230106E+04</totfact>
</mgrwt>
</event>
<event>
 5    1  0.1247456E+001  0.9197153E+02  0.7546771E-02  0.1298146E+00
          2   -1    0    0  501    0  0.00000000000E+00  0.00000000000E+00  0.28252026557E+02  0.28252026557E+02  0.00000000000E+00 0. -1.
         -2   -1    0    0    0  501 -0.00000000000E+00 -0.00000000000E+00 -0.74850940629E+02  0.74850940629E+02  0.00000000000E+00 0.  1.
         23    2    1    2    0    0  0.00000000000E+00  0.00000000000E+00 -0.46598914072E+02  0.10310296719E+03  0.91971533910E+02 0.  0.
        -11    1    3    3    0    0  0.22221155176E+02  0.19376558940E+02 -0.62861856547E+02  0.69432296392E+02  0.00000000000E+00 0.  1.
         11    1    3    3    0    0 -0.22221155176E+02 -0.19376558940E+02  0.16262942475E+02  0.33670670793E+02  0.00000000000E+00 0. -1.
<mgrwt>
<rscale>  0 0.91971534E+02</rscale>
<asrwt>0</asrwt>
<pdfrwt beam="1">  1        2 0.43464656E-02 0.91971534E+02</pdfrwt>
<pdfrwt beam="2">  1       -2 0.11515529E-01 0.91971534E+02</pdfrwt>
<totfact> 0.84820738E+04</totfact>
</mgrwt>
</event>
<event>
 5    1  0.1247456E+001  0.9143219E+02  0.7546771E-02  0.1299420E+00
          1   -1    0    0  501    0  0.00000000000E+00  0.00000000000E+00  0.10830366924E+03  0.10830366924E+03  0.00000000000E+00 0. -1.
         -1   -1    0    0    0  501 -0.00000000000E+00 -0.00000000000E+00 -0.19297233885E+02  0.19297233885E+02  0.00000000000E+00 0.  1.
         23    2    1    2    0    0  0.00000000000E+00  0.00000000000E+00  0.89006435356E+02  0.12760090313E+03  0.91432187679E+02 0.  0.
        -13    1    3    3    0    0 -0.45460014636E+02 -0.26915402343E+01  0.50103635011E+02  0.67706953563E+02  0.00000000000E+00 0. -1.
         13    1    3    3    0    0  0.45460014636E+02  0.26915402343E+01  0.38902800345E+02  0.59893949562E+02  0.00000000000E+00 0.  1.
<mgrwt>
<rscale>  0 0.91432188E+02</rscale>
<asrwt>0</asrwt>
<pdfrwt beam="1">  1        1 0.16662103E-01 0.91432188E+02</pdfrwt>
<pdfrwt beam="2">  1       -1 0.29688053E-02 0.91432188E+02</pdfrwt>
<totfact> 0.10505691E+05</totfact>
</mgrwt>
</event>
<event>
 5    1  0.1247456E+001  0.9981488E+02  0.7546771E-02  0.1280686E+00
          3   -1    0    0  501    0  0.00000000000E+00  0.00000000000E+00  0.36819098156E+02  0.36819098156E+02  0.00000000000E+00 0. -1.
         -3   -1    0    0    0  501 -0.00000000000E+00 -0.00000000000E+00 -0.67648381740E+02  0.67648381740E+02  0.00000000000E+00 0.  1.
         23    2    1    2    0    0  0.00000000000E+00  0.00000000000E+00 -0.30829283584E+02  0.10446747990E+03  0.99814876795E+02 0.  0.
        -13    1    3    3    0    0 -0.15337070890E+02 -0.38674494840E+02 -0.44264147589E+02  0.60747486009E+02  0.00000000000E+00 0.  1.
         13    1    3    3    0    0  0.15337070890E+02  0.38674494840E+02  0.13434864005E+02  0.43719993887E+02  0.00000000000E+00 0. -1.
<mgrwt>
<rscale>  0 0.99814877E+02</rscale>
<asrwt>0</asrwt>
<pdfrwt beam="1">  1        3 0.56644767E-02 0.99814877E+02</pdfrwt>
<pdfrwt beam="2">  1       -3 0.10407443E-01 0.99814877E+02</pdfrwt>
<totfact> 0.26804349E+04</totfact>
</mgrwt>
</event>
<event>
 5    1  0.1247456E+001  0.9220424E+02  0.7546771E-02  0.1297600E+00
         -1   -1    0    0    0  501 -0.00000000000E+00  0.00000000000E+00  0.13498048893E+03  0.13498048893E+03  0.00000000000E+00 0.  1.
          1   -1    0    0  501    0  0.00000000000E+00 -0.00000000000E+00 -0.15746021233E+02  0.15746021233E+02  0.00000000000E+00 0. -1.
         23    2    1    2    0    0  0.00000000000E+00  0.00000000000E+00  0.11923446769E+03  0.15072651016E+03  0.92204243822E+02 0.  0.
        -13    1    3    3    0    0  0.29562288660E+01 -0.45777651529E+02  0.52113081019E+02  0.69426982377E+02  0.00000000000E+00 0.  1.
         13    1    3    3    0    0 -0.29562288660E+01  0.45777651529E+02  0.67121386673E+02  0.81299527782E+02  0.00000000000E+00 0. -1.
<mgrwt>
<rscale>  0 0.92204244E+02</rscale>
<asrwt>0</asrwt>
<pdfrwt beam="2">  1        1 0.24224649E-02 0.92204244E+02</pdfrwt>
<pdfrwt beam="1">  1       -1 0.20766228E-01 0.92204244E+02</pdfrwt>
<totfact> 0.74403349E+04</totfact>
</mgrwt>
</event>
<event>
 5    1  0.1247456E+001  0.8968694E+02  0.7546771E-02  0.1303612E+00
         -1   -1    0    0    0  501 -0.00000000000E+00  0.00000000000E+00  0.20707072499E+02  0.20707072499E+02  0.00000000000E+00 0.  1.
          1   -1    0    0  501    0  0.00000000000E+00 -0.00000000000E+00 -0.97113525011E+02  0.97113525011E+02  0.00000000000E+00 0. -1.
         23    2    1    2    0    0  0.00000000000E+00  0.00000000000E+00 -0.76406452512E+02  0.11782059751E+03  0.89686940031E+02 0.  0.
        -13    1    3    3    0    0 -0.43753834993E+01 -0.38906145137E+02 -0.94786575022E+01  0.40282465890E+02  0.00000000000E+00 0.  1.
         13    1    3    3    0    0  0.43753834993E+01  0.38906145137E+02 -0.66927795009E+02  0.77538131619E+02  0.00000000000E+00 0. -1.
<mgrwt>
<rscale>  0 0.89686940E+02</rscale>
<asrwt>0</asrwt>
<pdfrwt beam="2">  1        1 0.14940542E-01 0.89686940E+02</pdfrwt>
<pdfrwt beam="1">  1       -1 0.31857035E-02 0.89686940E+02</pdfrwt>
<totfact> 0.10871632E+05</totfact>
</mgrwt>
</event>
<event>
 5    1  0.1247456E+001  0.8949392E+02  0.7546771E-02  0.1304082E+00
          2   -1    0    0  501    0  0.00000000000E+00  0.00000000000E+00  0.30710009468E+03  0.30710009468E+03  0.00000000000E+00 0. -1.
         -2   -1    0    0    0  501 -0.00000000000E+00 -0.00000000000E+00 -0.65199935922E+01  0.65199935922E+01  0.00000000000E+00 0.  1.
         23    2    1    2    0    0  0.00000000000E+00  0.00000000000E+00  0.30058010109E+03  0.31362008827E+03  0.89493924922E+02 0.  0.
        -11    1    3    3    0    0 -0.17875116362E+02 -0.39113255807E+02  0.10695410645E+03  0.11527596216E+03  0.00000000000E+00 0.  1.
         11    1    3    3    0    0  0.17875116362E+02  0.39113255807E+02  0.19362599464E+03  0.19834412612E+03  0.00000000000E+00 0. -1.
<mgrwt>
<rscale>  0 0.89493925E+02</rscale>
<asrwt>0</asrwt>
<pdfrwt beam="1">  1        2 0.47246157E-01 0.89493925E+02</pdfrwt>
<pdfrwt beam="2">  1       -2 0.10030762E-02 0.89493925E+02</pdfrwt>
<totfact> 0.19044825E+05</totfact>
</mgrwt>
</event>
<event>
 5    1  0.1247456E+001  0.8444476E+02  0.7546771E-02  0.1316891E+00
         -2   -1    0    0    0  501 -0.00000000000E+00  0.00000000000E+00  0.37151699068E+02  0.37151699068E+02  0.00000000000E+00 0.  1.
          2   -1    0    0  501    0  0.00000000000E+00 -0.00000000000E+00 -0.47985138059E+02  0.47985138059E+02  0.00000000000E+00 0. -1.
         23    2    1    2    0    0  0.00000000000E+00  0.00000000000E+00 -0.10833438991E+02  0.85136837127E+02  0.84444760853E+02 0.  0.
        -11    1    3    3    0    0  0.14927002007E+02  0.28976133431E+02  0.21641599921E+02  0.39125318461E+02  0.00000000000E+00 0.  1.
         11    1    3    3    0    0 -0.14927002007E+02 -0.28976133431E+02 -0.32475038912E+02  0.46011518665E+02  0.00000000000E+00 0. -1.
<mgrwt>
<rscale>  0 0.84444761E+02</rscale>
<asrwt>0</asrwt>
<pdfrwt beam="2">  1        2 0.73823290E-02 0.84444761E+02</pdfrwt>
<pdfrwt beam="1">  1       -2 0.57156460E-02 0.84444761E+02</pdfrwt>
<totfact> 0.12429887E+05</totfact>
</mgrwt>
</event>
<event>
 5    1  0.1247456E+001  0.9159051E+02  0.7546771E-02  0.1299045E+00
         -2   -1    0    0    0  501 -0.00000000000E+00  0.00000000000E+00  0.48073550652E+02  0.48073550652E+02  0.00000000000E+00 0.  1.
          2   -1    0    0  501    0  0.00000000000E+00 -0.00000000000E+00 -0.43624933925E+02  0.43624933925E+02  0.00000000000E+00 0. -1.
         23    2    1    2    0    0  0.00000000000E+00  0.00000000000E+00  0.44486167267E+01  0.91698484577E+02  0.91590511970E+02 0.  0.
        -11    1    3    3    0    0  0.28498881995E+02  0.55264046592E+01  0.37684673627E+02  0.47569549606E+02  0.00000000000E+00 0.  1.
         11    1    3    3    0    0 -0.28498881995E+02 -0.55264046592E+01 -0.33236056900E+02  0.44128934971E+02  0.00000000000E+00 0. -1.
<mgrwt>
<rscale>  0 0.91590512E+02</rscale>
<asrwt>0</asrwt>
<pdfrwt beam="2">  1        2 0.67115283E-02 0.91590512E+02</pdfrwt>
<pdfrwt beam="1">  1       -2 0.73959309E-02 0.91590512E+02</pdfrwt>
<totfact> 0.96289894E+04</totfact>
</mgrwt>
</event>
<event>
 5    1  0.1247456E+001  0.9055348E+02  0.7546771E-02  0.1301517E+00
          1   -1    0    0  501    0  0.00000000000E+00  0.00000000000E+00  0.29251060514E+02  0.29251060514E+02  0.00000000000E+00 0. -1.
         -1   -1    0    0    0  501 -0.00000000000E+00 -0.00000000000E+00 -0.70082348187E+02  0.70082348187E+02  0.00000000000E+00 0.  1.
         23    2    1    2    0    0  0.00000000000E+00  0.00000000000E+00 -0.40831287673E+02  0.99333408701E+02  0.90553476085E+02 0.  0.
        -13    1    3    3    0    0 -0.37240177298E+01  0.14888998514E+02 -0.67141859761E+02  0.68873651834E+02  0.00000000000E+00 0.  1.
         13    1    3    3    0    0  0.37240177298E+01 -0.14888998514E+02  0.26310572088E+02  0.30459756867E+02  0.00000000000E+00 0. -1.
<mgrwt>
<rscale>  0 0.90553476E+02</rscale>
<asrwt>0</asrwt>
<pdfrwt beam="1">  1        1 0.45001632E-02 0.90553476E+02</pdfrwt>
<pdfrwt beam="2">  1       -1 0.10781900E-01 0.90553476E+02</pdfrwt>
<totfact> 0.88048428E+04</totfact>
</mgrwt>
</event>
<event>
 5    1  0.1247456E+001  0.9208727E+02  0.7546771E-02  0.1297874E+00
         -1   -1    0    0    0  501 -0.00000000000E+00  0.00000000000E+00  0.72382417452E+02  0.72382417452E+02  0.00000000000E+00 0.  1.
          1   -1    0    0  501    0  0.00000000000E+00 -0.00000000000E+00 -0.29289106282E+02  0.29289106282E+02  0.00000000000E+00 0. -1.
         23    2    1    2    0    0  0.00000000000E+00  0.00000000000E+00  0.43093311170E+02  0.10167152373E+03  0.92087269863E+02 0.  0.
        -13    1    3    3    0    0 -0.38773237196E+02  0.21472534541E+02  0.77751848168E+01  0.44998746218E+02  0.00000000000E+00 0.  1.
         13    1    3    3    0    0  0.38773237196E+02 -0.21472534541E+02  0.35318126353E+02  0.56672777516E+02  0.00000000000E+00 0. -1.
<mgrwt>
<rscale>  0 0.92087270E+02</rscale>
<asrwt>0</asrwt>
<pdfrwt beam="2">  1        1 0.45060164E-02 0.92087270E+02</pdfrwt>
<pdfrwt beam="1">  1       -1 0.11135756E-01 0.92087270E+02</pdfrwt>
<totfact> 0.83912236E+04</totfact>
</mgrwt>
</event>
<event>
 5    1  0.1247456E+001  0.9169141E+02  0.7546771E-02  0.1298807E+00
          3   -1    0    0  501    0  0.00000000000E+00  0.00000000000E+00  0.16654896090E+02  0.16654896090E+02  0.00000000000E+00 0. -1.
         -3   -1    0    0    0  501 -0.00000000000E+00 -0.00000000000E+00 -0.12619884997E+03  0.12619884997E+03  0.00000000000E+00 0.  1.
         23    2    1    2    0    0  0.00000000000E+00  0.00000000000E+00 -0.10954395388E+03  0.14285374606E+03  0.91691411439E+02 0.  0.
        -11    1    3    3    0    0  0.29522612707E+02  0.11900910027E+02 -0.10617629668E+03  0.11084503731E+03  0.00000000000E+00 0.  1.
         11    1    3    3    0    0 -0.29522612707E+02 -0.11900910027E+02 -0.33676571995E+01  0.32008708746E+02  0.00000000000E+00 0. -1.
<mgrwt>
<rscale>  0 0.91691411E+02</rscale>
<asrwt>0</asrwt>
<pdfrwt beam="1">  1        3 0.25622917E-02 0.91691411E+02</pdfrwt>
<pdfrwt beam="2">  1       -3 0.19415208E-01 0.91691411E+02</pdfrwt>
<totfact> 0.31269863E+04</totfact>
</mgrwt>
</event>
<event>
 5    1  0.1247456E+001  0.9059869E+02  0.7546771E-02  0.1301408E+00
          1   -1    0    0  501    0  0.00000000000E+00  0.00000000000E+00  0.14150126670E+03  0.14150126670E+03  0.00000000000E+00 0. -1.
         -1   -1    0    0    0  501 -0.00000000000E+00 -0.00000000000E+00 -0.14501854848E+02  0.14501854848E+02  0.00000000000E+00 0.  1.
         23    2    1    2    0    0  0.00000000000E+00  0.00000000000E+00  0.12699941185E+03  0.15600312155E+03  0.90598693820E+02 0.  0.
        -13    1    3    3    0    0 -0.24634170559E+02  0.26362880553E+02  0.11066213001E+03  0.11639566508E+03  0.00000000000E+00 0. -1.
         13    1    3    3    0    0  0.24634170559E+02 -0.26362880553E+02  0.16337281842E+02  0.39607456472E+02  0.00000000000E+00 0.  1.
<mgrwt>
<rscale>  0 0.90598694E+02</rscale>
<asrwt>0</asrwt>
<pdfrwt beam="1">  1        1 0.21769425E-01 0.90598694E+02</pdfrwt>
<pdfrwt beam="2">  1       -1 0.22310547E-02 0.90598694E+02</pdfrwt>
<totfact> 0.11286559E+05</totfact>
</mgrwt>
</event>
<event>
 5    1  0.1247456E+001  0.9307325E+02  0.7546771E-02  0.1295576E+00
          1   -1    0    0  501    0  0.00000000000E+00  0.00000000000E+00  0.31395781427E+02  0.31395781427E+02  0.00000000000E+00 0. -1.
         -1   -1    0    0    0  501 -0.00000000000E+00 -0.00000000000E+00 -0.68979247464E+02  0.68979247464E+02  0.00000000000E+00 0.  1.
         23    2    1    2    0    0  0.00000000000E+00  0.00000000000E+00 -0.37583466037E+02  0.10037502889E+03  0.93073248066E+02 0.  0.
        -13    1    3    3    0    0 -0.22030507338E+02 -0.33755786824E+02  0.62891970893E+01  0.40796450798E+02  0.00000000000E+00 0.  1.
         13    1    3    3    0    0  0.22030507338E+02  0.33755786824E+02 -0.43872663126E+02  0.59578578093E+02  0.00000000000E+00 0. -1.
<mgrwt>
<rscale>  0 0.93073248E+02</rscale>
<asrwt>0</asrwt>
<pdfrwt beam="1">  1        1 0.48301202E-02 0.93073248E+02</pdfrwt>
<pdfrwt beam="2">  1       -1 0.10612192E-01 0.93073248E+02</pdfrwt>
<totfact> 0.82306909E+04</totfact>
</mgrwt>
</event>
<event>
 5    1  0.1247456E+001  0.9033281E+02  0.7546771E-02  0.1302048E+00
          2   -1    0    0  501    0  0.00000000000E+00  0.00000000000E+00  0.19350507461E+03  0.19350507461E+03  0.00000000000E+00 0.  1.
         -2   -1    0    0    0  501 -0.00000000000E+00 -0.00000000000E+00 -0.10542380147E+02  0.10542380147E+02  0.00000000000E+00 0. -1.
         23    2    1    2    0    0  0.00000000000E+00  0.00000000000E+00  0.18296269446E+03  0.20404745475E+03  0.90332808144E+02 0.  0.
        -11    1    3    3    0    0 -0.41627086445E+02  0.94147140468E+01  0.12487500159E+03  0.13196672759E+03  0.00000000000E+00 0.  1.
         11    1    3    3    0    0  0.41627086445E+02 -0.94147140468E+01  0.58087692865E+02  0.72080727167E+02  0.00000000000E+00 0. -1.
<mgrwt>
<rscale>  0 0.90332808E+02</rscale>
<asrwt>0</asrwt>
<pdfrwt beam="1">  1        2 0.29770009E-01 0.90332808E+02</pdfrwt>
<pdfrwt beam="2">  1       -2 0.16219048E-02 0.90332808E+02</pdfrwt>
<totfact> 0.15672327E+05</totfact>
</mgrwt>
</event>
<event>
 5    1  0.1247456E+001  0.8757892E+02  0.7546771E-02  0.1308823E+00
          1   -1    0    0  501    0  0.00000000000E+00  0.00000000000E+00  0.13381105877E+03  0.13381105877E+03  0.00000000000E+00 0. -1.
         -1   -1    0    0    0  501 -0.00000000000E+00 -0.00000000000E+00 -0.14330033377E+02  0.14330033377E+02  0.00000000000E+00 0.  1.
         23    2    1    2    0    0  0.00000000000E+00  0.00000000000E+00  0.11948102539E+03  0.14814109215E+03  0.87578922998E+02 0.  0.
        -13    1    3    3    0    0 -0.41629024790E+02  0.80937524955E+01  0.41285746638E+02  0.59186125147E+02  0.00000000000E+00 0.  1.
         13    1    3    3    0    0  0.41629024790E+02 -0.80937524955E+01  0.78195278756E+02  0.88954967001E+02  0.00000000000E+00 0. -1.
<mgrwt>
<rscale>  0 0.87578923E+02</rscale>
<asrwt>0</asrwt>
<pdfrwt beam="1">  1        1 0.20586316E-01 0.87578923E+02</pdfrwt>
<pdfrwt beam="2">  1       -1 0.22046206E-02 0.87578923E+02</pdfrwt>
<totfact> 0.12242627E+05</totfact>
</mgrwt>
</event>
<event>
 5    1  0.1247456E+001  0.8925661E+02  0.7546771E-02  0.1304662E+00
         -3   -1    0    0    0  501 -0.00000000000E+00  0.00000000000E+00  0.51044193808E+02  0.51044193808E+02  0.00000000000E+00 0.  1.
          3   -1    0    0  501    0  0.00000000000E+00 -0.00000000000E+00 -0.39018847857E+02  0.39018847857E+02  0.00000000000E+00 0. -1.
         23    2    1    2    0    0  0.00000000000E+00  0.00000000000E+00  0.12025345950E+02  0.90063041665E+02  0.89256610560E+02 0.  0.
        -11    1    3    3    0    0 -0.14636808437E+02  0.16965479880E+02  0.44957004425E+02  0.50231423588E+02  0.00000000000E+00 0.  1.
         11    1    3    3    0    0  0.14636808437E+02 -0.16965479880E+02 -0.32931658475E+02  0.39831618077E+02  0.00000000000E+00 0. -1.
<mgrwt>
<rscale>  0 0.89256611E+02</rscale>
<asrwt>0</asrwt>
<pdfrwt beam="2">  1        3 0.60028996E-02 0.89256611E+02</pdfrwt>
<pdfrwt beam="1">  1       -3 0.78529530E-02 0.89256611E+02</pdfrwt>
<totfact> 0.37534825E+04</totfact>
</mgrwt>
</event>
<event>
 5    1  0.1247456E+001  0.8314930E+02  0.7546771E-02  0.1320345E+00
         -1   -1    0    0    0  501 -0.00000000000E+00  0.00000000000E+00  0.15929660568E+03  0.15929660568E+03  0.00000000000E+00 0.  1.
          1   -1    0    0  501    0  0.00000000000E+00 -0.00000000000E+00 -0.10850522465E+02  0.10850522465E+02  0.00000000000E+00 0. -1.
         23    2    1    2    0    0  0.00000000000E+00  0.00000000000E+00  0.14844608321E+03  0.17014712814E+03  0.83149297013E+02 0.  0.
        -11    1    3    3    0    0  0.15108129561E+02  0.38485776161E+02  0.65293909677E+02  0.77283278829E+02  0.00000000000E+00 0.  1.
         11    1    3    3    0    0 -0.15108129561E+02 -0.38485776161E+02  0.83152173536E+02  0.92863849314E+02  0.00000000000E+00 0. -1.
<mgrwt>
<rscale>  0 0.83149297E+02</rscale>
<asrwt>0</asrwt>
<pdfrwt beam="2">  1        1 0.16693113E-02 0.83149297E+02</pdfrwt>
<pdfrwt beam="1">  1       -1 0.24507168E-01 0.83149297E+02</pdfrwt>
<totfact> 0.93594232E+04</totfact>
</mgrwt>
</event>
<event>
 5    1  0.1247456E+001  0.8998676E+02  0.7546771E-02  0.1302884E+00
         -2   -1    0    0    0  501 -0.00000000000E+00  0.00000000000E+00  0.28544400151E+02  0.28544400151E+02  0.00000000000E+00 0.  1.
          2   -1    0    0  501    0  0.00000000000E+00 -0.00000000000E+00 -0.70921231920E+02  0.70921231920E+02  0.00000000000E+00 0. -1.
         23    2    1    2    0    0  0.00000000000E+00  0.00000000000E+00 -0.42376831769E+02  0.99465632071E+02  0.89986755095E+02 0.  0.
        -13    1    3    3    0    0 -0.17085668833E+02 -0.17423557869E+02 -0.62971059693E+02  0.67534101069E+02  0.00000000000E+00 0. -1.
         13    1    3    3    0    0  0.17085668833E+02  0.17423557869E+02  0.20594227925E+02  0.31931531002E+02  0.00000000000E+00 0.  1.
<mgrwt>
<rscale>  0 0.89986755E+02</rscale>
<asrwt>0</asrwt>
<pdfrwt beam="2">  1        2 0.10910959E-01 0.89986755E+02</pdfrwt>
<pdfrwt beam="1">  1       -2 0.43914462E-02 0.89986755E+02</pdfrwt>
<totfact> 0.11516770E+05</totfact>
</mgrwt>
</event>
<event>
 5    1  0.1247456E+001  0.8587717E+02  0.7546771E-02  0.1313154E+00
          1   -1    0    0  501    0  0.00000000000E+00  0.00000000000E+00  0.37655693448E+02  0.37655693448E+02  0.00000000000E+00 0. -1.
         -1   -1    0    0    0  501 -0.00000000000E+00 -0.00000000000E+00 -0.48962634945E+02  0.48962634945E+02  0.00000000000E+00 0.  1.
         23    2    1    2    0    0  0.00000000000E+00  0.00000000000E+00 -0.11306941497E+02  0.86618328394E+02  0.85877167441E+02 0.  0.
        -13    1    3    3    0    0  0.31060521119E+02 -0.17361188573E+02 -0.29893258359E+02  0.46473365879E+02  0.00000000000E+00 0. -1.
         13    1    3    3    0    0 -0.31060521119E+02  0.17361188573E+02  0.18586316861E+02  0.40144962515E+02  0.00000000000E+00 0.  1.
<mgrwt>
<rscale>  0 0.85877167E+02</rscale>
<asrwt>0</asrwt>
<pdfrwt beam="1">  1        1 0.57931836E-02 0.85877167E+02</pdfrwt>
<pdfrwt beam="2">  1       -1 0.75327131E-02 0.85877167E+02</pdfrwt>
<totfact> 0.10633614E+05</totfact>
</mgrwt>
</event>
<event>
 5    1  0.1247456E+001  0.7902187E+02  0.7546771E-02  0.1331850E+00
         -1   -1    0    0    0  501 -0.00000000000E+00  0.00000000000E+00  0.75699438473E+01  0.75699438473E+01  0.00000000000E+00 0.  1.
          1   -1    0    0  501    0  0.00000000000E+00 -0.00000000000E+00 -0.20622530888E+03  0.20622530888E+03  0.00000000000E+00 0. -1.
         23    2    1    2    0    0  0.00000000000E+00  0.00000000000E+00 -0.19865536503E+03  0.21379525273E+03  0.79021870596E+02 0.  0.
        -11    1    3    3    0    0  0.23054856469E+02 -0.26874959911E+02 -0.51898123936E+02  0.62826786844E+02  0.00000000000E+00 0.  1.
         11    1    3    3    0    0 -0.23054856469E+02  0.26874959911E+02 -0.14675724110E+03  0.15096846588E+03  0.00000000000E+00 0. -1.
<mgrwt>
<rscale>  0 0.79021871E+02</rscale>
<asrwt>0</asrwt>
<pdfrwt beam="2">  1        1 0.31726969E-01 0.79021871E+02</pdfrwt>
<pdfrwt beam="1">  1       -1 0.11646068E-02 0.79021871E+02</pdfrwt>
<totfact> 0.17423701E+05</totfact>
</mgrwt>
</event>
<event>
 5    1  0.1247456E+001  0.9151842E+02  0.7546771E-02  0.1299216E+00
         -1   -1    0    0    0  501 -0.00000000000E+00  0.00000000000E+00  0.89072929486E+01  0.89072929486E+01  0.00000000000E+00 0.  1.
          1   -1    0    0  501    0  0.00000000000E+00 -0.00000000000E+00 -0.23507761393E+03  0.23507761393E+03  0.00000000000E+00 0. -1.
         23    2    1    2    0    0  0.00000000000E+00  0.00000000000E+00 -0.22617032098E+03  0.24398490688E+03  0.91518417226E+02 0.  0.
        -11    1    3    3    0    0  0.31265770512E+02  0.21924682465E+02 -0.18030053660E+03  0.18430009117E+03  0.00000000000E+00 0. -1.
         11    1    3    3    0    0 -0.31265770512E+02 -0.21924682465E+02 -0.45869784377E+02  0.59684815704E+02  0.00000000000E+00 0.  1.
<mgrwt>
<rscale>  0 0.91518417E+02</rscale>
<asrwt>0</asrwt>
<pdfrwt beam="2">  1        1 0.36165783E-01 0.91518417E+02</pdfrwt>
<pdfrwt beam="1">  1       -1 0.13703529E-02 0.91518417E+02</pdfrwt>
<totfact> 0.12097780E+05</totfact>
</mgrwt>
</event>
<event>
 5    1  0.1247456E+001  0.9874002E+02  0.7546771E-02  0.1282968E+00
         -1   -1    0    0    0  501 -0.00000000000E+00  0.00000000000E+00  0.60170226459E+02  0.60170226459E+02  0.00000000000E+00 0. -1.
          1   -1    0    0  501    0  0.00000000000E+00 -0.00000000000E+00 -0.40508372495E+02  0.40508372495E+02  0.00000000000E+00 0.  1.
         23    2    1    2    0    0  0.00000000000E+00  0.00000000000E+00  0.19661853964E+02  0.10067859895E+03  0.98740021197E+02 0.  0.
        -13    1    3    3    0    0 -0.10988933561E+01  0.19155484392E+02  0.56213116636E+02  0.59397429496E+02  0.00000000000E+00 0. -1.
         13    1    3    3    0    0  0.10988933561E+01 -0.19155484392E+02 -0.36551262671E+02  0.41281169457E+02  0.00000000000E+00 0.  1.
<mgrwt>
<rscale>  0 0.98740021E+02</rscale>
<asrwt>0</asrwt>
<pdfrwt beam="2">  1        1 0.62320573E-02 0.98740021E+02</pdfrwt>
<pdfrwt beam="1">  1       -1 0.92569579E-02 0.98740021E+02</pdfrwt>
<totfact> 0.72412112E+04</totfact>
</mgrwt>
</event>
<event>
 5    1  0.1247456E+001  0.9158436E+02  0.7546771E-02  0.1299060E+00
          2   -1    0    0  501    0  0.00000000000E+00  0.00000000000E+00  0.27410902188E+02  0.27410902188E+02  0.00000000000E+00 0. -1.
         -2   -1    0    0    0  501 -0.00000000000E+00 -0.00000000000E+00 -0.76499618504E+02  0.76499618504E+02  0.00000000000E+00 0.  1.
         23    2    1    2    0    0  0.00000000000E+00  0.00000000000E+00 -0.49088716316E+02  0.10391052069E+03  0.91584355873E+02 0.  0.
        -11    1    3    3    0    0 -0.12430163812E+02 -0.23698056573E+02  0.17616189299E+02  0.32038055234E+02  0.00000000000E+00 0. -1.
         11    1    3    3    0    0  0.12430163812E+02  0.23698056573E+02 -0.66704905615E+02  0.71872465457E+02  0.00000000000E+00 0.  1.
<mgrwt>
<rscale>  0 0.91584356E+02</rscale>
<asrwt>0</asrwt>
<pdfrwt beam="1">  1        2 0.42170619E-02 0.91584356E+02</pdfrwt>
<pdfrwt beam="2">  1       -2 0.11769172E-01 0.91584356E+02</pdfrwt>
<totfact> 0.85193451E+04</totfact>
</mgrwt>
</event>
<event>
 5    1  0.1247456E+001  0.9417091E+02  0.7546771E-02  0.1293054E+00
         -2   -1    0    0    0  501 -0.00000000000E+00  0.00000000000E+00  0.19560006922E+02  0.19560006922E+02  0.00000000000E+00 0.  1.
          2   -1    0    0  501    0  0.00000000000E+00 -0.00000000000E+00 -0.11334555496E+03  0.11334555496E+03  0.00000000000E+00 0. -1.
         23    2    1    2    0    0  0.00000000000E+00  0.00000000000E+00 -0.93785548040E+02  0.13290556188E+03  0.94170905053E+02 0.  0.
        -11    1    3    3    0    0  0.10088498441E+02 -0.21227298955E+02  0.10689615306E+02  0.25819448041E+02  0.00000000000E+00 0.  1.
         11    1    3    3    0    0 -0.10088498441E+02  0.21227298955E+02 -0.10447516335E+03  0.10708611384E+03  0.00000000000E+00 0. -1.
<mgrwt>
<rscale>  0 0.94170905E+02</rscale>
<asrwt>0</asrwt>
<pdfrwt beam="2">  1        2 0.17437778E-01 0.94170905E+02</pdfrwt>
<pdfrwt beam="1">  1       -2 0.30092318E-02 0.94170905E+02</pdfrwt>
<totfact> 0.11669532E+05</totfact>
</mgrwt>
</event>
<event>
 5    1  0.1247456E+001  0.9125329E+02  0.7546771E-02  0.1299845E+00
          3   -1    0    0  501    0  0.00000000000E+00  0.00000000000E+00  0.29783019602E+03  0.29783019602E+03  0.00000000000E+00 0. -1.
         -3   -1    0    0    0  501 -0.00000000000E+00 -0.00000000000E+00 -0.69898583308E+01  0.69898583308E+01  0.00000000000E+00 0.  1.
         23    2    1    2    0    0  0.00000000000E+00  0.00000000000E+00  0.29084033769E+03  0.30482005435E+03  0.91253293131E+02 0.  0.
        -13    1    3    3    0    0  0.40281147591E+02 -0.99688656425E+01  0.20878536171E+03  0.21286915324E+03  0.00000000000E+00 0. -1.
         13    1    3    3    0    0 -0.40281147591E+02  0.99688656425E+01  0.82054975974E+02  0.91950901114E+02  0.00000000000E+00 0.  1.
<mgrwt>
<rscale>  0 0.91253293E+02</rscale>
<asrwt>0</asrwt>
<pdfrwt beam="1">  1        3 0.45820020E-01 0.91253293E+02</pdfrwt>
<pdfrwt beam="2">  1       -3 0.10753631E-02 0.91253293E+02</pdfrwt>
<totfact> 0.23792295E+04</totfact>
</mgrwt>
</event>
<event>
 5    1  0.1247456E+001  0.8968257E+02  0.7546771E-02  0.1303622E+00
         -2   -1    0    0    0  501 -0.00000000000E+00  0.00000000000E+00  0.18786227182E+03  0.18786227182E+03  0.00000000000E+00 0.  1.
          2   -1    0    0  501    0  0.00000000000E+00 -0.00000000000E+00 -0.10703271746E+02  0.10703271746E+02  0.00000000000E+00 0. -1.
         23    2    1    2    0    0  0.00000000000E+00  0.00000000000E+00  0.17715900007E+03  0.19856554356E+03  0.89682572357E+02 0.  0.
        -11    1    3    3    0    0  0.18466678498E+02  0.40718946676E+02  0.96149662269E+02  0.10603682562E+03  0.00000000000E+00 0.  1.
         11    1    3    3    0    0 -0.18466678498E+02 -0.40718946676E+02  0.81009337803E+02  0.92528717945E+02  0.00000000000E+00 0. -1.
<mgrwt>
<rscale>  0 0.89682572E+02</rscale>
<asrwt>0</asrwt>
<pdfrwt beam="2">  1        2 0.16466573E-02 0.89682572E+02</pdfrwt>
<pdfrwt beam="1">  1       -2 0.28901886E-01 0.89682572E+02</pdfrwt>
<totfact> 0.66749468E+04</totfact>
</mgrwt>
</event>
<event>
 5    1  0.1247456E+001  0.9074423E+02  0.7546771E-02  0.1301059E+00
         -1   -1    0    0    0  501 -0.00000000000E+00  0.00000000000E+00  0.13730313268E+02  0.13730313268E+02  0.00000000000E+00 0.  1.
          1   -1    0    0  501    0  0.00000000000E+00 -0.00000000000E+00 -0.14993313018E+03  0.14993313018E+03  0.00000000000E+00 0. -1.
         23    2    1    2    0    0  0.00000000000E+00  0.00000000000E+00 -0.13620281691E+03  0.16366344345E+03  0.90744230594E+02 0.  0.
        -13    1    3    3    0    0 -0.38576789965E+02 -0.32415600856E+01 -0.25422999454E+02  0.46314202325E+02  0.00000000000E+00 0.  1.
         13    1    3    3    0    0  0.38576789965E+02  0.32415600856E+01 -0.11077981746E+03  0.11734924112E+03  0.00000000000E+00 0. -1.
<mgrwt>
<rscale>  0 0.90744231E+02</rscale>
<asrwt>0</asrwt>
<pdfrwt beam="2">  1        1 0.23066637E-01 0.90744231E+02</pdfrwt>
<pdfrwt beam="1">  1       -1 0.21123557E-02 0.90744231E+02</pdfrwt>
<totfact> 0.11357059E+05</totfact>
</mgrwt>
</event>
<event>
 5    1  0.1247456E+001  0.8971224E+02  0.7546771E-02  0.1303550E+00
          2   -1    0    0  501    0  0.00000000000E+00  0.00000000000E+00  0.37284963509E+02  0.37284963509E+02  0.00000000000E+00 0. -1.
         -2   -1    0    0    0  501 -0.00000000000E+00 -0.00000000000E+00 -0.53964688432E+02  0.53964688432E+02  0.00000000000E+00 0.  1.
         23    2    1    2    0    0  0.00000000000E+00  0.00000000000E+00 -0.16679724923E+02  0.91249651941E+02  0.89712238607E+02 0.  0.
        -13    1    3    3    0    0 -0.77673902160E+01  0.13289606548E+02  0.34514402208E+02  0.37791400513E+02  0.00000000000E+00 0. -1.
         13    1    3    3    0    0  0.77673902160E+01 -0.13289606548E+02 -0.51194127132E+02  0.53458251428E+02  0.00000000000E+00 0.  1.
<mgrwt>
<rscale>  0 0.89712239E+02</rscale>
<asrwt>0</asrwt>
<pdfrwt beam="1">  1        2 0.57361483E-02 0.89712239E+02</pdfrwt>
<pdfrwt beam="2">  1       -2 0.83022597E-02 0.89712239E+02</pdfrwt>
<totfact> 0.98178201E+04</totfact>
</mgrwt>
</event>
<event>
 5    1  0.1247456E+001  0.9519448E+02  0.7546771E-02  0.1290739E+00
          1   -1    0    0  501    0  0.00000000000E+00  0.00000000000E+00  0.11104733469E+02  0.11104733469E+02  0.00000000000E+00 0. -1.
         -1   -1    0    0    0  501 -0.00000000000E+00 -0.00000000000E+00 -0.20401183964E+03  0.20401183964E+03  0.00000000000E+00 0.  1.
         23    2    1    2    0    0  0.00000000000E+00  0.00000000000E+00 -0.19290710617E+03  0.21511657311E+03  0.95194476806E+02 0.  0.
        -13    1    3    3    0    0 -0.37150956539E+02 -0.78101970106E+01 -0.16133281738E+03  0.16573916469E+03  0.00000000000E+00 0.  1.
         13    1    3    3    0    0  0.37150956539E+02  0.78101970106E+01 -0.31574288788E+02  0.49377408413E+02  0.00000000000E+00 0. -1.
<mgrwt>
<rscale>  0 0.95194477E+02</rscale>
<asrwt>0</asrwt>
<pdfrwt beam="1">  1        1 0.17084207E-02 0.95194477E+02</pdfrwt>
<pdfrwt beam="2">  1       -1 0.31386434E-01 0.95194477E+02</pdfrwt>
<totfact> 0.61677675E+04</totfact>
</mgrwt>
</event>
<event>
 5    1  0.1247456E+001  0.9152954E+02  0.7546771E-02  0.1299189E+00
          2   -1    0    0  501    0  0.00000000000E+00  0.00000000000E+00  0.20351162282E+02  0.20351162282E+02  0.00000000000E+00 0. -1.
         -2   -1    0    0    0  501 -0.00000000000E+00 -0.00000000000E+00 -0.10291372912E+03  0.10291372912E+03  0.00000000000E+00 0.  1.
         23    2    1    2    0    0  0.00000000000E+00  0.00000000000E+00 -0.82562566833E+02  0.12326489140E+03  0.91529536267E+02 0.  0.
        -11    1    3    3    0    0  0.25814786170E+02 -0.16290612546E+02 -0.87200904195E+02  0.92389311798E+02  0.00000000000E+00 0.  1.
         11    1    3    3    0    0 -0.25814786170E+02  0.16290612546E+02  0.46383373621E+01  0.30875579600E+02  0.00000000000E+00 0. -1.
<mgrwt>
<rscale>  0 0.91529536E+02</rscale>
<asrwt>0</asrwt>
<pdfrwt beam="1">  1        2 0.31309480E-02 0.91529536E+02</pdfrwt>
<pdfrwt beam="2">  1       -2 0.15832881E-01 0.91529536E+02</pdfrwt>
<totfact> 0.78363010E+04</totfact>
</mgrwt>
</event>
<event>
 5    1  0.1247456E+001  0.9157704E+02  0.7546771E-02  0.1299077E+00
          1   -1    0    0  501    0  0.00000000000E+00  0.00000000000E+00  0.34173188790E+03  0.34173188790E+03  0.00000000000E+00 0. -1.
         -1   -1    0    0    0  501 -0.00000000000E+00 -0.00000000000E+00 -0.61351860411E+01  0.61351860411E+01  0.00000000000E+00 0.  1.
         23    2    1    2    0    0  0.00000000000E+00  0.00000000000E+00  0.33559670186E+03  0.34786707394E+03  0.91577043159E+02 0.  0.
        -11    1    3    3    0    0 -0.38434372859E+02 -0.13734029190E+02  0.24663832543E+03  0.24999257618E+03  0.00000000000E+00 0. -1.
         11    1    3    3    0    0  0.38434372859E+02  0.13734029190E+02  0.88958376427E+02  0.97874497758E+02  0.00000000000E+00 0.  1.
<mgrwt>
<rscale>  0 0.91577043E+02</rscale>
<asrwt>0</asrwt>
<pdfrwt beam="1">  1        1 0.52574122E-01 0.91577043E+02</pdfrwt>
<pdfrwt beam="2">  1       -1 0.94387504E-03 0.91577043E+02</pdfrwt>
<totfact> 0.12974566E+05</totfact>
</mgrwt>
</event>
<event>
 5    1  0.1247456E+001  0.9111566E+02  0.7546771E-02  0.1300172E+00
          1   -1    0    0  501    0  0.00000000000E+00  0.00000000000E+00  0.17886110435E+03  0.17886110435E+03  0.00000000000E+00 0. -1.
         -1   -1    0    0    0  501 -0.00000000000E+00 -0.00000000000E+00 -0.11604065763E+02  0.11604065763E+02  0.00000000000E+00 0.  1.
         23    2    1    2    0    0  0.00000000000E+00  0.00000000000E+00  0.16725703858E+03  0.19046517011E+03  0.91115663136E+02 0.  0.
        -13    1    3    3    0    0  0.24073726173E+02 -0.25829635018E+02  0.23449121147E+02  0.42386030949E+02  0.00000000000E+00 0.  1.
         13    1    3    3    0    0 -0.24073726173E+02  0.25829635018E+02  0.14380791744E+03  0.14807913916E+03  0.00000000000E+00 0. -1.
<mgrwt>
<rscale>  0 0.91115663E+02</rscale>
<asrwt>0</asrwt>
<pdfrwt beam="1">  1        1 0.27517091E-01 0.91115663E+02</pdfrwt>
<pdfrwt beam="2">  1       -1 0.17852410E-02 0.91115663E+02</pdfrwt>
<totfact> 0.11609484E+05</totfact>
</mgrwt>
</event>
<event>
 5    1  0.1247456E+001  0.9220831E+02  0.7546771E-02  0.1297590E+00
          3   -1    0    0  501    0  0.00000000000E+00  0.00000000000E+00  0.11104062525E+03  0.11104062525E+03  0.00000000000E+00 0. -1.
         -3   -1    0    0    0  501 -0.00000000000E+00 -0.00000000000E+00 -0.19142481789E+02  0.19142481789E+02  0.00000000000E+00 0.  1.
         23    2    1    2    0    0  0.00000000000E+00  0.00000000000E+00  0.91898143463E+02  0.13018310704E+03  0.92208310835E+02 0.  0.
        -11    1    3    3    0    0  0.40084923384E+02 -0.22381963142E+02  0.39985870908E+02  0.60882043568E+02  0.00000000000E+00 0.  1.
         11    1    3    3    0    0 -0.40084923384E+02  0.22381963142E+02  0.51912272554E+02  0.69301063473E+02  0.00000000000E+00 0. -1.
<mgrwt>
<rscale>  0 0.92208311E+02</rscale>
<asrwt>0</asrwt>
<pdfrwt beam="1">  1        3 0.17083173E-01 0.92208311E+02</pdfrwt>
<pdfrwt beam="2">  1       -3 0.29449973E-02 0.92208311E+02</pdfrwt>
<totfact> 0.31582839E+04</totfact>
</mgrwt>
</event>
<event>
 5    1  0.1247456E+001  0.9227951E+02  0.7546771E-02  0.1297424E+00
         -2   -1    0    0    0  501 -0.00000000000E+00  0.00000000000E+00  0.57228236294E+02  0.57228236294E+02  0.00000000000E+00 0.  1.
          2   -1    0    0  501    0  0.00000000000E+00 -0.00000000000E+00 -0.37199764091E+02  0.37199764091E+02  0.00000000000E+00 0. -1.
         23    2    1    2    0    0  0.00000000000E+00  0.00000000000E+00  0.20028472203E+02  0.94428000384E+02  0.92279507789E+02 0.  0.
        -13    1    3    3    0    0 -0.17721065131E+01  0.33888519915E+02  0.42003962646E+02  0.53999120562E+02  0.00000000000E+00 0.  1.
         13    1    3    3    0    0  0.17721065131E+01 -0.33888519915E+02 -0.21975490442E+02  0.40428879823E+02  0.00000000000E+00 0. -1.
<mgrwt>
<rscale>  0 0.92279508E+02</rscale>
<asrwt>0</asrwt>
<pdfrwt beam="2">  1        2 0.57230406E-02 0.92279508E+02</pdfrwt>
<pdfrwt beam="1">  1       -2 0.88043440E-02 0.92279508E+02</pdfrwt>
<totfact> 0.90382785E+04</totfact>
</mgrwt>
</event>
<event>
 5    1  0.1247456E+001  0.9693736E+02  0.7546771E-02  0.1286871E+00
         -1   -1    0    0    0  501 -0.00000000000E+00  0.00000000000E+00  0.10371755191E+03  0.10371755191E+03  0.00000000000E+00 0.  1.
          1   -1    0    0  501    0  0.00000000000E+00 -0.00000000000E+00 -0.22650098141E+02  0.22650098141E+02  0.00000000000E+00 0. -1.
         23    2    1    2    0    0  0.00000000000E+00  0.00000000000E+00  0.81067453773E+02  0.12636765006E+03  0.96937355644E+02 0.  0.
        -11    1    3    3    0    0 -0.31611607132E+02 -0.19083888342E+02  0.81461909167E+02  0.89440098082E+02  0.00000000000E+00 0.  1.
         11    1    3    3    0    0  0.31611607132E+02  0.19083888342E+02 -0.39445539402E+00  0.36927551973E+02  0.00000000000E+00 0. -1.
<mgrwt>
<rscale>  0 0.96937356E+02</rscale>
<asrwt>0</asrwt>
<pdfrwt beam="2">  1        1 0.34846306E-02 0.96937356E+02</pdfrwt>
<pdfrwt beam="1">  1       -1 0.15956546E-01 0.96937356E+02</pdfrwt>
<totfact> 0.68991663E+04</totfact>
</mgrwt>
</event>
<event>
 5    1  0.1247456E+001  0.9097412E+02  0.7546771E-02  0.1300510E+00
         -2   -1    0    0    0  501 -0.00000000000E+00  0.00000000000E+00  0.31950959109E+02  0.31950959109E+02  0.00000000000E+00 0.  1.
          2   -1    0    0  501    0  0.00000000000E+00 -0.00000000000E+00 -0.64757764645E+02  0.64757764645E+02  0.00000000000E+00 0. -1.
         23    2    1    2    0    0  0.00000000000E+00  0.00000000000E+00 -0.32806805536E+02  0.96708723754E+02  0.90974121379E+02 0.  0.
        -11    1    3    3    0    0 -0.14324759727E+02 -0.42014047711E+02 -0.26964100053E+02  0.51936900543E+02  0.00000000000E+00 0.  1.
         11    1    3    3    0    0  0.14324759727E+02  0.42014047711E+02 -0.58427054825E+01  0.44771823211E+02  0.00000000000E+00 0. -1.
<mgrwt>
<rscale>  0 0.90974121E+02</rscale>
<asrwt>0</asrwt>
<pdfrwt beam="2">  1        2 0.99627330E-02 0.90974121E+02</pdfrwt>
<pdfrwt beam="1">  1       -2 0.49155322E-02 0.90974121E+02</pdfrwt>
<totfact> 0.10895896E+05</totfact>
</mgrwt>
</event>
<event>
 4    1  0.1247456E+001  0.1336214E+03  0.7546771E-02  0.1222179E+00
         -2   -1    0    0    0  501 -0.00000000000E+00  0.00000000000E+00  0.20427990986E+03  0.20427990986E+03  0.00000000000E+00 0.  1.
          2   -1    0    0  501    0  0.00000000000E+00 -0.00000000000E+00 -0.21850753146E+02  0.21850753146E+02  0.00000000000E+00 0. -1.
        -11    1    1    2    0    0  0.51005262125E+02 -0.26370047912E+02  0.14902059161E+03  0.15969988389E+03  0.00000000000E+00 0.  1.
         11    1    1    2    0    0 -0.51005262125E+02  0.26370047912E+02  0.33408565105E+02  0.66430779114E+02  0.00000000000E+00 0. -1.
<mgrwt>
<rscale>  0 0.13362140E+03</rscale>
<asrwt>0</asrwt>
<pdfrwt beam="2">  1        2 0.33616545E-02 0.13362140E+03</pdfrwt>
<pdfrwt beam="1">  1       -2 0.31427677E-01 0.13362140E+03</pdfrwt>
<totfact> 0.23195376E+04</totfact>
</mgrwt>
</event>
<event>
 5    1  0.1247456E+001  0.9161941E+02  0.7546771E-02  0.1298977E+00
         -2   -1    0    0    0  501 -0.00000000000E+00  0.00000000000E+00  0.20106553008E+03  0.20106553008E+03  0.00000000000E+00 0.  1.
          2   -1    0    0  501    0  0.00000000000E+00 -0.00000000000E+00 -0.10437039688E+02  0.10437039688E+02  0.00000000000E+00 0. -1.
         23    2    1    2    0    0  0.00000000000E+00  0.00000000000E+00  0.19062849039E+03  0.21150256977E+03  0.91619406620E+02 0.  0.
        -13    1    3    3    0    0 -0.41312524478E+02 -0.93285554986E+01  0.55012575595E+02  0.69427156791E+02  0.00000000000E+00 0.  1.
         13    1    3    3    0    0  0.41312524478E+02  0.93285554986E+01  0.13561591480E+03  0.14207541298E+03  0.00000000000E+00 0. -1.
<mgrwt>
<rscale>  0 0.91619407E+02</rscale>
<asrwt>0</asrwt>
<pdfrwt beam="2">  1        2 0.16056986E-02 0.91619407E+02</pdfrwt>
<pdfrwt beam="1">  1       -2 0.30933156E-01 0.91619407E+02</pdfrwt>
<totfact> 0.61410862E+04</totfact>
</mgrwt>
</event>
<event>
 5    1  0.1247456E+001  0.9173243E+02  0.7546771E-02  0.1298710E+00
          1   -1    0    0  501    0  0.00000000000E+00  0.00000000000E+00  0.11498877545E+03  0.11498877545E+03  0.00000000000E+00 0. -1.
         -1   -1    0    0    0  501 -0.00000000000E+00 -0.00000000000E+00 -0.18294912508E+02  0.18294912508E+02  0.00000000000E+00 0.  1.
         23    2    1    2    0    0  0.00000000000E+00  0.00000000000E+00  0.96693862941E+02  0.13328368796E+03  0.91732427991E+02 0.  0.
        -13    1    3    3    0    0  0.24456312365E+02  0.37949548425E+02  0.36594085146E+02  0.58115458424E+02  0.00000000000E+00 0.  1.
         13    1    3    3    0    0 -0.24456312365E+02 -0.37949548425E+02  0.60099777795E+02  0.75168229533E+02  0.00000000000E+00 0. -1.
<mgrwt>
<rscale>  0 0.91732428E+02</rscale>
<asrwt>0</asrwt>
<pdfrwt beam="1">  1        1 0.17690580E-01 0.91732428E+02</pdfrwt>
<pdfrwt beam="2">  1       -1 0.28146020E-02 0.91732428E+02</pdfrwt>
<totfact> 0.10519565E+05</totfact>
</mgrwt>
</event>
<event>
 4    1  0.1247456E+001  0.4444009E+02  0.7546771E-02  0.1477868E+00
          3   -1    0    0  501    0  0.00000000000E+00  0.00000000000E+00  0.22228467971E+02  0.22228467971E+02  0.00000000000E+00 0.  1.
         -3   -1    0    0    0  501 -0.00000000000E+00 -0.00000000000E+00 -0.22211629451E+02  0.22211629451E+02  0.00000000000E+00 0. -1.
        -13    1    1    2    0    0  0.17555969563E+02 -0.12650550119E+02 -0.50395518068E+01  0.22218136016E+02  0.00000000000E+00 0.  1.
         13    1    1    2    0    0 -0.17555969563E+02  0.12650550119E+02  0.50563903270E+01  0.22221961406E+02  0.00000000000E+00 0. -1.
<mgrwt>
<rscale>  0 0.44440094E+02</rscale>
<asrwt>0</asrwt>
<pdfrwt beam="1">  1        3 0.34197643E-02 0.44440094E+02</pdfrwt>
<pdfrwt beam="2">  1       -3 0.34171738E-02 0.44440094E+02</pdfrwt>
<totfact> 0.25789303E+05</totfact>
</mgrwt>
</event>
<event>
 5    1  0.1247456E+001  0.8982147E+02  0.7546771E-02  0.1303285E+00
          2   -1    0    0  501    0  0.00000000000E+00  0.00000000000E+00  0.41800487893E+02  0.41800487893E+02  0.00000000000E+00 0. -1.
         -2   -1    0    0    0  501 -0.00000000000E+00 -0.00000000000E+00 -0.48252403194E+02  0.48252403194E+02  0.00000000000E+00 0.  1.
         23    2    1    2    0    0  0.00000000000E+00  0.00000000000E+00 -0.64519153013E+01  0.90052891086E+02  0.89821467267E+02 0.  0.
        -11    1    3    3    0    0  0.73856114919E+01  0.41736286328E+02  0.11661852244E+02  0.43959795852E+02  0.00000000000E+00 0. -1.
         11    1    3    3    0    0 -0.73856114919E+01 -0.41736286328E+02 -0.18113767546E+02  0.46093095234E+02  0.00000000000E+00 0.  1.
<mgrwt>
<rscale>  0 0.89821467E+02</rscale>
<asrwt>0</asrwt>
<pdfrwt beam="1">  1        2 0.64308443E-02 0.89821467E+02</pdfrwt>
<pdfrwt beam="2">  1       -2 0.74234467E-02 0.89821467E+02</pdfrwt>
<totfact> 0.10073498E+05</totfact>
</mgrwt>
</event>
<event>
 5    1  0.1247456E+001  0.5608477E+02  0.7546771E-02  0.1415037E+00
         -1   -1    0    0    0  501 -0.00000000000E+00  0.00000000000E+00  0.63521499609E+01  0.63521499609E+01  0.00000000000E+00 0.  1.
          1   -1    0    0  501    0  0.00000000000E+00 -0.00000000000E+00 -0.12379672866E+03  0.12379672866E+03  0.00000000000E+00 0. -1.
         23    2    1    2    0    0  0.00000000000E+00  0.00000000000E+00 -0.11744457870E+03  0.13014887862E+03  0.56084771022E+02 0.  0.
        -13    1    3    3    0    0  0.10286971189E+02  0.23919368297E+02 -0.82884965432E+02  0.86878509717E+02  0.00000000000E+00 0. -1.
         13    1    3    3    0    0 -0.10286971189E+02 -0.23919368297E+02 -0.34559613270E+02  0.43270368907E+02  0.00000000000E+00 0.  1.
<mgrwt>
<rscale>  0 0.56084771E+02</rscale>
<asrwt>0</asrwt>
<pdfrwt beam="2">  1        1 0.19045649E-01 0.56084771E+02</pdfrwt>
<pdfrwt beam="1">  1       -1 0.97725392E-03 0.56084771E+02</pdfrwt>
<totfact> 0.38884530E+05</totfact>
</mgrwt>
</event>
<event>
 5    1  0.1247456E+001  0.9012885E+02  0.7546771E-02  0.1302540E+00
          1   -1    0    0  501    0  0.00000000000E+00  0.00000000000E+00  0.24675264569E+03  0.24675264569E+03  0.00000000000E+00 0. -1.
         -1   -1    0    0    0  501 -0.00000000000E+00 -0.00000000000E+00 -0.82301139428E+01  0.82301139428E+01  0.00000000000E+00 0.  1.
         23    2    1    2    0    0  0.00000000000E+00  0.00000000000E+00  0.23852253174E+03  0.25498275963E+03  0.90128849759E+02 0.  0.
        -11    1    3    3    0    0 -0.17105336844E+00  0.44779346923E+02  0.13357077012E+03  0.14087714436E+03  0.00000000000E+00 0.  1.
         11    1    3    3    0    0  0.17105336844E+00 -0.44779346923E+02  0.10495176162E+03  0.11410561528E+03  0.00000000000E+00 0. -1.
<mgrwt>
<rscale>  0 0.90128850E+02</rscale>
<asrwt>0</asrwt>
<pdfrwt beam="1">  1        1 0.37961940E-01 0.90128850E+02</pdfrwt>
<pdfrwt beam="2">  1       -1 0.12661716E-02 0.90128850E+02</pdfrwt>
<totfact> 0.12722092E+05</totfact>
</mgrwt>
</event>
<event>
 5    1  0.1247456E+001  0.9143223E+02  0.7546771E-02  0.1299420E+00
          1   -1    0    0  501    0  0.00000000000E+00  0.00000000000E+00  0.11745406644E+03  0.11745406644E+03  0.00000000000E+00 0. -1.
         -1   -1    0    0    0  501 -0.00000000000E+00 -0.00000000000E+00 -0.17793877209E+02  0.17793877209E+02  0.00000000000E+00 0.  1.
         23    2    1    2    0    0  0.00000000000E+00  0.00000000000E+00  0.99660189229E+02  0.13524794365E+03  0.91432231427E+02 0.  0.
        -11    1    3    3    0    0 -0.17732596607E+02 -0.41762884184E+02  0.41543880567E+02  0.61518107012E+02  0.00000000000E+00 0.  1.
         11    1    3    3    0    0  0.17732596607E+02  0.41762884184E+02  0.58116308662E+02  0.73729836636E+02  0.00000000000E+00 0. -1.
<mgrwt>
<rscale>  0 0.91432231E+02</rscale>
<asrwt>0</asrwt>
<pdfrwt beam="1">  1        1 0.18069856E-01 0.91432231E+02</pdfrwt>
<pdfrwt beam="2">  1       -1 0.27375196E-02 0.91432231E+02</pdfrwt>
<totfact> 0.10652662E+05</totfact>
</mgrwt>
</event>
<event>
 5    1  0.1247456E+001  0.9319173E+02  0.7546771E-02  0.1295301E+00
         -4   -1    0    0    0  501 -0.00000000000E+00  0.00000000000E+00  0.36501280039E+02  0.36501280039E+02  0.00000000000E+00 0.  1.
          4   -1    0    0  501    0  0.00000000000E+00 -0.00000000000E+00 -0.59482153438E+02  0.59482153438E+02  0.00000000000E+00 0. -1.
         23    2    1    2    0    0  0.00000000000E+00  0.00000000000E+00 -0.22980873399E+02  0.95983433477E+02  0.93191732250E+02 0.  0.
        -11    1    3    3    0    0  0.43675348878E+01 -0.27649307773E+02  0.26876172159E+02  0.38805775488E+02  0.00000000000E+00 0.  1.
         11    1    3    3    0    0 -0.43675348878E+01  0.27649307773E+02 -0.49857045558E+02  0.57177657989E+02  0.00000000000E+00 0. -1.
<mgrwt>
<rscale>  0 0.93191732E+02</rscale>
<asrwt>0</asrwt>
<pdfrwt beam="2">  1        4 0.91511004E-02 0.93191732E+02</pdfrwt>
<pdfrwt beam="1">  1       -4 0.56155816E-02 0.93191732E+02</pdfrwt>
<totfact> 0.25167372E+04</totfact>
</mgrwt>
</event>
<event>
 5    1  0.1247456E+001  0.9029043E+02  0.7546771E-02  0.1302150E+00
          3   -1    0    0  501    0  0.00000000000E+00  0.00000000000E+00  0.14347766707E+03  0.14347766707E+03  0.00000000000E+00 0. -1.
         -3   -1    0    0    0  501 -0.00000000000E+00 -0.00000000000E+00 -0.14204930922E+02  0.14204930922E+02  0.00000000000E+00 0.  1.
         23    2    1    2    0    0  0.00000000000E+00  0.00000000000E+00  0.12927273615E+03  0.15768259800E+03  0.90290428058E+02 0.  0.
        -11    1    3    3    0    0 -0.34476588287E+02  0.17942084109E+02  0.24524910242E+02  0.45956770388E+02  0.00000000000E+00 0.  1.
         11    1    3    3    0    0  0.34476588287E+02 -0.17942084109E+02  0.10474782591E+03  0.11172582761E+03  0.00000000000E+00 0. -1.
<mgrwt>
<rscale>  0 0.90290428E+02</rscale>
<asrwt>0</asrwt>
<pdfrwt beam="1">  1        3 0.22073486E-01 0.90290428E+02</pdfrwt>
<pdfrwt beam="2">  1       -3 0.21853741E-02 0.90290428E+02</pdfrwt>
<totfact> 0.31668497E+04</totfact>
</mgrwt>
</event>
<event>
 5    1  0.1247456E+001  0.8974104E+02  0.7546771E-02  0.1303480E+00
          1   -1    0    0  501    0  0.00000000000E+00  0.00000000000E+00  0.16356657626E+02  0.16356657626E+02  0.00000000000E+00 0. -1.
         -1   -1    0    0    0  501 -0.00000000000E+00 -0.00000000000E+00 -0.12309138482E+03  0.12309138482E+03  0.00000000000E+00 0.  1.
         23    2    1    2    0    0  0.00000000000E+00  0.00000000000E+00 -0.10673472719E+03  0.13944804244E+03  0.89741041630E+02 0.  0.
        -11    1    3    3    0    0  0.27328879021E+01  0.39775684534E+02 -0.85356064825E+02  0.94208447386E+02  0.00000000000E+00 0.  1.
         11    1    3    3    0    0 -0.27328879021E+01 -0.39775684534E+02 -0.21378662368E+02  0.45239595059E+02  0.00000000000E+00 0. -1.
<mgrwt>
<rscale>  0 0.89741042E+02</rscale>
<asrwt>0</asrwt>
<pdfrwt beam="1">  1        1 0.25164088E-02 0.89741042E+02</pdfrwt>
<pdfrwt beam="2">  1       -1 0.18937136E-01 0.89741042E+02</pdfrwt>
<totfact> 0.81390250E+04</totfact>
</mgrwt>
</event>
<event>
 5    1  0.1247456E+001  0.9181630E+02  0.7546771E-02  0.1298512E+00
          3   -1    0    0  501    0  0.00000000000E+00  0.00000000000E+00  0.10136054073E+03  0.10136054073E+03  0.00000000000E+00 0. -1.
         -3   -1    0    0    0  501 -0.00000000000E+00 -0.00000000000E+00 -0.20792690441E+02  0.20792690441E+02  0.00000000000E+00 0.  1.
         23    2    1    2    0    0  0.00000000000E+00  0.00000000000E+00  0.80567850294E+02  0.12215323118E+03  0.91816302396E+02 0.  0.
        -11    1    3    3    0    0  0.12454826385E+02 -0.44086718971E+02  0.36337999347E+02  0.58474025742E+02  0.00000000000E+00 0. -1.
         11    1    3    3    0    0 -0.12454826385E+02  0.44086718971E+02  0.44229850947E+02  0.63679205434E+02  0.00000000000E+00 0.  1.
<mgrwt>
<rscale>  0 0.91816302E+02</rscale>
<asrwt>0</asrwt>
<pdfrwt beam="1">  1        3 0.15593929E-01 0.91816302E+02</pdfrwt>
<pdfrwt beam="2">  1       -3 0.31988755E-02 0.91816302E+02</pdfrwt>
<totfact> 0.32476179E+04</totfact>
</mgrwt>
</event>
<event>
 5    1  0.1247456E+001  0.9139340E+02  0.7546771E-02  0.1299512E+00
          3   -1    0    0  501    0  0.00000000000E+00  0.00000000000E+00  0.16679576337E+03  0.16679576337E+03  0.00000000000E+00 0. -1.
         -3   -1    0    0    0  501 -0.00000000000E+00 -0.00000000000E+00 -0.12519432633E+02  0.12519432633E+02  0.00000000000E+00 0.  1.
         23    2    1    2    0    0  0.00000000000E+00  0.00000000000E+00  0.15427633074E+03  0.17931519601E+03  0.91393398515E+02 0.  0.
        -11    1    3    3    0    0 -0.33247924077E+02 -0.35993808176E+01  0.16037600940E+02  0.37088874903E+02  0.00000000000E+00 0.  1.
         11    1    3    3    0    0  0.33247924077E+02  0.35993808176E+01  0.13823872980E+03  0.14222632110E+03  0.00000000000E+00 0. -1.
<mgrwt>
<rscale>  0 0.91393399E+02</rscale>
<asrwt>0</asrwt>
<pdfrwt beam="1">  1        3 0.25660885E-01 0.91393399E+02</pdfrwt>
<pdfrwt beam="2">  1       -3 0.19260667E-02 0.91393399E+02</pdfrwt>
<totfact> 0.29414439E+04</totfact>
</mgrwt>
</event>
<event>
 5    1  0.1247456E+001  0.9189330E+02  0.7546771E-02  0.1298330E+00
          2   -1    0    0  501    0  0.00000000000E+00  0.00000000000E+00  0.16181422356E+03  0.16181422356E+03  0.00000000000E+00 0. -1.
         -2   -1    0    0    0  501 -0.00000000000E+00 -0.00000000000E+00 -0.13046410448E+02  0.13046410448E+02  0.00000000000E+00 0.  1.
         23    2    1    2    0    0  0.00000000000E+00  0.00000000000E+00  0.14876781312E+03  0.17486063401E+03  0.91893302845E+02 0.  0.
        -11    1    3    3    0    0  0.33291022063E+02 -0.12720848927E+02  0.19201364850E+02  0.40482151123E+02  0.00000000000E+00 0.  1.
         11    1    3    3    0    0 -0.33291022063E+02  0.12720848927E+02  0.12956644827E+03  0.13437848289E+03  0.00000000000E+00 0. -1.
<mgrwt>
<rscale>  0 0.91893303E+02</rscale>
<asrwt>0</asrwt>
<pdfrwt beam="1">  1        2 0.24894495E-01 0.91893303E+02</pdfrwt>
<pdfrwt beam="2">  1       -2 0.20071402E-02 0.91893303E+02</pdfrwt>
<totfact> 0.14048109E+05</totfact>
</mgrwt>
</event>
<event>
 5    1  0.1247456E+001  0.9152410E+02  0.7546771E-02  0.1299202E+00
          4   -1    0    0  501    0  0.00000000000E+00  0.00000000000E+00  0.45090232552E+02  0.45090232552E+02  0.00000000000E+00 0. -1.
         -4   -1    0    0    0  501 -0.00000000000E+00 -0.00000000000E+00 -0.46443874020E+02  0.46443874020E+02  0.00000000000E+00 0.  1.
         23    2    1    2    0    0  0.00000000000E+00  0.00000000000E+00 -0.13536414681E+01  0.91534106572E+02  0.91524096940E+02 0.  0.
        -11    1    3    3    0    0 -0.40165182668E+01 -0.22508221915E+02 -0.40322203122E+02  0.46353344403E+02  0.00000000000E+00 0.  1.
         11    1    3    3    0    0  0.40165182668E+01  0.22508221915E+02  0.38968561654E+02  0.45180762169E+02  0.00000000000E+00 0. -1.
<mgrwt>
<rscale>  0 0.91524097E+02</rscale>
<asrwt>0</asrwt>
<pdfrwt beam="1">  1        4 0.69369589E-02 0.91524097E+02</pdfrwt>
<pdfrwt beam="2">  1       -4 0.71452114E-02 0.91524097E+02</pdfrwt>
<totfact> 0.26715423E+04</totfact>
</mgrwt>
</event>
<event>
 5    1  0.1247456E+001  0.9264936E+02  0.7546771E-02  0.1296560E+00
          1   -1    0    0  501    0  0.00000000000E+00  0.00000000000E+00  0.10758814696E+03  0.10758814696E+03  0.00000000000E+00 0. -1.
         -1   -1    0    0    0  501 -0.00000000000E+00 -0.00000000000E+00 -0.19946211185E+02  0.19946211185E+02  0.00000000000E+00 0.  1.
         23    2    1    2    0    0  0.00000000000E+00  0.00000000000E+00  0.87641935777E+02  0.12753435815E+03  0.92649358342E+02 0.  0.
        -11    1    3    3    0    0  0.33773717824E+02  0.30451380008E+02  0.31661834569E+02  0.55411391684E+02  0.00000000000E+00 0.  1.
         11    1    3    3    0    0 -0.33773717824E+02 -0.30451380008E+02  0.55980101208E+02  0.72122966462E+02  0.00000000000E+00 0. -1.
<mgrwt>
<rscale>  0 0.92649358E+02</rscale>
<asrwt>0</asrwt>
<pdfrwt beam="1">  1        1 0.16552022E-01 0.92649358E+02</pdfrwt>
<pdfrwt beam="2">  1       -1 0.30686479E-02 0.92649358E+02</pdfrwt>
<totfact> 0.10122300E+05</totfact>
</mgrwt>
</event>
<event>
 5    1  0.1247456E+001  0.9110834E+02  0.7546771E-02  0.1300190E+00
         -2   -1    0    0    0  501 -0.00000000000E+00  0.00000000000E+00  0.94180603068E+02  0.94180603068E+02  0.00000000000E+00 0.  1.
          2   -1    0    0  501    0  0.00000000000E+00 -0.00000000000E+00 -0.22034072393E+02  0.22034072393E+02  0.00000000000E+00 0. -1.
         23    2    1    2    0    0  0.00000000000E+00  0.00000000000E+00  0.72146530674E+02  0.11621467546E+03  0.91108336085E+02 0.  0.
        -11    1    3    3    0    0  0.18594367689E+02 -0.14449072315E+02 -0.13668174472E+02  0.27227654947E+02  0.00000000000E+00 0. -1.
         11    1    3    3    0    0 -0.18594367689E+02  0.14449072315E+02  0.85814705146E+02  0.88987020514E+02  0.00000000000E+00 0.  1.
<mgrwt>
<rscale>  0 0.91108336E+02</rscale>
<asrwt>0</asrwt>
<pdfrwt beam="2">  1        2 0.33898574E-02 0.91108336E+02</pdfrwt>
<pdfrwt beam="1">  1       -2 0.14489323E-01 0.91108336E+02</pdfrwt>
<totfact> 0.81381989E+04</totfact>
</mgrwt>
</event>
<event>
 5    1  0.1247456E+001  0.8912149E+02  0.7546771E-02  0.1304993E+00
          1   -1    0    0  501    0  0.00000000000E+00  0.00000000000E+00  0.61744442219E+01  0.61744442219E+01  0.00000000000E+00 0. -1.
         -1   -1    0    0    0  501 -0.00000000000E+00 -0.00000000000E+00 -0.32159334292E+03  0.32159334292E+03  0.00000000000E+00 0.  1.
         23    2    1    2    0    0  0.00000000000E+00  0.00000000000E+00 -0.31541889870E+03  0.32776778714E+03  0.89121493658E+02 0.  0.
        -11    1    3    3    0    0 -0.19026039823E+02 -0.36305459805E+02 -0.22200024521E+03  0.22575248720E+03  0.00000000000E+00 0.  1.
         11    1    3    3    0    0  0.19026039823E+02  0.36305459805E+02 -0.93418653488E+02  0.10201529994E+03  0.00000000000E+00 0. -1.
<mgrwt>
<rscale>  0 0.89121494E+02</rscale>
<asrwt>0</asrwt>
<pdfrwt beam="1">  1        1 0.94991440E-03 0.89121494E+02</pdfrwt>
<pdfrwt beam="2">  1       -1 0.49475904E-01 0.89121494E+02</pdfrwt>
<totfact> 0.62519733E+04</totfact>
</mgrwt>
</event>
<event>
 5    1  0.1247456E+001  0.8952786E+02  0.7546771E-02  0.1303999E+00
         -4   -1    0    0    0  501 -0.00000000000E+00  0.00000000000E+00  0.21782211030E+02  0.21782211030E+02  0.00000000000E+00 0.  1.
          4   -1    0    0  501    0  0.00000000000E+00 -0.00000000000E+00 -0.91992940204E+02  0.91992940204E+02  0.00000000000E+00 0. -1.
         23    2    1    2    0    0  0.00000000000E+00  0.00000000000E+00 -0.70210729174E+02  0.11377515123E+03  0.89527864641E+02 0.  0.
        -11    1    3    3    0    0  0.14893370493E+02  0.41336065932E+02 -0.45987661668E+02  0.63603049118E+02  0.00000000000E+00 0. -1.
         11    1    3    3    0    0 -0.14893370493E+02 -0.41336065932E+02 -0.24223067506E+02  0.50172102117E+02  0.00000000000E+00 0.  1.
<mgrwt>
<rscale>  0 0.89527865E+02</rscale>
<asrwt>0</asrwt>
<pdfrwt beam="2">  1        4 0.14152760E-01 0.89527865E+02</pdfrwt>
<pdfrwt beam="1">  1       -4 0.33511094E-02 0.89527865E+02</pdfrwt>
<totfact> 0.26923331E+04</totfact>
</mgrwt>
</event>
<event>
 5    1  0.1247456E+001  0.9223279E+02  0.7546771E-02  0.1297533E+00
         -2   -1    0    0    0  501 -0.00000000000E+00  0.00000000000E+00  0.33995207961E+02  0.33995207961E+02  0.00000000000E+00 0.  1.
          2   -1    0    0  501    0  0.00000000000E+00 -0.00000000000E+00 -0.62559460808E+02  0.62559460808E+02  0.00000000000E+00 0. -1.
         23    2    1    2    0    0  0.00000000000E+00  0.00000000000E+00 -0.28564252848E+02  0.96554668769E+02  0.92232789833E+02 0.  0.
        -13    1    3    3    0    0 -0.33720689410E+02  0.28914339570E+02 -0.27256328178E+02  0.52115557685E+02  0.00000000000E+00 0.  1.
         13    1    3    3    0    0  0.33720689410E+02 -0.28914339570E+02 -0.13079246696E+01  0.44439111084E+02  0.00000000000E+00 0. -1.
<mgrwt>
<rscale>  0 0.92232790E+02</rscale>
<asrwt>0</asrwt>
<pdfrwt beam="2">  1        2 0.96245324E-02 0.92232790E+02</pdfrwt>
<pdfrwt beam="1">  1       -2 0.52300320E-02 0.92232790E+02</pdfrwt>
<totfact> 0.10384260E+05</totfact>
</mgrwt>
</event>
<event>
 5    1  0.1247456E+001  0.9130627E+02  0.7546771E-02  0.1299719E+00
          2   -1    0    0  501    0  0.00000000000E+00  0.00000000000E+00  0.17010798180E+03  0.17010798180E+03  0.00000000000E+00 0. -1.
         -2   -1    0    0    0  501 -0.00000000000E+00 -0.00000000000E+00 -0.12252269460E+02  0.12252269460E+02  0.00000000000E+00 0.  1.
         23    2    1    2    0    0  0.00000000000E+00  0.00000000000E+00  0.15785571234E+03  0.18236025126E+03  0.91306272079E+02 0.  0.
        -13    1    3    3    0    0  0.44838581439E+02 -0.25857166684E+01  0.62576777516E+02  0.77026212424E+02  0.00000000000E+00 0.  1.
         13    1    3    3    0    0 -0.44838581439E+02  0.25857166684E+01  0.95278934823E+02  0.10533403883E+03  0.00000000000E+00 0. -1.
<mgrwt>
<rscale>  0 0.91306272E+02</rscale>
<asrwt>0</asrwt>
<pdfrwt beam="1">  1        2 0.26170457E-01 0.91306272E+02</pdfrwt>
<pdfrwt beam="2">  1       -2 0.18849647E-02 0.91306272E+02</pdfrwt>
<totfact> 0.14545140E+05</totfact>
</mgrwt>
</event>
<event>
 5    1  0.1247456E+001  0.9643880E+02  0.7546771E-02  0.1287968E+00
         -3   -1    0    0    0  501 -0.00000000000E+00  0.00000000000E+00  0.34612624940E+03  0.34612624940E+03  0.00000000000E+00 0.  1.
          3   -1    0    0  501    0  0.00000000000E+00 -0.00000000000E+00 -0.67175214524E+01  0.67175214524E+01  0.00000000000E+00 0. -1.
         23    2    1    2    0    0  0.00000000000E+00  0.00000000000E+00  0.33940872795E+03  0.35284377085E+03  0.96438799362E+02 0.  0.
        -11    1    3    3    0    0  0.45468824692E+02  0.15558109269E+02  0.15523421672E+03  0.16250271020E+03  0.00000000000E+00 0.  1.
         11    1    3    3    0    0 -0.45468824692E+02 -0.15558109269E+02  0.18417451123E+03  0.19034106065E+03  0.00000000000E+00 0. -1.
<mgrwt>
<rscale>  0 0.96438799E+02</rscale>
<asrwt>0</asrwt>
<pdfrwt beam="2">  1        3 0.10334651E-02 0.96438799E+02</pdfrwt>
<pdfrwt beam="1">  1       -3 0.53250178E-01 0.96438799E+02</pdfrwt>
<totfact> 0.19011871E+04</totfact>
</mgrwt>
</event>
<event>
 5    1  0.1247456E+001  0.9035996E+02  0.7546771E-02  0.1301982E+00
          3   -1    0    0  501    0  0.00000000000E+00  0.00000000000E+00  0.76319640122E+02  0.76319640122E+02  0.00000000000E+00 0. -1.
         -3   -1    0    0    0  501 -0.00000000000E+00 -0.00000000000E+00 -0.26745809540E+02  0.26745809540E+02  0.00000000000E+00 0.  1.
         23    2    1    2    0    0  0.00000000000E+00  0.00000000000E+00  0.49573830583E+02  0.10306544966E+03  0.90359959248E+02 0.  0.
        -11    1    3    3    0    0  0.99132264268E+01  0.42490261117E+02  0.11410319510E+02  0.45098666713E+02  0.00000000000E+00 0.  1.
         11    1    3    3    0    0 -0.99132264268E+01 -0.42490261117E+02  0.38163511073E+02  0.57966782948E+02  0.00000000000E+00 0. -1.
<mgrwt>
<rscale>  0 0.90359959E+02</rscale>
<asrwt>0</asrwt>
<pdfrwt beam="1">  1        3 0.11741483E-01 0.90359959E+02</pdfrwt>
<pdfrwt beam="2">  1       -3 0.41147400E-02 0.90359959E+02</pdfrwt>
<totfact> 0.35297699E+04</totfact>
</mgrwt>
</event>
<event>
 5    1  0.1247456E+001  0.8892185E+02  0.7546771E-02  0.1305484E+00
         -4   -1    0    0    0  501 -0.00000000000E+00  0.00000000000E+00  0.79831247732E+01  0.79831247732E+01  0.00000000000E+00 0.  1.
          4   -1    0    0  501    0  0.00000000000E+00 -0.00000000000E+00 -0.24761908188E+03  0.24761908188E+03  0.00000000000E+00 0. -1.
         23    2    1    2    0    0  0.00000000000E+00  0.00000000000E+00 -0.23963595711E+03  0.25560220665E+03  0.88921853937E+02 0.  0.
        -11    1    3    3    0    0  0.12682436474E+02  0.37451035145E+02 -0.61377339651E+02  0.73010972128E+02  0.00000000000E+00 0.  1.
         11    1    3    3    0    0 -0.12682436474E+02 -0.37451035145E+02 -0.17825861746E+03  0.18259123453E+03  0.00000000000E+00 0. -1.
<mgrwt>
<rscale>  0 0.88921854E+02</rscale>
<asrwt>0</asrwt>
<pdfrwt beam="2">  1        4 0.38095247E-01 0.88921854E+02</pdfrwt>
<pdfrwt beam="1">  1       -4 0.12281729E-02 0.88921854E+02</pdfrwt>
<totfact> 0.20592293E+04</totfact>
</mgrwt>
</event>
<event>
 5    1  0.1247456E+001  0.9041130E+02  0.7546771E-02  0.1301859E+00
         -2   -1    0    0    0  501 -0.00000000000E+00  0.00000000000E+00  0.14176110314E+03  0.14176110314E+03  0.00000000000E+00 0.  1.
          2   -1    0    0  501    0  0.00000000000E+00 -0.00000000000E+00 -0.14415455194E+02  0.14415455194E+02  0.00000000000E+00 0. -1.
         23    2    1    2    0    0  0.00000000000E+00  0.00000000000E+00  0.12734564795E+03  0.15617655833E+03  0.90411300855E+02 0.  0.
        -13    1    3    3    0    0  0.37466467150E+01 -0.39633638454E+02  0.26677068470E+02  0.47922110146E+02  0.00000000000E+00 0. -1.
         13    1    3    3    0    0 -0.37466467150E+01  0.39633638454E+02  0.10066857948E+03  0.10825444819E+03  0.00000000000E+00 0.  1.
<mgrwt>
<rscale>  0 0.90411301E+02</rscale>
<asrwt>0</asrwt>
<pdfrwt beam="2">  1        2 0.22177624E-02 0.90411301E+02</pdfrwt>
<pdfrwt beam="1">  1       -2 0.21809400E-01 0.90411301E+02</pdfrwt>
<totfact> 0.72819412E+04</totfact>
</mgrwt>
</event>
<event>
 5    1  0.1247456E+001  0.8743762E+02  0.7546771E-02  0.1309178E+00
          1   -1    0    0  501    0  0.00000000000E+00  0.00000000000E+00  0.27448652678E+02  0.27448652678E+02  0.00000000000E+00 0. -1.
         -1   -1    0    0    0  501 -0.00000000000E+00 -0.00000000000E+00 -0.69633083593E+02  0.69633083593E+02  0.00000000000E+00 0.  1.
         23    2    1    2    0    0  0.00000000000E+00  0.00000000000E+00 -0.42184430915E+02  0.97081736271E+02  0.87437619511E+02 0.  0.
        -13    1    3    3    0    0 -0.32175851145E+02  0.10769323293E+02 -0.51702416223E+02  0.61841762300E+02  0.00000000000E+00 0.  1.
         13    1    3    3    0    0  0.32175851145E+02 -0.10769323293E+02  0.95179853087E+01  0.35239973970E+02  0.00000000000E+00 0. -1.
<mgrwt>
<rscale>  0 0.87437620E+02</rscale>
<asrwt>0</asrwt>
<pdfrwt beam="1">  1        1 0.42228697E-02 0.87437620E+02</pdfrwt>
<pdfrwt beam="2">  1       -1 0.10712782E-01 0.87437620E+02</pdfrwt>
<totfact> 0.96356294E+04</totfact>
</mgrwt>
</event>
<event>
 5    1  0.1247456E+001  0.9078763E+02  0.7546771E-02  0.1300955E+00
          2   -1    0    0  501    0  0.00000000000E+00  0.00000000000E+00  0.13033823721E+03  0.13033823721E+03  0.00000000000E+00 0. -1.
         -2   -1    0    0    0  501 -0.00000000000E+00 -0.00000000000E+00 -0.15809621914E+02  0.15809621914E+02  0.00000000000E+00 0.  1.
         23    2    1    2    0    0  0.00000000000E+00  0.00000000000E+00  0.11452861530E+03  0.14614785913E+03  0.90787625837E+02 0.  0.
        -11    1    3    3    0    0 -0.39476182329E+02  0.86789190565E+01  0.90525035372E+02  0.99138663681E+02  0.00000000000E+00 0. -1.
         11    1    3    3    0    0  0.39476182329E+02 -0.86789190565E+01  0.24003579929E+02  0.47009195448E+02  0.00000000000E+00 0.  1.
<mgrwt>
<rscale>  0 0.90787626E+02</rscale>
<asrwt>0</asrwt>
<pdfrwt beam="1">  1        2 0.20052036E-01 0.90787626E+02</pdfrwt>
<pdfrwt beam="2">  1       -2 0.24322496E-02 0.90787626E+02</pdfrwt>
<totfact> 0.13495837E+05</totfact>
</mgrwt>
</event>
<event>
 5    1  0.1247456E+001  0.9134314E+02  0.7546771E-02  0.1299631E+00
          2   -1    0    0  501    0  0.00000000000E+00  0.00000000000E+00  0.55255992176E+02  0.55255992176E+02  0.00000000000E+00 0. -1.
         -2   -1    0    0    0  501 -0.00000000000E+00 -0.00000000000E+00 -0.37749609445E+02  0.37749609445E+02  0.00000000000E+00 0.  1.
         23    2    1    2    0    0  0.00000000000E+00  0.00000000000E+00  0.17506382731E+02  0.93005601621E+02  0.91343136012E+02 0.  0.
        -13    1    3    3    0    0 -0.25286934785E+02 -0.33535517648E+02 -0.95129945842E+01  0.43064568740E+02  0.00000000000E+00 0.  1.
         13    1    3    3    0    0  0.25286934785E+02  0.33535517648E+02  0.27019377316E+02  0.49941032882E+02  0.00000000000E+00 0. -1.
<mgrwt>
<rscale>  0 0.91343136E+02</rscale>
<asrwt>0</asrwt>
<pdfrwt beam="1">  1        2 0.85009219E-02 0.91343136E+02</pdfrwt>
<pdfrwt beam="2">  1       -2 0.58076322E-02 0.91343136E+02</pdfrwt>
<totfact> 0.10323277E+05</totfact>
</mgrwt>
</event>
<event>
 5    1  0.1247456E+001  0.9292541E+02  0.7546771E-02  0.1295918E+00
          1   -1    0    0  501    0  0.00000000000E+00  0.00000000000E+00  0.16357823774E+02  0.16357823774E+02  0.00000000000E+00 0. -1.
         -1   -1    0    0    0  501 -0.00000000000E+00 -0.00000000000E+00 -0.13197250474E+03  0.13197250474E+03  0.00000000000E+00 0.  1.
         23    2    1    2    0    0  0.00000000000E+00  0.00000000000E+00 -0.11561468097E+03  0.14833032852E+03  0.92925410425E+02 0.  0.
        -11    1    3    3    0    0 -0.41119751339E+02 -0.19570146066E+02 -0.72520253071E+02  0.85633005743E+02  0.00000000000E+00 0.  1.
         11    1    3    3    0    0  0.41119751339E+02  0.19570146066E+02 -0.43094427899E+02  0.62697322775E+02  0.00000000000E+00 0. -1.
<mgrwt>
<rscale>  0 0.92925410E+02</rscale>
<asrwt>0</asrwt>
<pdfrwt beam="1">  1        1 0.25165882E-02 0.92925410E+02</pdfrwt>
<pdfrwt beam="2">  1       -1 0.20303463E-01 0.92925410E+02</pdfrwt>
<totfact> 0.73274539E+04</totfact>
</mgrwt>
</event>
<event>
 5    1  0.1247456E+001  0.8952080E+02  0.7546771E-02  0.1304016E+00
         -2   -1    0    0    0  501 -0.00000000000E+00  0.00000000000E+00  0.15009221661E+03  0.15009221661E+03  0.00000000000E+00 0.  1.
          2   -1    0    0  501    0  0.00000000000E+00 -0.00000000000E+00 -0.13348417208E+02  0.13348417208E+02  0.00000000000E+00 0. -1.
         23    2    1    2    0    0  0.00000000000E+00  0.00000000000E+00  0.13674379940E+03  0.16344063381E+03  0.89520802654E+02 0.  0.
        -13    1    3    3    0    0 -0.21124445925E+01  0.27546429505E+02  0.13266825692E+03  0.13551433354E+03  0.00000000000E+00 0.  1.
         13    1    3    3    0    0  0.21124445925E+01 -0.27546429505E+02  0.40755424803E+01  0.27926300276E+02  0.00000000000E+00 0. -1.
<mgrwt>
<rscale>  0 0.89520803E+02</rscale>
<asrwt>0</asrwt>
<pdfrwt beam="2">  1        2 0.20536028E-02 0.89520803E+02</pdfrwt>
<pdfrwt beam="1">  1       -2 0.23091109E-01 0.89520803E+02</pdfrwt>
<totfact> 0.73155283E+04</totfact>
</mgrwt>
</event>
<event>
 5    1  0.1247456E+001  0.9123726E+02  0.7546771E-02  0.1299883E+00
          2   -1    0    0  501    0  0.00000000000E+00  0.00000000000E+00  0.10843800679E+03  0.10843800679E+03  0.00000000000E+00 0.  1.
         -2   -1    0    0    0  501 -0.00000000000E+00 -0.00000000000E+00 -0.19191234401E+02  0.19191234401E+02  0.00000000000E+00 0. -1.
         23    2    1    2    0    0  0.00000000000E+00  0.00000000000E+00  0.89246772394E+02  0.12762924120E+03  0.91237255688E+02 0.  0.
        -11    1    3    3    0    0 -0.66118970477E+01 -0.37814844825E+02  0.10148086460E+02  0.39707220130E+02  0.00000000000E+00 0. -1.
         11    1    3    3    0    0  0.66118970477E+01  0.37814844825E+02  0.79098685934E+02  0.87922021065E+02  0.00000000000E+00 0.  1.
<mgrwt>
<rscale>  0 0.91237256E+02</rscale>
<asrwt>0</asrwt>
<pdfrwt beam="1">  1        2 0.16682770E-01 0.91237256E+02</pdfrwt>
<pdfrwt beam="2">  1       -2 0.29524977E-02 0.91237256E+02</pdfrwt>
<totfact> 0.12554673E+05</totfact>
</mgrwt>
</event>
<event>
 5    1  0.1247456E+001  0.8996980E+02  0.7546771E-02  0.1302925E+00
         -2   -1    0    0    0  501 -0.00000000000E+00  0.00000000000E+00  0.21605877660E+02  0.21605877660E+02  0.00000000000E+00 0. -1.
          2   -1    0    0  501    0  0.00000000000E+00 -0.00000000000E+00 -0.93661609444E+02  0.93661609444E+02  0.00000000000E+00 0.  1.
         23    2    1    2    0    0  0.00000000000E+00  0.00000000000E+00 -0.72055731784E+02  0.11526748710E+03  0.89969801046E+02 0.  0.
        -13    1    3    3    0    0  0.39010561117E+02 -0.19014598733E+02 -0.51201190424E+02  0.67118855358E+02  0.00000000000E+00 0.  1.
         13    1    3    3    0    0 -0.39010561117E+02  0.19014598733E+02 -0.20854541359E+02  0.48148631746E+02  0.00000000000E+00 0. -1.
<mgrwt>
<rscale>  0 0.89969801E+02</rscale>
<asrwt>0</asrwt>
<pdfrwt beam="2">  1        2 0.14409478E-01 0.89969801E+02</pdfrwt>
<pdfrwt beam="1">  1       -2 0.33239812E-02 0.89969801E+02</pdfrwt>
<totfact> 0.12477504E+05</totfact>
</mgrwt>
</event>
<event>
 4    1  0.1247456E+001  0.4621331E+02  0.7546771E-02  0.1466906E+00
          2   -1    0    0  501    0  0.00000000000E+00  0.00000000000E+00  0.25450204673E+03  0.25450204673E+03  0.00000000000E+00 0. -1.
         -2   -1    0    0    0  501 -0.00000000000E+00 -0.00000000000E+00 -0.20978908330E+01  0.20978908330E+01  0.00000000000E+00 0.  1.
        -13    1    1    2    0    0 -0.16074511022E+02 -0.16597316734E+02  0.12488012016E+03  0.12699962692E+03  0.00000000000E+00 0. -1.
         13    1    1    2    0    0  0.16074511022E+02  0.16597316734E+02  0.12752403574E+03  0.12960031064E+03  0.00000000000E+00 0.  1.
<mgrwt>
<rscale>  0 0.46213310E+02</rscale>
<asrwt>0</asrwt>
<pdfrwt beam="1">  1        2 0.39154137E-01 0.46213310E+02</pdfrwt>
<pdfrwt beam="2">  1       -2 0.32275264E-03 0.46213310E+02</pdfrwt>
<totfact> 0.97136301E+05</totfact>
</mgrwt>
</event>
<event>
 5    1  0.1247456E+001  0.9320870E+02  0.7546771E-02  0.1295262E+00
          1   -1    0    0  501    0  0.00000000000E+00  0.00000000000E+00  0.47273581049E+02  0.47273581049E+02  0.00000000000E+00 0. -1.
         -1   -1    0    0    0  501 -0.00000000000E+00 -0.00000000000E+00 -0.45944592202E+02  0.45944592202E+02  0.00000000000E+00 0.  1.
         23    2    1    2    0    0  0.00000000000E+00  0.00000000000E+00  0.13289888472E+01  0.93218173250E+02  0.93208699233E+02 0.  0.
        -11    1    3    3    0    0 -0.31953194947E+02 -0.10672241759E+02  0.32871214572E+02  0.47068250009E+02  0.00000000000E+00 0. -1.
         11    1    3    3    0    0  0.31953194947E+02  0.10672241759E+02 -0.31542225725E+02  0.46149923241E+02  0.00000000000E+00 0.  1.
<mgrwt>
<rscale>  0 0.93208699E+02</rscale>
<asrwt>0</asrwt>
<pdfrwt beam="1">  1        1 0.72728587E-02 0.93208699E+02</pdfrwt>
<pdfrwt beam="2">  1       -1 0.70683988E-02 0.93208699E+02</pdfrwt>
<totfact> 0.87394478E+04</totfact>
</mgrwt>
</event>
<event>
 5    1  0.1247456E+001  0.8839631E+02  0.7546771E-02  0.1306782E+00
          2   -1    0    0  501    0  0.00000000000E+00  0.00000000000E+00  0.86248705452E+02  0.86248705452E+02  0.00000000000E+00 0. -1.
         -2   -1    0    0    0  501 -0.00000000000E+00 -0.00000000000E+00 -0.22649347902E+02  0.22649347902E+02  0.00000000000E+00 0.  1.
         23    2    1    2    0    0  0.00000000000E+00  0.00000000000E+00  0.63599357550E+02  0.10889805335E+03  0.88396310689E+02 0.  0.
        -13    1    3    3    0    0  0.14227172207E+02  0.22558730945E+02  0.75218314594E+02  0.79806664015E+02  0.00000000000E+00 0. -1.
         13    1    3    3    0    0 -0.14227172207E+02 -0.22558730945E+02 -0.11618957044E+02  0.29091389338E+02  0.00000000000E+00 0.  1.
<mgrwt>
<rscale>  0 0.88396311E+02</rscale>
<asrwt>0</asrwt>
<pdfrwt beam="1">  1        2 0.13269031E-01 0.88396311E+02</pdfrwt>
<pdfrwt beam="2">  1       -2 0.34845151E-02 0.88396311E+02</pdfrwt>
<totfact> 0.12785910E+05</totfact>
</mgrwt>
</event>
<event>
 5    1  0.1247456E+001  0.9099658E+02  0.7546771E-02  0.1300456E+00
          2   -1    0    0  501    0  0.00000000000E+00  0.00000000000E+00  0.36361383285E+02  0.36361383285E+02  0.00000000000E+00 0. -1.
         -2   -1    0    0    0  501 -0.00000000000E+00 -0.00000000000E+00 -0.56931120832E+02  0.56931120832E+02  0.00000000000E+00 0.  1.
         23    2    1    2    0    0  0.00000000000E+00  0.00000000000E+00 -0.20569737546E+02  0.93292504117E+02  0.90996578077E+02 0.  0.
        -13    1    3    3    0    0 -0.51690670120E+01  0.30957379757E+02 -0.44055540455E+02  0.54092229201E+02  0.00000000000E+00 0.  1.
         13    1    3    3    0    0  0.51690670120E+01 -0.30957379757E+02  0.23485802909E+02  0.39200274916E+02  0.00000000000E+00 0. -1.
<mgrwt>
<rscale>  0 0.90996578E+02</rscale>
<asrwt>0</asrwt>
<pdfrwt beam="1">  1        2 0.55940589E-02 0.90996578E+02</pdfrwt>
<pdfrwt beam="2">  1       -2 0.87586340E-02 0.90996578E+02</pdfrwt>
<totfact> 0.93597833E+04</totfact>
</mgrwt>
</event>
<event>
 5    1  0.1247456E+001  0.9383141E+02  0.7546771E-02  0.1293830E+00
          1   -1    0    0  501    0  0.00000000000E+00  0.00000000000E+00  0.74771621522E+02  0.74771621522E+02  0.00000000000E+00 0. -1.
         -1   -1    0    0    0  501 -0.00000000000E+00 -0.00000000000E+00 -0.29437418361E+02  0.29437418361E+02  0.00000000000E+00 0.  1.
         23    2    1    2    0    0  0.00000000000E+00  0.00000000000E+00  0.45334203161E+02  0.10420903988E+03  0.93831412742E+02 0.  0.
        -11    1    3    3    0    0 -0.10194138682E+01  0.45133222329E+02  0.36847865173E+02  0.58273597197E+02  0.00000000000E+00 0. -1.
         11    1    3    3    0    0  0.10194138682E+01 -0.45133222329E+02  0.84863379881E+01  0.45935442687E+02  0.00000000000E+00 0.  1.
<mgrwt>
<rscale>  0 0.93831413E+02</rscale>
<asrwt>0</asrwt>
<pdfrwt beam="1">  1        1 0.11503326E-01 0.93831413E+02</pdfrwt>
<pdfrwt beam="2">  1       -1 0.45288336E-02 0.93831413E+02</pdfrwt>
<totfact> 0.92091893E+04</totfact>
</mgrwt>
</event>
<event>
 5    1  0.1247456E+001  0.9087995E+02  0.7546771E-02  0.1300735E+00
          1   -1    0    0  501    0  0.00000000000E+00  0.00000000000E+00  0.36175054761E+02  0.36175054761E+02  0.00000000000E+00 0. -1.
         -1   -1    0    0    0  501 -0.00000000000E+00 -0.00000000000E+00 -0.57077768904E+02  0.57077768904E+02  0.00000000000E+00 0.  1.
         23    2    1    2    0    0  0.00000000000E+00  0.00000000000E+00 -0.20902714143E+02  0.93252823665E+02  0.90879951930E+02 0.  0.
        -13    1    3    3    0    0 -0.17384466222E+02 -0.37300480934E+02 -0.30222178747E+02  0.51058061380E+02  0.00000000000E+00 0.  1.
         13    1    3    3    0    0  0.17384466222E+02  0.37300480934E+02  0.93194646039E+01  0.42194762284E+02  0.00000000000E+00 0. -1.
<mgrwt>
<rscale>  0 0.90879952E+02</rscale>
<asrwt>0</asrwt>
<pdfrwt beam="1">  1        1 0.55653931E-02 0.90879952E+02</pdfrwt>
<pdfrwt beam="2">  1       -1 0.87811952E-02 0.90879952E+02</pdfrwt>
<totfact> 0.90109929E+04</totfact>
</mgrwt>
</event>
<event>
 5    1  0.1247456E+001  0.9134609E+02  0.7546771E-02  0.1299624E+00
         -3   -1    0    0    0  501 -0.00000000000E+00  0.00000000000E+00  0.10808640087E+03  0.10808640087E+03  0.00000000000E+00 0.  1.
          3   -1    0    0  501    0  0.00000000000E+00 -0.00000000000E+00 -0.19299624784E+02  0.19299624784E+02  0.00000000000E+00 0. -1.
         23    2    1    2    0    0  0.00000000000E+00  0.00000000000E+00  0.88786776089E+02  0.12738602566E+03  0.91346088719E+02 0.  0.
        -11    1    3    3    0    0 -0.32120090932E+02  0.16233298349E+02  0.51770516233E+01  0.36359621564E+02  0.00000000000E+00 0.  1.
         11    1    3    3    0    0  0.32120090932E+02 -0.16233298349E+02  0.83609724466E+02  0.91026404092E+02  0.00000000000E+00 0. -1.
<mgrwt>
<rscale>  0 0.91346089E+02</rscale>
<asrwt>0</asrwt>
<pdfrwt beam="2">  1        3 0.29691731E-02 0.91346089E+02</pdfrwt>
<pdfrwt beam="1">  1       -3 0.16628677E-01 0.91346089E+02</pdfrwt>
<totfact> 0.32585568E+04</totfact>
</mgrwt>
</event>
<event>
 5    1  0.1247456E+001  0.9211080E+02  0.7546771E-02  0.1297819E+00
         -1   -1    0    0    0  501 -0.00000000000E+00  0.00000000000E+00  0.51784591261E+01  0.51784591261E+01  0.00000000000E+00 0.  1.
          1   -1    0    0  501    0  0.00000000000E+00 -0.00000000000E+00 -0.40960061015E+03  0.40960061015E+03  0.00000000000E+00 0. -1.
         23    2    1    2    0    0  0.00000000000E+00  0.00000000000E+00 -0.40442215102E+03  0.41477906927E+03  0.92110803224E+02 0.  0.
        -11    1    3    3    0    0 -0.37027608486E+02 -0.27233760771E+02 -0.21524542753E+03  0.22009842250E+03  0.00000000000E+00 0.  1.
         11    1    3    3    0    0  0.37027608486E+02  0.27233760771E+02 -0.18917672349E+03  0.19468064677E+03  0.00000000000E+00 0. -1.
<mgrwt>
<rscale>  0 0.92110803E+02</rscale>
<asrwt>0</asrwt>
<pdfrwt beam="2">  1        1 0.63015478E-01 0.92110803E+02</pdfrwt>
<pdfrwt beam="1">  1       -1 0.79668602E-03 0.92110803E+02</pdfrwt>
<totfact> 0.13179262E+05</totfact>
</mgrwt>
</event>
<event>
 5    1  0.1247456E+001  0.9010161E+02  0.7546771E-02  0.1302606E+00
         -1   -1    0    0    0  501 -0.00000000000E+00  0.00000000000E+00  0.23429793187E+02  0.23429793187E+02  0.00000000000E+00 0.  1.
          1   -1    0    0  501    0  0.00000000000E+00 -0.00000000000E+00 -0.86623678544E+02  0.86623678544E+02  0.00000000000E+00 0. -1.
         23    2    1    2    0    0  0.00000000000E+00  0.00000000000E+00 -0.63193885357E+02  0.11005347173E+03  0.90101606498E+02 0.  0.
        -11    1    3    3    0    0 -0.39244579229E+02  0.14153934926E+02 -0.10828771078E+02  0.43101428698E+02  0.00000000000E+00 0.  1.
         11    1    3    3    0    0  0.39244579229E+02 -0.14153934926E+02 -0.52365114279E+02  0.66952043033E+02  0.00000000000E+00 0. -1.
<mgrwt>
<rscale>  0 0.90101606E+02</rscale>
<asrwt>0</asrwt>
<pdfrwt beam="2">  1        1 0.13326720E-01 0.90101606E+02</pdfrwt>
<pdfrwt beam="1">  1       -1 0.36045836E-02 0.90101606E+02</pdfrwt>
<totfact> 0.10539145E+05</totfact>
</mgrwt>
</event>
<event>
 5    1  0.1247456E+001  0.8867898E+02  0.7546771E-02  0.1306083E+00
          1   -1    0    0  501    0  0.00000000000E+00  0.00000000000E+00  0.81526346887E+01  0.81526346887E+01  0.00000000000E+00 0. -1.
         -1   -1    0    0    0  501 -0.00000000000E+00 -0.00000000000E+00 -0.24114784065E+03  0.24114784065E+03  0.00000000000E+00 0.  1.
         23    2    1    2    0    0  0.00000000000E+00  0.00000000000E+00 -0.23299520597E+03  0.24930047534E+03  0.88678977234E+02 0.  0.
        -11    1    3    3    0    0  0.78654448246E+01 -0.33530199907E+02 -0.19500456476E+03  0.19802252348E+03  0.00000000000E+00 0.  1.
         11    1    3    3    0    0 -0.78654448246E+01  0.33530199907E+02 -0.37990641208E+02  0.51277951866E+02  0.00000000000E+00 0. -1.
<mgrwt>
<rscale>  0 0.88678977E+02</rscale>
<asrwt>0</asrwt>
<pdfrwt beam="1">  1        1 0.12542515E-02 0.88678977E+02</pdfrwt>
<pdfrwt beam="2">  1       -1 0.37099668E-01 0.88678977E+02</pdfrwt>
<totfact> 0.70471467E+04</totfact>
</mgrwt>
</event>
<event>
 5    1  0.1247456E+001  0.9115887E+02  0.7546771E-02  0.1300069E+00
          1   -1    0    0  501    0  0.00000000000E+00  0.00000000000E+00  0.28535300176E+02  0.28535300176E+02  0.00000000000E+00 0.  1.
         -1   -1    0    0    0  501 -0.00000000000E+00 -0.00000000000E+00 -0.72804024106E+02  0.72804024106E+02  0.00000000000E+00 0. -1.
         23    2    1    2    0    0  0.00000000000E+00  0.00000000000E+00 -0.44268723930E+02  0.10133932428E+03  0.91158865326E+02 0.  0.
        -13    1    3    3    0    0  0.40243583720E+02 -0.11694952427E+02 -0.22118372442E+01  0.41966774559E+02  0.00000000000E+00 0.  1.
         13    1    3    3    0    0 -0.40243583720E+02  0.11694952427E+02 -0.42056886686E+02  0.59372549723E+02  0.00000000000E+00 0. -1.
<mgrwt>
<rscale>  0 0.91158865E+02</rscale>
<asrwt>0</asrwt>
<pdfrwt beam="1">  1        1 0.43900462E-02 0.91158865E+02</pdfrwt>
<pdfrwt beam="2">  1       -1 0.11200619E-01 0.91158865E+02</pdfrwt>
<totfact> 0.86031371E+04</totfact>
</mgrwt>
</event>
<event>
 5    1  0.1247456E+001  0.8754233E+02  0.7546771E-02  0.1308915E+00
         -1   -1    0    0    0  501 -0.00000000000E+00  0.00000000000E+00  0.67921046833E+02  0.67921046833E+02  0.00000000000E+00 0.  1.
          1   -1    0    0  501    0  0.00000000000E+00 -0.00000000000E+00 -0.28207969528E+02  0.28207969528E+02  0.00000000000E+00 0. -1.
         23    2    1    2    0    0  0.00000000000E+00  0.00000000000E+00  0.39713077305E+02  0.96129016361E+02  0.87542328490E+02 0.  0.
        -13    1    3    3    0    0 -0.18545812742E+02 -0.12489632970E+02  0.61176933287E+02  0.65134900540E+02  0.00000000000E+00 0.  1.
         13    1    3    3    0    0  0.18545812742E+02  0.12489632970E+02 -0.21463855981E+02  0.30994115821E+02  0.00000000000E+00 0. -1.
<mgrwt>
<rscale>  0 0.87542328E+02</rscale>
<asrwt>0</asrwt>
<pdfrwt beam="2">  1        1 0.43396876E-02 0.87542328E+02</pdfrwt>
<pdfrwt beam="1">  1       -1 0.10449392E-01 0.87542328E+02</pdfrwt>
<totfact> 0.96440785E+04</totfact>
</mgrwt>
</event>
<event>
 5    1  0.1247456E+001  0.9070667E+02  0.7546771E-02  0.1301149E+00
         -1   -1    0    0    0  501 -0.00000000000E+00  0.00000000000E+00  0.76922450455E+02  0.76922450455E+02  0.00000000000E+00 0.  1.
          1   -1    0    0  501    0  0.00000000000E+00 -0.00000000000E+00 -0.26740241023E+02  0.26740241023E+02  0.00000000000E+00 0. -1.
         23    2    1    2    0    0  0.00000000000E+00  0.00000000000E+00  0.50182209432E+02  0.10366269148E+03  0.90706667125E+02 0.  0.
        -13    1    3    3    0    0  0.37617172412E+01 -0.12390051534E+02  0.74765117795E+02  0.75878104434E+02  0.00000000000E+00 0.  1.
         13    1    3    3    0    0 -0.37617172412E+01  0.12390051534E+02 -0.24582908363E+02  0.27784587044E+02  0.00000000000E+00 0. -1.
<mgrwt>
<rscale>  0 0.90706667E+02</rscale>
<asrwt>0</asrwt>
<pdfrwt beam="2">  1        1 0.41138833E-02 0.90706667E+02</pdfrwt>
<pdfrwt beam="1">  1       -1 0.11834223E-01 0.90706667E+02</pdfrwt>
<totfact> 0.86343351E+04</totfact>
</mgrwt>
</event>
<event>
 4    1  0.1247456E+001  0.1394968E+03  0.7546771E-02  0.1214008E+00
          1   -1    0    0  501    0  0.00000000000E+00  0.00000000000E+00  0.28553423036E+03  0.28553423036E+03  0.00000000000E+00 0. -1.
         -1   -1    0    0    0  501 -0.00000000000E+00 -0.00000000000E+00 -0.17037666762E+02  0.17037666762E+02  0.00000000000E+00 0.  1.
        -11    1    1    2    0    0  0.56603239567E+02 -0.79799057744E+00  0.45868226861E+02  0.72859163829E+02  0.00000000000E+00 0.  1.
         11    1    1    2    0    0 -0.56603239567E+02  0.79799057744E+00  0.22262833674E+03  0.22971273329E+03  0.00000000000E+00 0. -1.
<mgrwt>
<rscale>  0 0.13949677E+03</rscale>
<asrwt>0</asrwt>
<pdfrwt beam="1">  1        1 0.43928340E-01 0.13949677E+03</pdfrwt>
<pdfrwt beam="2">  1       -1 0.26211797E-02 0.13949677E+03</pdfrwt>
<totfact> 0.39768243E+04</totfact>
</mgrwt>
</event>
<event>
 5    1  0.1247456E+001  0.9122124E+02  0.7546771E-02  0.1299921E+00
          2   -1    0    0  501    0  0.00000000000E+00  0.00000000000E+00  0.14826462354E+03  0.14826462354E+03  0.00000000000E+00 0. -1.
         -2   -1    0    0    0  501 -0.00000000000E+00 -0.00000000000E+00 -0.14031188464E+02  0.14031188464E+02  0.00000000000E+00 0.  1.
         23    2    1    2    0    0  0.00000000000E+00  0.00000000000E+00  0.13423343507E+03  0.16229581200E+03  0.91221244794E+02 0.  0.
        -13    1    3    3    0    0  0.66355056762E+01  0.35037927054E+02  0.11770962397E+03  0.12299285281E+03  0.00000000000E+00 0. -1.
         13    1    3    3    0    0 -0.66355056762E+01 -0.35037927054E+02  0.16523811109E+02  0.39302959194E+02  0.00000000000E+00 0.  1.
<mgrwt>
<rscale>  0 0.91221245E+02</rscale>
<asrwt>0</asrwt>
<pdfrwt beam="1">  1        2 0.22809941E-01 0.91221245E+02</pdfrwt>
<pdfrwt beam="2">  1       -2 0.21586445E-02 0.91221245E+02</pdfrwt>
<totfact> 0.13907397E+05</totfact>
</mgrwt>
</event>
<event>
 5    1  0.1247456E+001  0.8791033E+02  0.7546771E-02  0.1307993E+00
          1   -1    0    0  501    0  0.00000000000E+00  0.00000000000E+00  0.80524900737E+02  0.80524900737E+02  0.00000000000E+00 0. -1.
         -1   -1    0    0    0  501 -0.00000000000E+00 -0.00000000000E+00 -0.23993280438E+02  0.23993280438E+02  0.00000000000E+00 0.  1.
         23    2    1    2    0    0  0.00000000000E+00  0.00000000000E+00  0.56531620299E+02  0.10451818117E+03  0.87910329896E+02 0.  0.
        -13    1    3    3    0    0  0.11465373184E+02  0.28283131496E+02  0.65875222929E+02  0.72601207327E+02  0.00000000000E+00 0. -1.
         13    1    3    3    0    0 -0.11465373184E+02 -0.28283131496E+02 -0.93436026297E+01  0.31916973847E+02  0.00000000000E+00 0.  1.
<mgrwt>
<rscale>  0 0.87910330E+02</rscale>
<asrwt>0</asrwt>
<pdfrwt beam="1">  1        1 0.12388446E-01 0.87910330E+02</pdfrwt>
<pdfrwt beam="2">  1       -1 0.36912739E-02 0.87910330E+02</pdfrwt>
<totfact> 0.11143071E+05</totfact>
</mgrwt>
</event>
<event>
 5    1  0.1247456E+001  0.9104648E+02  0.7546771E-02  0.1300337E+00
          4   -1    0    0  501    0  0.00000000000E+00  0.00000000000E+00  0.12895831938E+02  0.12895831938E+02  0.00000000000E+00 0. -1.
         -4   -1    0    0    0  501 -0.00000000000E+00 -0.00000000000E+00 -0.16070041306E+03  0.16070041306E+03  0.00000000000E+00 0.  1.
         23    2    1    2    0    0  0.00000000000E+00  0.00000000000E+00 -0.14780458112E+03  0.17359624499E+03  0.91046483054E+02 0.  0.
        -13    1    3    3    0    0  0.37991066248E+02  0.25080457353E+02 -0.74136303220E+02  0.86997367263E+02  0.00000000000E+00 0.  1.
         13    1    3    3    0    0 -0.37991066248E+02 -0.25080457353E+02 -0.73668277899E+02  0.86598877731E+02  0.00000000000E+00 0. -1.
<mgrwt>
<rscale>  0 0.91046483E+02</rscale>
<asrwt>0</asrwt>
<pdfrwt beam="1">  1        4 0.19839742E-02 0.91046483E+02</pdfrwt>
<pdfrwt beam="2">  1       -4 0.24723140E-01 0.91046483E+02</pdfrwt>
<totfact> 0.22628472E+04</totfact>
</mgrwt>
</event>
<event>
 5    1  0.1247456E+001  0.7561770E+02  0.7546771E-02  0.1341969E+00
         -2   -1    0    0    0  501 -0.00000000000E+00  0.00000000000E+00  0.52193777040E+02  0.52193777040E+02  0.00000000000E+00 0.  1.
          2   -1    0    0  501    0  0.00000000000E+00 -0.00000000000E+00 -0.27388498554E+02  0.27388498554E+02  0.00000000000E+00 0. -1.
         23    2    1    2    0    0  0.00000000000E+00  0.00000000000E+00  0.24805278486E+02  0.79582275594E+02  0.75617701287E+02 0.  0.
        -11    1    3    3    0    0  0.12939071552E+02  0.35253242878E+02  0.77793140143E+01  0.38350077348E+02  0.00000000000E+00 0.  1.
         11    1    3    3    0    0 -0.12939071552E+02 -0.35253242878E+02  0.17025964472E+02  0.41232198246E+02  0.00000000000E+00 0. -1.
<mgrwt>
<rscale>  0 0.75617701E+02</rscale>
<asrwt>0</asrwt>
<pdfrwt beam="2">  1        2 0.42136152E-02 0.75617701E+02</pdfrwt>
<pdfrwt beam="1">  1       -2 0.80298118E-02 0.75617701E+02</pdfrwt>
<totfact> 0.14916956E+05</totfact>
</mgrwt>
</event>
<event>
 5    1  0.1247456E+001  0.9096214E+02  0.7546771E-02  0.1300538E+00
         -4   -1    0    0    0  501 -0.00000000000E+00  0.00000000000E+00  0.19407433321E+02  0.19407433321E+02  0.00000000000E+00 0. -1.
          4   -1    0    0  501    0  0.00000000000E+00 -0.00000000000E+00 -0.10658429047E+03  0.10658429047E+03  0.00000000000E+00 0.  1.
         23    2    1    2    0    0  0.00000000000E+00  0.00000000000E+00 -0.87176857149E+02  0.12599172379E+03  0.90962135208E+02 0.  0.
        -11    1    3    3    0    0 -0.24618492479E+02  0.14150505023E+02 -0.92797933323E+02  0.97045161617E+02  0.00000000000E+00 0.  1.
         11    1    3    3    0    0  0.24618492479E+02 -0.14150505023E+02  0.56210761741E+01  0.28946562174E+02  0.00000000000E+00 0. -1.
<mgrwt>
<rscale>  0 0.90962135E+02</rscale>
<asrwt>0</asrwt>
<pdfrwt beam="2">  1        4 0.16397583E-01 0.90962135E+02</pdfrwt>
<pdfrwt beam="1">  1       -4 0.29857590E-02 0.90962135E+02</pdfrwt>
<totfact> 0.25096731E+04</totfact>
</mgrwt>
</event>
<event>
 5    1  0.1247456E+001  0.8921344E+02  0.7546771E-02  0.1304768E+00
         -2   -1    0    0    0  501 -0.00000000000E+00  0.00000000000E+00  0.25690342977E+02  0.25690342977E+02  0.00000000000E+00 0.  1.
          2   -1    0    0  501    0  0.00000000000E+00 -0.00000000000E+00 -0.77451653690E+02  0.77451653690E+02  0.00000000000E+00 0. -1.
         23    2    1    2    0    0  0.00000000000E+00  0.00000000000E+00 -0.51761310713E+02  0.10314199667E+03  0.89213441755E+02 0.  0.
        -11    1    3    3    0    0  0.39194920026E+02 -0.21002620971E+02 -0.21808250455E+02  0.49527281688E+02  0.00000000000E+00 0. -1.
         11    1    3    3    0    0 -0.39194920026E+02  0.21002620971E+02 -0.29953060258E+02  0.53614714979E+02  0.00000000000E+00 0.  1.
<mgrwt>
<rscale>  0 0.89213442E+02</rscale>
<asrwt>0</asrwt>
<pdfrwt beam="2">  1        2 0.11915639E-01 0.89213442E+02</pdfrwt>
<pdfrwt beam="1">  1       -2 0.39523605E-02 0.89213442E+02</pdfrwt>
<totfact> 0.12089149E+05</totfact>
</mgrwt>
</event>
<event>
 5    1  0.1247456E+001  0.9203781E+02  0.7546771E-02  0.1297991E+00
         -2   -1    0    0    0  501 -0.00000000000E+00  0.00000000000E+00  0.16998325532E+02  0.16998325532E+02  0.00000000000E+00 0.  1.
          2   -1    0    0  501    0  0.00000000000E+00 -0.00000000000E+00 -0.12458519364E+03  0.12458519364E+03  0.00000000000E+00 0. -1.
         23    2    1    2    0    0  0.00000000000E+00  0.00000000000E+00 -0.10758686811E+03  0.14158351917E+03  0.92037811316E+02 0.  0.
        -13    1    3    3    0    0  0.15302529495E+02  0.39784049528E+02 -0.27113389933E+02  0.50518055381E+02  0.00000000000E+00 0.  1.
         13    1    3    3    0    0 -0.15302529495E+02 -0.39784049528E+02 -0.80473478178E+02  0.91065463794E+02  0.00000000000E+00 0. -1.
<mgrwt>
<rscale>  0 0.92037811E+02</rscale>
<asrwt>0</asrwt>
<pdfrwt beam="2">  1        2 0.19166953E-01 0.92037811E+02</pdfrwt>
<pdfrwt beam="1">  1       -2 0.26151270E-02 0.92037811E+02</pdfrwt>
<totfact> 0.12810829E+05</totfact>
</mgrwt>
</event>
<event>
 5    1  0.1247456E+001  0.9268190E+02  0.7546771E-02  0.1296484E+00
          1   -1    0    0  501    0  0.00000000000E+00  0.00000000000E+00  0.15337215791E+03  0.15337215791E+03  0.00000000000E+00 0. -1.
         -1   -1    0    0    0  501 -0.00000000000E+00 -0.00000000000E+00 -0.14001782514E+02  0.14001782514E+02  0.00000000000E+00 0.  1.
         23    2    1    2    0    0  0.00000000000E+00  0.00000000000E+00  0.13937037540E+03  0.16737394042E+03  0.92681898962E+02 0.  0.
        -11    1    3    3    0    0 -0.15352932587E+02  0.22813539686E+02  0.13704570467E+03  0.13977730610E+03  0.00000000000E+00 0. -1.
         11    1    3    3    0    0  0.15352932587E+02 -0.22813539686E+02  0.23246707252E+01  0.27596634324E+02  0.00000000000E+00 0.  1.
<mgrwt>
<rscale>  0 0.92681899E+02</rscale>
<asrwt>0</asrwt>
<pdfrwt beam="1">  1        1 0.23595716E-01 0.92681899E+02</pdfrwt>
<pdfrwt beam="2">  1       -1 0.21541205E-02 0.92681899E+02</pdfrwt>
<totfact> 0.10772201E+05</totfact>
</mgrwt>
</event>
<event>
 5    1  0.1247456E+001  0.9201781E+02  0.7546771E-02  0.1298038E+00
         -4   -1    0    0    0  501 -0.00000000000E+00  0.00000000000E+00  0.20409901328E+02  0.20409901328E+02  0.00000000000E+00 0.  1.
          4   -1    0    0  501    0  0.00000000000E+00 -0.00000000000E+00 -0.10371530709E+03  0.10371530709E+03  0.00000000000E+00 0. -1.
         23    2    1    2    0    0  0.00000000000E+00  0.00000000000E+00 -0.83305405763E+02  0.12412520842E+03  0.92017806623E+02 0.  0.
        -11    1    3    3    0    0 -0.21594815555E+02  0.31206010622E+02 -0.65633029321E+01  0.38512700544E+02  0.00000000000E+00 0.  1.
         11    1    3    3    0    0  0.21594815555E+02 -0.31206010622E+02 -0.76742102831E+02  0.85612507875E+02  0.00000000000E+00 0. -1.
<mgrwt>
<rscale>  0 0.92017807E+02</rscale>
<asrwt>0</asrwt>
<pdfrwt beam="2">  1        4 0.15956201E-01 0.92017807E+02</pdfrwt>
<pdfrwt beam="1">  1       -4 0.31399848E-02 0.92017807E+02</pdfrwt>
<totfact> 0.24426209E+04</totfact>
</mgrwt>
</event>
<event>
 5    1  0.1247456E+001  0.9141087E+02  0.7546771E-02  0.1299471E+00
         -2   -1    0    0    0  501 -0.00000000000E+00  0.00000000000E+00  0.22629067395E+02  0.22629067395E+02  0.00000000000E+00 0.  1.
          2   -1    0    0  501    0  0.00000000000E+00 -0.00000000000E+00 -0.92314312591E+02  0.92314312591E+02  0.00000000000E+00 0. -1.
         23    2    1    2    0    0  0.00000000000E+00  0.00000000000E+00 -0.69685245196E+02  0.11494337999E+03  0.91410870277E+02 0.  0.
        -11    1    3    3    0    0  0.34928250982E+02  0.28958267606E+02 -0.27906993390E+02  0.53266915242E+02  0.00000000000E+00 0.  1.
         11    1    3    3    0    0 -0.34928250982E+02 -0.28958267606E+02 -0.41778251807E+02  0.61676464745E+02  0.00000000000E+00 0. -1.
<mgrwt>
<rscale>  0 0.91410870E+02</rscale>
<asrwt>0</asrwt>
<pdfrwt beam="2">  1        2 0.14202202E-01 0.91410870E+02</pdfrwt>
<pdfrwt beam="1">  1       -2 0.34813949E-02 0.91410870E+02</pdfrwt>
<totfact> 0.11891136E+05</totfact>
</mgrwt>
</event>
<event>
 5    1  0.1247456E+001  0.1133042E+03  0.7546771E-02  0.1254571E+00
         -1   -1    0    0    0  501 -0.00000000000E+00  0.00000000000E+00  0.14198200148E+03  0.14198200148E+03  0.00000000000E+00 0.  1.
          1   -1    0    0  501    0  0.00000000000E+00 -0.00000000000E+00 -0.22604680441E+02  0.22604680441E+02  0.00000000000E+00 0. -1.
         23    2    1    2    0    0  0.00000000000E+00  0.00000000000E+00  0.11937732104E+03  0.16458668192E+03  0.11330415300E+03 0.  0.
        -13    1    3    3    0    0  0.25687824614E+02 -0.45552417473E+02  0.91333239528E+02  0.10524565413E+03  0.00000000000E+00 0.  1.
         13    1    3    3    0    0 -0.25687824614E+02  0.45552417473E+02  0.28044081507E+02  0.59341027785E+02  0.00000000000E+00 0. -1.
<mgrwt>
<rscale>  0 0.11330415E+03</rscale>
<asrwt>0</asrwt>
<pdfrwt beam="2">  1        1 0.34776433E-02 0.11330415E+03</pdfrwt>
<pdfrwt beam="1">  1       -1 0.21843384E-01 0.11330415E+03</pdfrwt>
<totfact> 0.42998871E+04</totfact>
</mgrwt>
</event>
<event>
 5    1  0.1247456E+001  0.9080307E+02  0.7546771E-02  0.1300919E+00
          1   -1    0    0  501    0  0.00000000000E+00  0.00000000000E+00  0.25043656551E+02  0.25043656551E+02  0.00000000000E+00 0. -1.
         -1   -1    0    0    0  501 -0.00000000000E+00 -0.00000000000E+00 -0.82308245706E+02  0.82308245706E+02  0.00000000000E+00 0.  1.
         23    2    1    2    0    0  0.00000000000E+00  0.00000000000E+00 -0.57264589155E+02  0.10735190226E+03  0.90803071244E+02 0.  0.
        -13    1    3    3    0    0 -0.85175895610E+01  0.44589089617E+02 -0.27745062070E+02  0.53202675817E+02  0.00000000000E+00 0.  1.
         13    1    3    3    0    0  0.85175895610E+01 -0.44589089617E+02 -0.29519527084E+02  0.54149226441E+02  0.00000000000E+00 0. -1.
<mgrwt>
<rscale>  0 0.90803071E+02</rscale>
<asrwt>0</asrwt>
<pdfrwt beam="1">  1        1 0.38528702E-02 0.90803071E+02</pdfrwt>
<pdfrwt beam="2">  1       -1 0.12662807E-01 0.90803071E+02</pdfrwt>
<totfact> 0.85133316E+04</totfact>
</mgrwt>
</event>
<event>
 5    1  0.1247456E+001  0.8885769E+02  0.7546771E-02  0.1305642E+00
          3   -1    0    0  501    0  0.00000000000E+00  0.00000000000E+00  0.30171490725E+02  0.30171490725E+02  0.00000000000E+00 0. -1.
         -3   -1    0    0    0  501 -0.00000000000E+00 -0.00000000000E+00 -0.65423423813E+02  0.65423423813E+02  0.00000000000E+00 0.  1.
         23    2    1    2    0    0  0.00000000000E+00  0.00000000000E+00 -0.35251933087E+02  0.95594914538E+02  0.88857689027E+02 0.  0.
        -13    1    3    3    0    0 -0.13597313983E+02 -0.12972528232E+02 -0.60936908383E+02  0.63768959844E+02  0.00000000000E+00 0.  1.
         13    1    3    3    0    0  0.13597313983E+02  0.12972528232E+02  0.25684975296E+02  0.31825954694E+02  0.00000000000E+00 0. -1.
<mgrwt>
<rscale>  0 0.88857689E+02</rscale>
<asrwt>0</asrwt>
<pdfrwt beam="1">  1        3 0.46417678E-02 0.88857689E+02</pdfrwt>
<pdfrwt beam="2">  1       -3 0.10065142E-01 0.88857689E+02</pdfrwt>
<totfact> 0.37538205E+04</totfact>
</mgrwt>
</event>
<event>
 5    1  0.1247456E+001  0.9117932E+02  0.7546771E-02  0.1300021E+00
          1   -1    0    0  501    0  0.00000000000E+00  0.00000000000E+00  0.13185712391E+03  0.13185712391E+03  0.00000000000E+00 0. -1.
         -1   -1    0    0    0  501 -0.00000000000E+00 -0.00000000000E+00 -0.15762646680E+02  0.15762646680E+02  0.00000000000E+00 0.  1.
         23    2    1    2    0    0  0.00000000000E+00  0.00000000000E+00  0.11609447723E+03  0.14761977059E+03  0.91179323455E+02 0.  0.
        -11    1    3    3    0    0 -0.24655509878E+02 -0.36713455016E+02  0.40117513427E+02  0.59709185475E+02  0.00000000000E+00 0. -1.
         11    1    3    3    0    0  0.24655509878E+02  0.36713455016E+02  0.75976963805E+02  0.87910585117E+02  0.00000000000E+00 0.  1.
<mgrwt>
<rscale>  0 0.91179323E+02</rscale>
<asrwt>0</asrwt>
<pdfrwt beam="1">  1        1 0.20285711E-01 0.91179323E+02</pdfrwt>
<pdfrwt beam="2">  1       -1 0.24250226E-02 0.91179323E+02</pdfrwt>
<totfact> 0.10953556E+05</totfact>
</mgrwt>
</event>
<event>
 5    1  0.1247456E+001  0.9503104E+02  0.7546771E-02  0.1291106E+00
         -1   -1    0    0    0  501 -0.00000000000E+00  0.00000000000E+00  0.61330731936E+02  0.61330731936E+02  0.00000000000E+00 0.  1.
          1   -1    0    0  501    0  0.00000000000E+00 -0.00000000000E+00 -0.36812287027E+02  0.36812287027E+02  0.00000000000E+00 0. -1.
         23    2    1    2    0    0  0.00000000000E+00  0.00000000000E+00  0.24518444909E+02  0.98143018963E+02  0.95031037195E+02 0.  0.
        -13    1    3    3    0    0  0.36111814343E+02 -0.65086763714E+01  0.43435500967E+02  0.56860080439E+02  0.00000000000E+00 0.  1.
         13    1    3    3    0    0 -0.36111814343E+02  0.65086763714E+01 -0.18917056058E+02  0.41282938524E+02  0.00000000000E+00 0. -1.
<mgrwt>
<rscale>  0 0.95031037E+02</rscale>
<asrwt>0</asrwt>
<pdfrwt beam="2">  1        1 0.56634288E-02 0.95031037E+02</pdfrwt>
<pdfrwt beam="1">  1       -1 0.94354972E-02 0.95031037E+02</pdfrwt>
<totfact> 0.79555266E+04</totfact>
</mgrwt>
</event>
<event>
 5    1  0.1247456E+001  0.7645425E+02  0.7546771E-02  0.1339426E+00
         -1   -1    0    0    0  501 -0.00000000000E+00  0.00000000000E+00  0.18626698024E+03  0.18626698024E+03  0.00000000000E+00 0.  1.
          1   -1    0    0  501    0  0.00000000000E+00 -0.00000000000E+00 -0.78452611976E+01  0.78452611976E+01  0.00000000000E+00 0. -1.
         23    2    1    2    0    0  0.00000000000E+00  0.00000000000E+00  0.17842171905E+03  0.19411224144E+03  0.76454250700E+02 0.  0.
        -13    1    3    3    0    0  0.25817430021E+02 -0.10572921381E+02  0.22858338485E+02  0.36067020916E+02  0.00000000000E+00 0. -1.
         13    1    3    3    0    0 -0.25817430021E+02  0.10572921381E+02  0.15556338056E+03  0.15804522053E+03  0.00000000000E+00 0.  1.
<mgrwt>
<rscale>  0 0.76454251E+02</rscale>
<asrwt>0</asrwt>
<pdfrwt beam="2">  1        1 0.12069634E-02 0.76454251E+02</pdfrwt>
<pdfrwt beam="1">  1       -1 0.28656455E-01 0.76454251E+02</pdfrwt>
<totfact> 0.11171047E+05</totfact>
</mgrwt>
</event>
<event>
 5    1  0.1247456E+001  0.8568789E+02  0.7546771E-02  0.1313643E+00
          2   -1    0    0  501    0  0.00000000000E+00  0.00000000000E+00  0.40200820197E+02  0.40200820197E+02  0.00000000000E+00 0.  1.
         -2   -1    0    0    0  501 -0.00000000000E+00 -0.00000000000E+00 -0.45660850358E+02  0.45660850358E+02  0.00000000000E+00 0. -1.
         23    2    1    2    0    0  0.00000000000E+00  0.00000000000E+00 -0.54600301617E+01  0.85861670555E+02  0.85687890283E+02 0.  0.
        -13    1    3    3    0    0 -0.64304770876E+00  0.12978743019E+02  0.38178538064E+02  0.40329419156E+02  0.00000000000E+00 0.  1.
         13    1    3    3    0    0  0.64304770876E+00 -0.12978743019E+02 -0.43638568226E+02  0.45532251400E+02  0.00000000000E+00 0. -1.
<mgrwt>
<rscale>  0 0.85687890E+02</rscale>
<asrwt>0</asrwt>
<pdfrwt beam="1">  1        2 0.61847416E-02 0.85687890E+02</pdfrwt>
<pdfrwt beam="2">  1       -2 0.70247462E-02 0.85687890E+02</pdfrwt>
<totfact> 0.11417305E+05</totfact>
</mgrwt>
</event>
<event>
 5    1  0.1247456E+001  0.9099167E+02  0.7546771E-02  0.1300468E+00
          1   -1    0    0  501    0  0.00000000000E+00  0.00000000000E+00  0.10809697418E+03  0.10809697418E+03  0.00000000000E+00 0. -1.
         -1   -1    0    0    0  501 -0.00000000000E+00 -0.00000000000E+00 -0.19148277677E+02  0.19148277677E+02  0.00000000000E+00 0.  1.
         23    2    1    2    0    0  0.00000000000E+00  0.00000000000E+00  0.88948696498E+02  0.12724525185E+03  0.90991667258E+02 0.  0.
        -13    1    3    3    0    0 -0.33386627078E+02  0.11593184088E+01  0.87664256287E+02  0.93813819436E+02  0.00000000000E+00 0. -1.
         13    1    3    3    0    0  0.33386627078E+02 -0.11593184088E+01  0.12844402111E+01  0.33431432417E+02  0.00000000000E+00 0.  1.
<mgrwt>
<rscale>  0 0.90991667E+02</rscale>
<asrwt>0</asrwt>
<pdfrwt beam="1">  1        1 0.16630303E-01 0.90991667E+02</pdfrwt>
<pdfrwt beam="2">  1       -1 0.29458889E-02 0.90991667E+02</pdfrwt>
<totfact> 0.10641281E+05</totfact>
</mgrwt>
</event>
<event>
 5    1  0.1247456E+001  0.8577623E+02  0.7546771E-02  0.1313415E+00
         -1   -1    0    0    0  501 -0.00000000000E+00  0.00000000000E+00  0.82936218453E+01  0.82936218453E+01  0.00000000000E+00 0.  1.
          1   -1    0    0  501    0  0.00000000000E+00 -0.00000000000E+00 -0.22178372268E+03  0.22178372268E+03  0.00000000000E+00 0. -1.
         23    2    1    2    0    0  0.00000000000E+00  0.00000000000E+00 -0.21349010084E+03  0.23007734453E+03  0.85776228114E+02 0.  0.
        -13    1    3    3    0    0  0.28484649376E+02  0.28315710265E+02 -0.66400264755E+02  0.77602511927E+02  0.00000000000E+00 0.  1.
         13    1    3    3    0    0 -0.28484649376E+02 -0.28315710265E+02 -0.14708983608E+03  0.15247483260E+03  0.00000000000E+00 0. -1.
<mgrwt>
<rscale>  0 0.85776228E+02</rscale>
<asrwt>0</asrwt>
<pdfrwt beam="2">  1        1 0.34120567E-01 0.85776228E+02</pdfrwt>
<pdfrwt beam="1">  1       -1 0.12759420E-02 0.85776228E+02</pdfrwt>
<totfact> 0.14217486E+05</totfact>
</mgrwt>
</event>
<event>
 5    1  0.1247456E+001  0.8657442E+02  0.7546771E-02  0.1311366E+00
         -3   -1    0    0    0  501 -0.00000000000E+00  0.00000000000E+00  0.66316031618E+01  0.66316031618E+01  0.00000000000E+00 0.  1.
          3   -1    0    0  501    0  0.00000000000E+00 -0.00000000000E+00 -0.28255350399E+03  0.28255350399E+03  0.00000000000E+00 0. -1.
         23    2    1    2    0    0  0.00000000000E+00  0.00000000000E+00 -0.27592190083E+03  0.28918510715E+03  0.86574423716E+02 0.  0.
        -13    1    3    3    0    0 -0.43199827522E+02  0.27062029893E+01 -0.13957704395E+03  0.14613452648E+03  0.00000000000E+00 0.  1.
         13    1    3    3    0    0  0.43199827522E+02 -0.27062029893E+01 -0.13634485688E+03  0.14305058067E+03  0.00000000000E+00 0. -1.
<mgrwt>
<rscale>  0 0.86574424E+02</rscale>
<asrwt>0</asrwt>
<pdfrwt beam="2">  1        3 0.43469770E-01 0.86574424E+02</pdfrwt>
<pdfrwt beam="1">  1       -3 0.10202466E-02 0.86574424E+02</pdfrwt>
<totfact> 0.28088631E+04</totfact>
</mgrwt>
</event>
<event>
 5    1  0.1247456E+001  0.9116567E+02  0.7546771E-02  0.1300053E+00
          4   -1    0    0  501    0  0.00000000000E+00  0.00000000000E+00  0.66950220588E+01  0.66950220588E+01  0.00000000000E+00 0.  1.
         -4   -1    0    0    0  501 -0.00000000000E+00 -0.00000000000E+00 -0.31034923650E+03  0.31034923650E+03  0.00000000000E+00 0. -1.
         23    2    1    2    0    0  0.00000000000E+00  0.00000000000E+00 -0.30365421444E+03  0.31704425856E+03  0.91165673020E+02 0.  0.
        -13    1    3    3    0    0  0.15731241230E+01  0.41417987316E+02 -0.85854791415E+02  0.95336087615E+02  0.00000000000E+00 0.  1.
         13    1    3    3    0    0 -0.15731241230E+01 -0.41417987316E+02 -0.21779942303E+03  0.22170817095E+03  0.00000000000E+00 0. -1.
<mgrwt>
<rscale>  0 0.91165673E+02</rscale>
<asrwt>0</asrwt>
<pdfrwt beam="1">  1        4 0.10300037E-02 0.91165673E+02</pdfrwt>
<pdfrwt beam="2">  1       -4 0.47746021E-01 0.91165673E+02</pdfrwt>
<totfact> 0.17318237E+04</totfact>
</mgrwt>
</event>
<event>
 5    1  0.1247456E+001  0.9087015E+02  0.7546771E-02  0.1300758E+00
         -4   -1    0    0    0  501 -0.00000000000E+00  0.00000000000E+00  0.15000539257E+03  0.15000539257E+03  0.00000000000E+00 0.  1.
          4   -1    0    0  501    0  0.00000000000E+00 -0.00000000000E+00 -0.13761811865E+02  0.13761811865E+02  0.00000000000E+00 0. -1.
         23    2    1    2    0    0  0.00000000000E+00  0.00000000000E+00  0.13624358070E+03  0.16376720443E+03  0.90870148923E+02 0.  0.
        -13    1    3    3    0    0 -0.12153317405E+02  0.29342638980E+02  0.95664962713E+01  0.33169435286E+02  0.00000000000E+00 0. -1.
         13    1    3    3    0    0  0.12153317405E+02 -0.29342638980E+02  0.12667708443E+03  0.13059776915E+03  0.00000000000E+00 0.  1.
<mgrwt>
<rscale>  0 0.90870149E+02</rscale>
<asrwt>0</asrwt>
<pdfrwt beam="2">  1        4 0.21172019E-02 0.90870149E+02</pdfrwt>
<pdfrwt beam="1">  1       -4 0.23077752E-01 0.90870149E+02</pdfrwt>
<totfact> 0.23209613E+04</totfact>
</mgrwt>
</event>
<event>
 5    1  0.1247456E+001  0.1061709E+03  0.7546771E-02  0.1267830E+00
         -2   -1    0    0    0  501 -0.00000000000E+00  0.00000000000E+00  0.26749202299E+02  0.26749202299E+02  0.00000000000E+00 0.  1.
          2   -1    0    0  501    0  0.00000000000E+00 -0.00000000000E+00 -0.10535137885E+03  0.10535137885E+03  0.00000000000E+00 0. -1.
         23    2    1    2    0    0  0.00000000000E+00  0.00000000000E+00 -0.78602176548E+02  0.13210058115E+03  0.10617090647E+03 0.  0.
        -11    1    3    3    0    0  0.35814247508E+02 -0.27012932871E+02 -0.39837771939E+01  0.45035867346E+02  0.00000000000E+00 0.  1.
         11    1    3    3    0    0 -0.35814247508E+02  0.27012932871E+02 -0.74618399354E+02  0.87064713800E+02  0.00000000000E+00 0. -1.
<mgrwt>
<rscale>  0 0.10617091E+03</rscale>
<asrwt>0</asrwt>
<pdfrwt beam="2">  1        2 0.16207904E-01 0.10617091E+03</pdfrwt>
<pdfrwt beam="1">  1       -2 0.41152620E-02 0.10617091E+03</pdfrwt>
<totfact> 0.81637436E+04</totfact>
</mgrwt>
</event>
<event>
 5    1  0.1247456E+001  0.9111017E+02  0.7546771E-02  0.1300185E+00
          1   -1    0    0  501    0  0.00000000000E+00  0.00000000000E+00  0.43818338524E+02  0.43818338524E+02  0.00000000000E+00 0. -1.
         -1   -1    0    0    0  501 -0.00000000000E+00 -0.00000000000E+00 -0.47360665600E+02  0.47360665600E+02  0.00000000000E+00 0.  1.
         23    2    1    2    0    0  0.00000000000E+00  0.00000000000E+00 -0.35423270754E+01  0.91179004124E+02  0.91110167994E+02 0.  0.
        -11    1    3    3    0    0  0.29188101098E+02  0.23673277995E+02 -0.27537389316E+02  0.46590526367E+02  0.00000000000E+00 0.  1.
         11    1    3    3    0    0 -0.29188101098E+02 -0.23673277995E+02  0.23995062241E+02  0.44588477757E+02  0.00000000000E+00 0. -1.
<mgrwt>
<rscale>  0 0.91110168E+02</rscale>
<asrwt>0</asrwt>
<pdfrwt beam="1">  1        1 0.67412829E-02 0.91110168E+02</pdfrwt>
<pdfrwt beam="2">  1       -1 0.72862562E-02 0.91110168E+02</pdfrwt>
<totfact> 0.92112213E+04</totfact>
</mgrwt>
</event>
<event>
 5    1  0.1247456E+001  0.8982733E+02  0.7546771E-02  0.1303270E+00
          1   -1    0    0  501    0  0.00000000000E+00  0.00000000000E+00  0.12095224697E+03  0.12095224697E+03  0.00000000000E+00 0. -1.
         -1   -1    0    0    0  501 -0.00000000000E+00 -0.00000000000E+00 -0.16677964193E+02  0.16677964193E+02  0.00000000000E+00 0.  1.
         23    2    1    2    0    0  0.00000000000E+00  0.00000000000E+00  0.10427428278E+03  0.13763021116E+03  0.89827328669E+02 0.  0.
        -11    1    3    3    0    0 -0.39824592073E+02  0.19141670246E+02  0.39800073359E+02  0.59468037743E+02  0.00000000000E+00 0.  1.
         11    1    3    3    0    0  0.39824592073E+02 -0.19141670246E+02  0.64474209416E+02  0.78162173418E+02  0.00000000000E+00 0. -1.
<mgrwt>
<rscale>  0 0.89827329E+02</rscale>
<asrwt>0</asrwt>
<pdfrwt beam="1">  1        1 0.18608037E-01 0.89827329E+02</pdfrwt>
<pdfrwt beam="2">  1       -1 0.25658407E-02 0.89827329E+02</pdfrwt>
<totfact> 0.11233125E+05</totfact>
</mgrwt>
</event>
<event>
 5    1  0.1247456E+001  0.8843197E+02  0.7546771E-02  0.1306694E+00
         -2   -1    0    0    0  501 -0.00000000000E+00  0.00000000000E+00  0.98804831419E+01  0.98804831419E+01  0.00000000000E+00 0.  1.
          2   -1    0    0  501    0  0.00000000000E+00 -0.00000000000E+00 -0.19787022308E+03  0.19787022308E+03  0.00000000000E+00 0. -1.
         23    2    1    2    0    0  0.00000000000E+00  0.00000000000E+00 -0.18798973994E+03  0.20775070622E+03  0.88431971671E+02 0.  0.
        -11    1    3    3    0    0 -0.29803605398E+01 -0.37792304782E+02 -0.14745886647E+03  0.15225392655E+03  0.00000000000E+00 0. -1.
         11    1    3    3    0    0  0.29803605398E+01  0.37792304782E+02 -0.40530873466E+02  0.55496779669E+02  0.00000000000E+00 0.  1.
<mgrwt>
<rscale>  0 0.88431972E+02</rscale>
<asrwt>0</asrwt>
<pdfrwt beam="2">  1        2 0.30441569E-01 0.88431972E+02</pdfrwt>
<pdfrwt beam="1">  1       -2 0.15200745E-02 0.88431972E+02</pdfrwt>
<totfact> 0.16726895E+05</totfact>
</mgrwt>
</event>
<event>
 5    1  0.1247456E+001  0.9680636E+02  0.7546771E-02  0.1287159E+00
          4   -1    0    0  501    0  0.00000000000E+00  0.00000000000E+00  0.11545502603E+02  0.11545502603E+02  0.00000000000E+00 0.  1.
         -4   -1    0    0    0  501 -0.00000000000E+00 -0.00000000000E+00 -0.20292471188E+03  0.20292471188E+03  0.00000000000E+00 0. -1.
         23    2    1    2    0    0  0.00000000000E+00  0.00000000000E+00 -0.19137920928E+03  0.21447021448E+03  0.96806359071E+02 0.  0.
        -13    1    3    3    0    0  0.39457840619E+02 -0.19109449676E+02 -0.14113483828E+03  0.14778746507E+03  0.00000000000E+00 0. -1.
         13    1    3    3    0    0 -0.39457840619E+02  0.19109449676E+02 -0.50244370994E+02  0.66682749417E+02  0.00000000000E+00 0.  1.
<mgrwt>
<rscale>  0 0.96806359E+02</rscale>
<asrwt>0</asrwt>
<pdfrwt beam="1">  1        4 0.17762314E-02 0.96806359E+02</pdfrwt>
<pdfrwt beam="2">  1       -4 0.31219183E-01 0.96806359E+02</pdfrwt>
<totfact> 0.17702653E+04</totfact>
</mgrwt>
</event>
<event>
 5    1  0.1247456E+001  0.8654682E+02  0.7546771E-02  0.1311436E+00
          2   -1    0    0  501    0  0.00000000000E+00  0.00000000000E+00  0.51704610916E+02  0.51704610916E+02  0.00000000000E+00 0. -1.
         -2   -1    0    0    0  501 -0.00000000000E+00 -0.00000000000E+00 -0.36217040159E+02  0.36217040159E+02  0.00000000000E+00 0.  1.
         23    2    1    2    0    0  0.00000000000E+00  0.00000000000E+00  0.15487570757E+02  0.87921651075E+02  0.86546819005E+02 0.  0.
        -11    1    3    3    0    0 -0.12602222520E+02  0.35445955967E+02  0.29469396060E+02  0.47787834341E+02  0.00000000000E+00 0. -1.
         11    1    3    3    0    0  0.12602222520E+02 -0.35445955967E+02 -0.13981825303E+02  0.40133816734E+02  0.00000000000E+00 0.  1.
<mgrwt>
<rscale>  0 0.86546819E+02</rscale>
<asrwt>0</asrwt>
<pdfrwt beam="1">  1        2 0.79545556E-02 0.86546819E+02</pdfrwt>
<pdfrwt beam="2">  1       -2 0.55718523E-02 0.86546819E+02</pdfrwt>
<totfact> 0.11816892E+05</totfact>
</mgrwt>
</event>
<event>
 5    1  0.1247456E+001  0.9203968E+02  0.7546771E-02  0.1297986E+00
          2   -1    0    0  501    0  0.00000000000E+00  0.00000000000E+00  0.12120313455E+03  0.12120313455E+03  0.00000000000E+00 0. -1.
         -2   -1    0    0    0  501 -0.00000000000E+00 -0.00000000000E+00 -0.17473357936E+02  0.17473357936E+02  0.00000000000E+00 0.  1.
         23    2    1    2    0    0  0.00000000000E+00  0.00000000000E+00  0.10372977661E+03  0.13867649249E+03  0.92039681724E+02 0.  0.
        -13    1    3    3    0    0 -0.10600342455E+02  0.36633929775E+02  0.13057005294E+02  0.40310016847E+02  0.00000000000E+00 0. -1.
         13    1    3    3    0    0  0.10600342455E+02 -0.36633929775E+02  0.90672771320E+02  0.98366475639E+02  0.00000000000E+00 0.  1.
<mgrwt>
<rscale>  0 0.92039682E+02</rscale>
<asrwt>0</asrwt>
<pdfrwt beam="1">  1        2 0.18646636E-01 0.92039682E+02</pdfrwt>
<pdfrwt beam="2">  1       -2 0.26882090E-02 0.92039682E+02</pdfrwt>
<totfact> 0.12696434E+05</totfact>
</mgrwt>
</event>
<event>
 5    1  0.1247456E+001  0.9485908E+02  0.7546771E-02  0.1291494E+00
         -1   -1    0    0    0  501 -0.00000000000E+00  0.00000000000E+00  0.23559278552E+02  0.23559278552E+02  0.00000000000E+00 0. -1.
          1   -1    0    0  501    0  0.00000000000E+00 -0.00000000000E+00 -0.95485146260E+02  0.95485146260E+02  0.00000000000E+00 0.  1.
         23    2    1    2    0    0  0.00000000000E+00  0.00000000000E+00 -0.71925867708E+02  0.11904442481E+03  0.94859077760E+02 0.  0.
        -13    1    3    3    0    0 -0.34288437422E+02  0.31041103427E+02 -0.49143853322E+02  0.67486038276E+02  0.00000000000E+00 0.  1.
         13    1    3    3    0    0  0.34288437422E+02 -0.31041103427E+02 -0.22782014386E+02  0.51558386537E+02  0.00000000000E+00 0. -1.
<mgrwt>
<rscale>  0 0.94859078E+02</rscale>
<asrwt>0</asrwt>
<pdfrwt beam="2">  1        1 0.14690023E-01 0.94859078E+02</pdfrwt>
<pdfrwt beam="1">  1       -1 0.36245043E-02 0.94859078E+02</pdfrwt>
<totfact> 0.93003732E+04</totfact>
</mgrwt>
</event>
<event>
 5    1  0.1247456E+001  0.8884733E+02  0.7546771E-02  0.1305667E+00
         -1   -1    0    0    0  501 -0.00000000000E+00  0.00000000000E+00  0.16576558403E+02  0.16576558403E+02  0.00000000000E+00 0.  1.
          1   -1    0    0  501    0  0.00000000000E+00 -0.00000000000E+00 -0.11905136199E+03  0.11905136199E+03  0.00000000000E+00 0. -1.
         23    2    1    2    0    0  0.00000000000E+00  0.00000000000E+00 -0.10247480359E+03  0.13562792039E+03  0.88847326466E+02 0.  0.
        -11    1    3    3    0    0 -0.35641724041E+02 -0.12869659394E+02 -0.86628535091E+02  0.94554025390E+02  0.00000000000E+00 0. -1.
         11    1    3    3    0    0  0.35641724041E+02  0.12869659394E+02 -0.15846268497E+02  0.41073895004E+02  0.00000000000E+00 0.  1.
<mgrwt>
<rscale>  0 0.88847326E+02</rscale>
<asrwt>0</asrwt>
<pdfrwt beam="2">  1        1 0.18315595E-01 0.88847326E+02</pdfrwt>
<pdfrwt beam="1">  1       -1 0.25502396E-02 0.88847326E+02</pdfrwt>
<totfact> 0.11539643E+05</totfact>
</mgrwt>
</event>
<event>
 5    1  0.1247456E+001  0.9407332E+02  0.7546771E-02  0.1293277E+00
         -2   -1    0    0    0  501 -0.00000000000E+00  0.00000000000E+00  0.39379433196E+02  0.39379433196E+02  0.00000000000E+00 0.  1.
          2   -1    0    0  501    0  0.00000000000E+00 -0.00000000000E+00 -0.56182813129E+02  0.56182813129E+02  0.00000000000E+00 0. -1.
         23    2    1    2    0    0  0.00000000000E+00  0.00000000000E+00 -0.16803379933E+02  0.95562246325E+02  0.94073318988E+02 0.  0.
        -11    1    3    3    0    0  0.38783197254E+02 -0.25718743175E+02 -0.14481167089E+01  0.46558427612E+02  0.00000000000E+00 0.  1.
         11    1    3    3    0    0 -0.38783197254E+02  0.25718743175E+02 -0.15355263224E+02  0.49003818712E+02  0.00000000000E+00 0. -1.
<mgrwt>
<rscale>  0 0.94073319E+02</rscale>
<asrwt>0</asrwt>
<pdfrwt beam="2">  1        2 0.86435098E-02 0.94073319E+02</pdfrwt>
<pdfrwt beam="1">  1       -2 0.60583743E-02 0.94073319E+02</pdfrwt>
<totfact> 0.95361837E+04</totfact>
</mgrwt>
</event>
<event>
 5    1  0.1247456E+001  0.9829347E+02  0.7546771E-02  0.1283926E+00
         -1   -1    0    0    0  501 -0.00000000000E+00  0.00000000000E+00  0.17969200463E+03  0.17969200463E+03  0.00000000000E+00 0.  1.
          1   -1    0    0  501    0  0.00000000000E+00 -0.00000000000E+00 -0.13441897443E+02  0.13441897443E+02  0.00000000000E+00 0. -1.
         23    2    1    2    0    0  0.00000000000E+00  0.00000000000E+00  0.16625010719E+03  0.19313390208E+03  0.98293468707E+02 0.  0.
        -13    1    3    3    0    0  0.21351616087E+02  0.23876134658E+02  0.15636597190E+03  0.15961290200E+03  0.00000000000E+00 0.  1.
         13    1    3    3    0    0 -0.21351616087E+02 -0.23876134658E+02  0.98841352871E+01  0.33521000076E+02  0.00000000000E+00 0. -1.
<mgrwt>
<rscale>  0 0.98293469E+02</rscale>
<asrwt>0</asrwt>
<pdfrwt beam="2">  1        1 0.20679844E-02 0.98293469E+02</pdfrwt>
<pdfrwt beam="1">  1       -1 0.27644922E-01 0.98293469E+02</pdfrwt>
<totfact> 0.58770945E+04</totfact>
</mgrwt>
</event>
<event>
 5    1  0.1247456E+001  0.8647010E+02  0.7546771E-02  0.1311632E+00
         -1   -1    0    0    0  501 -0.00000000000E+00  0.00000000000E+00  0.44862535815E+02  0.44862535815E+02  0.00000000000E+00 0.  1.
          1   -1    0    0  501    0  0.00000000000E+00 -0.00000000000E+00 -0.41666605208E+02  0.41666605208E+02  0.00000000000E+00 0. -1.
         23    2    1    2    0    0  0.00000000000E+00  0.00000000000E+00  0.31959306068E+01  0.86529141023E+02  0.86470100461E+02 0.  0.
        -13    1    3    3    0    0 -0.13255461891E+02  0.23936424694E+02  0.35096333427E+02  0.44501823750E+02  0.00000000000E+00 0.  1.
         13    1    3    3    0    0  0.13255461891E+02 -0.23936424694E+02 -0.31900402820E+02  0.42027317273E+02  0.00000000000E+00 0. -1.
<mgrwt>
<rscale>  0 0.86470100E+02</rscale>
<asrwt>0</asrwt>
<pdfrwt beam="2">  1        1 0.64102470E-02 0.86470100E+02</pdfrwt>
<pdfrwt beam="1">  1       -1 0.69019286E-02 0.86470100E+02</pdfrwt>
<totfact> 0.10584488E+05</totfact>
</mgrwt>
</event>
<event>
 5    1  0.1247456E+001  0.9013302E+02  0.7546771E-02  0.1302530E+00
         -1   -1    0    0    0  501 -0.00000000000E+00  0.00000000000E+00  0.15446208335E+03  0.15446208335E+03  0.00000000000E+00 0.  1.
          1   -1    0    0  501    0  0.00000000000E+00 -0.00000000000E+00 -0.13148794286E+02  0.13148794286E+02  0.00000000000E+00 0. -1.
         23    2    1    2    0    0  0.00000000000E+00  0.00000000000E+00  0.14131328906E+03  0.16761087763E+03  0.90133016347E+02 0.  0.
        -11    1    3    3    0    0  0.38171051087E+02 -0.15151673754E+02  0.36146865841E+02  0.54710129490E+02  0.00000000000E+00 0. -1.
         11    1    3    3    0    0 -0.38171051087E+02  0.15151673754E+02  0.10516642322E+03  0.11290074814E+03  0.00000000000E+00 0.  1.
<mgrwt>
<rscale>  0 0.90133016E+02</rscale>
<asrwt>0</asrwt>
<pdfrwt beam="2">  1        1 0.20228915E-02 0.90133016E+02</pdfrwt>
<pdfrwt beam="1">  1       -1 0.23763396E-01 0.90133016E+02</pdfrwt>
<totfact> 0.76524120E+04</totfact>
</mgrwt>
</event>
<event>
 5    1  0.1247456E+001  0.8883120E+02  0.7546771E-02  0.1305707E+00
          2   -1    0    0  501    0  0.00000000000E+00  0.00000000000E+00  0.22669731335E+02  0.22669731335E+02  0.00000000000E+00 0.  1.
         -2   -1    0    0    0  501 -0.00000000000E+00 -0.00000000000E+00 -0.87021129804E+02  0.87021129804E+02  0.00000000000E+00 0. -1.
         23    2    1    2    0    0  0.00000000000E+00  0.00000000000E+00 -0.64351398469E+02  0.10969086114E+03  0.88831202471E+02 0.  0.
        -13    1    3    3    0    0  0.18566327488E+02 -0.29389318009E+02 -0.66313715797E+02  0.74872888499E+02  0.00000000000E+00 0. -1.
         13    1    3    3    0    0 -0.18566327488E+02  0.29389318009E+02  0.19623173282E+01  0.34817972639E+02  0.00000000000E+00 0.  1.
<mgrwt>
<rscale>  0 0.88831202E+02</rscale>
<asrwt>0</asrwt>
<pdfrwt beam="1">  1        2 0.34876510E-02 0.88831202E+02</pdfrwt>
<pdfrwt beam="2">  1       -2 0.13387866E-01 0.88831202E+02</pdfrwt>
<totfact> 0.88620259E+04</totfact>
</mgrwt>
</event>
<event>
 5    1  0.1247456E+001  0.9232582E+02  0.7546771E-02  0.1297315E+00
          1   -1    0    0  501    0  0.00000000000E+00  0.00000000000E+00  0.16669407913E+03  0.16669407913E+03  0.00000000000E+00 0. -1.
         -1   -1    0    0    0  501 -0.00000000000E+00 -0.00000000000E+00 -0.12783983837E+02  0.12783983837E+02  0.00000000000E+00 0.  1.
         23    2    1    2    0    0  0.00000000000E+00  0.00000000000E+00  0.15391009530E+03  0.17947806297E+03  0.92325823328E+02 0.  0.
        -13    1    3    3    0    0  0.39273108371E+02 -0.11469479561E+02  0.35393827446E+02  0.54098512214E+02  0.00000000000E+00 0.  1.
         13    1    3    3    0    0 -0.39273108371E+02  0.11469479561E+02  0.11851626785E+03  0.12537955076E+03  0.00000000000E+00 0. -1.
<mgrwt>
<rscale>  0 0.92325823E+02</rscale>
<asrwt>0</asrwt>
<pdfrwt beam="1">  1        1 0.25645241E-01 0.92325823E+02</pdfrwt>
<pdfrwt beam="2">  1       -1 0.19667669E-02 0.92325823E+02</pdfrwt>
<totfact> 0.11055710E+05</totfact>
</mgrwt>
</event>
<event>
 5    1  0.1247456E+001  0.9240198E+02  0.7546771E-02  0.1297137E+00
          1   -1    0    0  501    0  0.00000000000E+00  0.00000000000E+00  0.19313828301E+03  0.19313828301E+03  0.00000000000E+00 0. -1.
         -1   -1    0    0    0  501 -0.00000000000E+00 -0.00000000000E+00 -0.11051829825E+02  0.11051829825E+02  0.00000000000E+00 0.  1.
         23    2    1    2    0    0  0.00000000000E+00  0.00000000000E+00  0.18208645319E+03  0.20419011284E+03  0.92401979126E+02 0.  0.
        -13    1    3    3    0    0  0.42942587974E+01 -0.44755057939E+02  0.11454160118E+03  0.12304972276E+03  0.00000000000E+00 0. -1.
         13    1    3    3    0    0 -0.42942587974E+01  0.44755057939E+02  0.67544852005E+02  0.81140390079E+02  0.00000000000E+00 0.  1.
<mgrwt>
<rscale>  0 0.92401979E+02</rscale>
<asrwt>0</asrwt>
<pdfrwt beam="1">  1        1 0.29713579E-01 0.92401979E+02</pdfrwt>
<pdfrwt beam="2">  1       -1 0.17002817E-02 0.92401979E+02</pdfrwt>
<totfact> 0.11346431E+05</totfact>
</mgrwt>
</event>
<event>
 5    1  0.1247456E+001  0.9026989E+02  0.7546771E-02  0.1302199E+00
          2   -1    0    0  501    0  0.00000000000E+00  0.00000000000E+00  0.10007150136E+02  0.10007150136E+02  0.00000000000E+00 0. -1.
         -2   -1    0    0    0  501 -0.00000000000E+00 -0.00000000000E+00 -0.20357077805E+03  0.20357077805E+03  0.00000000000E+00 0.  1.
         23    2    1    2    0    0  0.00000000000E+00  0.00000000000E+00 -0.19356362792E+03  0.21357792819E+03  0.90269891752E+02 0.  0.
        -11    1    3    3    0    0  0.40546142268E+02 -0.12635952246E+01 -0.49962823756E+02  0.64357362310E+02  0.00000000000E+00 0. -1.
         11    1    3    3    0    0 -0.40546142268E+02  0.12635952246E+01 -0.14360080416E+03  0.14922056588E+03  0.00000000000E+00 0.  1.
<mgrwt>
<rscale>  0 0.90269892E+02</rscale>
<asrwt>0</asrwt>
<pdfrwt beam="1">  1        2 0.15395616E-02 0.90269892E+02</pdfrwt>
<pdfrwt beam="2">  1       -2 0.31318580E-01 0.90269892E+02</pdfrwt>
<totfact> 0.63439442E+04</totfact>
</mgrwt>
</event>
<event>
 5    1  0.1247456E+001  0.9133074E+02  0.7546771E-02  0.1299661E+00
         -2   -1    0    0    0  501 -0.00000000000E+00  0.00000000000E+00  0.14115570064E+03  0.14115570064E+03  0.00000000000E+00 0.  1.
          2   -1    0    0  501    0  0.00000000000E+00 -0.00000000000E+00 -0.14773233051E+02  0.14773233051E+02  0.00000000000E+00 0. -1.
         23    2    1    2    0    0  0.00000000000E+00  0.00000000000E+00  0.12638246759E+03  0.15592893369E+03  0.91330740983E+02 0.  0.
        -13    1    3    3    0    0  0.14850754564E+02 -0.20694242471E+02  0.12790057811E+03  0.13041224813E+03  0.00000000000E+00 0.  1.
         13    1    3    3    0    0 -0.14850754564E+02  0.20694242471E+02 -0.15181105156E+01  0.25516685563E+02  0.00000000000E+00 0. -1.
<mgrwt>
<rscale>  0 0.91330741E+02</rscale>
<asrwt>0</asrwt>
<pdfrwt beam="2">  1        2 0.22728052E-02 0.91330741E+02</pdfrwt>
<pdfrwt beam="1">  1       -2 0.21716261E-01 0.91330741E+02</pdfrwt>
<totfact> 0.71089424E+04</totfact>
</mgrwt>
</event>
<event>
 5    1  0.1247456E+001  0.9227872E+02  0.7546771E-02  0.1297425E+00
          2   -1    0    0  501    0  0.00000000000E+00  0.00000000000E+00  0.26344893130E+02  0.26344893130E+02  0.00000000000E+00 0. -1.
         -2   -1    0    0    0  501 -0.00000000000E+00 -0.00000000000E+00 -0.80806567733E+02  0.80806567733E+02  0.00000000000E+00 0.  1.
         23    2    1    2    0    0  0.00000000000E+00  0.00000000000E+00 -0.54461674604E+02  0.10715146086E+03  0.92278716747E+02 0.  0.
        -13    1    3    3    0    0 -0.17393237934E+02  0.14649920696E+02 -0.73847163613E+02  0.77269324287E+02  0.00000000000E+00 0.  1.
         13    1    3    3    0    0  0.17393237934E+02 -0.14649920696E+02  0.19385489009E+02  0.29882136576E+02  0.00000000000E+00 0. -1.
<mgrwt>
<rscale>  0 0.92278717E+02</rscale>
<asrwt>0</asrwt>
<pdfrwt beam="1">  1        2 0.40530605E-02 0.92278717E+02</pdfrwt>
<pdfrwt beam="2">  1       -2 0.12431779E-01 0.92278717E+02</pdfrwt>
<totfact> 0.82372060E+04</totfact>
</mgrwt>
</event>
<event>
 5    1  0.1247456E+001  0.8959000E+02  0.7546771E-02  0.1303848E+00
          1   -1    0    0  501    0  0.00000000000E+00  0.00000000000E+00  0.14727256145E+02  0.14727256145E+02  0.00000000000E+00 0. -1.
         -1   -1    0    0    0  501 -0.00000000000E+00 -0.00000000000E+00 -0.13625021980E+03  0.13625021980E+03  0.00000000000E+00 0.  1.
         23    2    1    2    0    0  0.00000000000E+00  0.00000000000E+00 -0.12152296365E+03  0.15097747594E+03  0.89589996913E+02 0.  0.
        -11    1    3    3    0    0 -0.43487358569E+02  0.10743540279E+02 -0.60536182870E+02  0.75307393061E+02  0.00000000000E+00 0.  1.
         11    1    3    3    0    0  0.43487358569E+02 -0.10743540279E+02 -0.60986780781E+02  0.75670082880E+02  0.00000000000E+00 0. -1.
<mgrwt>
<rscale>  0 0.89589997E+02</rscale>
<asrwt>0</asrwt>
<pdfrwt beam="1">  1        1 0.22657318E-02 0.89589997E+02</pdfrwt>
<pdfrwt beam="2">  1       -1 0.20961572E-01 0.89589997E+02</pdfrwt>
<totfact> 0.79994008E+04</totfact>
</mgrwt>
</event>
<event>
 5    1  0.1247456E+001  0.9592303E+02  0.7546771E-02  0.1289111E+00
         -2   -1    0    0    0  501 -0.00000000000E+00  0.00000000000E+00  0.12459989988E+02  0.12459989988E+02  0.00000000000E+00 0.  1.
          2   -1    0    0  501    0  0.00000000000E+00 -0.00000000000E+00 -0.18461547947E+03  0.18461547947E+03  0.00000000000E+00 0. -1.
         23    2    1    2    0    0  0.00000000000E+00  0.00000000000E+00 -0.17215548948E+03  0.19707546946E+03  0.95923032186E+02 0.  0.
        -13    1    3    3    0    0 -0.42698031040E+02  0.19121127448E+02 -0.64376790751E+02  0.79580842902E+02  0.00000000000E+00 0.  1.
         13    1    3    3    0    0  0.42698031040E+02 -0.19121127448E+02 -0.10777869873E+03  0.11749462656E+03  0.00000000000E+00 0. -1.
<mgrwt>
<rscale>  0 0.95923032E+02</rscale>
<asrwt>0</asrwt>
<pdfrwt beam="2">  1        2 0.28402381E-01 0.95923032E+02</pdfrwt>
<pdfrwt beam="1">  1       -2 0.19169215E-02 0.95923032E+02</pdfrwt>
<totfact> 0.13099672E+05</totfact>
</mgrwt>
</event>
<event>
 5    1  0.1247456E+001  0.8959043E+02  0.7546771E-02  0.1303847E+00
          1   -1    0    0  501    0  0.00000000000E+00  0.00000000000E+00  0.72189735051E+02  0.72189735051E+02  0.00000000000E+00 0. -1.
         -1   -1    0    0    0  501 -0.00000000000E+00 -0.00000000000E+00 -0.27796352531E+02  0.27796352531E+02  0.00000000000E+00 0.  1.
         23    2    1    2    0    0  0.00000000000E+00  0.00000000000E+00  0.44393382520E+02  0.99986087582E+02  0.89590430841E+02 0.  0.
        -13    1    3    3    0    0 -0.64249458719E+01  0.42675168657E+02  0.87967650121E+01  0.44043535554E+02  0.00000000000E+00 0.  1.
         13    1    3    3    0    0  0.64249458719E+01 -0.42675168657E+02  0.35596617508E+02  0.55942552028E+02  0.00000000000E+00 0. -1.
<mgrwt>
<rscale>  0 0.89590431E+02</rscale>
<asrwt>0</asrwt>
<pdfrwt beam="1">  1        1 0.11106113E-01 0.89590431E+02</pdfrwt>
<pdfrwt beam="2">  1       -1 0.42763620E-02 0.89590431E+02</pdfrwt>
<totfact> 0.10403961E+05</totfact>
</mgrwt>
</event>
<event>
 5    1  0.1247456E+001  0.9056087E+02  0.7546771E-02  0.1301499E+00
         -1   -1    0    0    0  501 -0.00000000000E+00  0.00000000000E+00  0.19430876075E+03  0.19430876075E+03  0.00000000000E+00 0. -1.
          1   -1    0    0  501    0  0.00000000000E+00 -0.00000000000E+00 -0.10551855563E+02  0.10551855563E+02  0.00000000000E+00 0.  1.
         23    2    1    2    0    0  0.00000000000E+00  0.00000000000E+00  0.18375690519E+03  0.20486061632E+03  0.90560874068E+02 0.  0.
        -13    1    3    3    0    0  0.37890720325E+02  0.22942799515E+02  0.70628950763E+02  0.83369823211E+02  0.00000000000E+00 0.  1.
         13    1    3    3    0    0 -0.37890720325E+02 -0.22942799515E+02  0.11312795443E+03  0.12149079311E+03  0.00000000000E+00 0. -1.
<mgrwt>
<rscale>  0 0.90560874E+02</rscale>
<asrwt>0</asrwt>
<pdfrwt beam="2">  1        1 0.16233625E-02 0.90560874E+02</pdfrwt>
<pdfrwt beam="1">  1       -1 0.29893653E-01 0.90560874E+02</pdfrwt>
<totfact> 0.71240202E+04</totfact>
</mgrwt>
</event>
<event>
 5    1  0.1247456E+001  0.9089168E+02  0.7546771E-02  0.1300707E+00
          2   -1    0    0  501    0  0.00000000000E+00  0.00000000000E+00  0.41616308761E+02  0.41616308761E+02  0.00000000000E+00 0. -1.
         -2   -1    0    0    0  501 -0.00000000000E+00 -0.00000000000E+00 -0.49627769683E+02  0.49627769683E+02  0.00000000000E+00 0.  1.
         23    2    1    2    0    0  0.00000000000E+00  0.00000000000E+00 -0.80114609211E+01  0.91244078444E+02  0.90891684686E+02 0.  0.
        -13    1    3    3    0    0  0.19093648380E+02  0.13713971163E+02 -0.43049763127E+02  0.49050204066E+02  0.00000000000E+00 0.  1.
         13    1    3    3    0    0 -0.19093648380E+02 -0.13713971163E+02  0.35038302206E+02  0.42193874378E+02  0.00000000000E+00 0. -1.
<mgrwt>
<rscale>  0 0.90891685E+02</rscale>
<asrwt>0</asrwt>
<pdfrwt beam="1">  1        2 0.64025091E-02 0.90891685E+02</pdfrwt>
<pdfrwt beam="2">  1       -2 0.76350414E-02 0.90891685E+02</pdfrwt>
<totfact> 0.97246911E+04</totfact>
</mgrwt>
</event>
<event>
 5    1  0.1247456E+001  0.9104883E+02  0.7546771E-02  0.1300332E+00
         -1   -1    0    0    0  501 -0.00000000000E+00  0.00000000000E+00  0.19742255087E+02  0.19742255087E+02  0.00000000000E+00 0.  1.
          1   -1    0    0  501    0  0.00000000000E+00 -0.00000000000E+00 -0.10497647443E+03  0.10497647443E+03  0.00000000000E+00 0. -1.
         23    2    1    2    0    0  0.00000000000E+00  0.00000000000E+00 -0.85234219348E+02  0.12471872952E+03  0.91048829458E+02 0.  0.
        -13    1    3    3    0    0  0.88792373001E+01 -0.43143087988E+02 -0.58373116582E+02  0.73127201749E+02  0.00000000000E+00 0.  1.
         13    1    3    3    0    0 -0.88792373001E+01  0.43143087988E+02 -0.26861102766E+02  0.51591527773E+02  0.00000000000E+00 0. -1.
<mgrwt>
<rscale>  0 0.91048829E+02</rscale>
<asrwt>0</asrwt>
<pdfrwt beam="2">  1        1 0.16150227E-01 0.91048829E+02</pdfrwt>
<pdfrwt beam="1">  1       -1 0.30372700E-02 0.91048829E+02</pdfrwt>
<totfact> 0.10570748E+05</totfact>
</mgrwt>
</event>
<event>
 5    1  0.1247456E+001  0.9081329E+02  0.7546771E-02  0.1300894E+00
         -1   -1    0    0    0  501 -0.00000000000E+00  0.00000000000E+00  0.19601388180E+02  0.19601388180E+02  0.00000000000E+00 0.  1.
          1   -1    0    0  501    0  0.00000000000E+00 -0.00000000000E+00 -0.10518455076E+03  0.10518455076E+03  0.00000000000E+00 0. -1.
         23    2    1    2    0    0  0.00000000000E+00  0.00000000000E+00 -0.85583162578E+02  0.12478593894E+03  0.90813285590E+02 0.  0.
        -11    1    3    3    0    0  0.23104303744E+02  0.83692289200E+01  0.96748680656E+01  0.26409390684E+02  0.00000000000E+00 0.  1.
         11    1    3    3    0    0 -0.23104303744E+02 -0.83692289200E+01 -0.95258030643E+02  0.98376548253E+02  0.00000000000E+00 0. -1.
<mgrwt>
<rscale>  0 0.90813286E+02</rscale>
<asrwt>0</asrwt>
<pdfrwt beam="2">  1        1 0.16182239E-01 0.90813286E+02</pdfrwt>
<pdfrwt beam="1">  1       -1 0.30155982E-02 0.90813286E+02</pdfrwt>
<totfact> 0.10649008E+05</totfact>
</mgrwt>
</event>
<event>
 5    1  0.1247456E+001  0.9162058E+02  0.7546771E-02  0.1298974E+00
         -4   -1    0    0    0  501 -0.00000000000E+00  0.00000000000E+00  0.44159360903E+02  0.44159360903E+02  0.00000000000E+00 0.  1.
          4   -1    0    0  501    0  0.00000000000E+00 -0.00000000000E+00 -0.47522938343E+02  0.47522938343E+02  0.00000000000E+00 0. -1.
         23    2    1    2    0    0  0.00000000000E+00  0.00000000000E+00 -0.33635774404E+01  0.91682299246E+02  0.91620578157E+02 0.  0.
        -13    1    3    3    0    0 -0.39186766315E+02 -0.28736881319E+01 -0.25250188899E+02  0.46705810957E+02  0.00000000000E+00 0. -1.
         13    1    3    3    0    0  0.39186766315E+02  0.28736881319E+01  0.21886611458E+02  0.44976488289E+02  0.00000000000E+00 0.  1.
<mgrwt>
<rscale>  0 0.91620578E+02</rscale>
<asrwt>0</asrwt>
<pdfrwt beam="2">  1        4 0.73112213E-02 0.91620578E+02</pdfrwt>
<pdfrwt beam="1">  1       -4 0.67937478E-02 0.91620578E+02</pdfrwt>
<totfact> 0.26629553E+04</totfact>
</mgrwt>
</event>
<event>
 5    1  0.1247456E+001  0.8861011E+02  0.7546771E-02  0.1306253E+00
         -1   -1    0    0    0  501 -0.00000000000E+00  0.00000000000E+00  0.25375485555E+02  0.25375485555E+02  0.00000000000E+00 0.  1.
          1   -1    0    0  501    0  0.00000000000E+00 -0.00000000000E+00 -0.77355680396E+02  0.77355680396E+02  0.00000000000E+00 0. -1.
         23    2    1    2    0    0  0.00000000000E+00  0.00000000000E+00 -0.51980194841E+02  0.10273116595E+03  0.88610111173E+02 0.  0.
        -13    1    3    3    0    0 -0.33298225304E+02 -0.14891821247E+02  0.31650202392E+01  0.36613597222E+02  0.00000000000E+00 0.  1.
         13    1    3    3    0    0  0.33298225304E+02  0.14891821247E+02 -0.55145215080E+02  0.66117568729E+02  0.00000000000E+00 0. -1.
<mgrwt>
<rscale>  0 0.88610111E+02</rscale>
<asrwt>0</asrwt>
<pdfrwt beam="2">  1        1 0.11900874E-01 0.88610111E+02</pdfrwt>
<pdfrwt beam="1">  1       -1 0.39039210E-02 0.88610111E+02</pdfrwt>
<totfact> 0.10836885E+05</totfact>
</mgrwt>
</event>
<event>
 5    1  0.1247456E+001  0.9200088E+02  0.7546771E-02  0.1298077E+00
          2   -1    0    0  501    0  0.00000000000E+00  0.00000000000E+00  0.35457302970E+03  0.35457302970E+03  0.00000000000E+00 0. -1.
         -2   -1    0    0    0  501 -0.00000000000E+00 -0.00000000000E+00 -0.59678549438E+01  0.59678549438E+01  0.00000000000E+00 0.  1.
         23    2    1    2    0    0  0.00000000000E+00  0.00000000000E+00  0.34860517476E+03  0.36054088465E+03  0.92000878436E+02 0.  0.
        -13    1    3    3    0    0  0.42947464957E+02  0.12702505490E+02  0.13316324775E+03  0.14049302097E+03  0.00000000000E+00 0.  1.
         13    1    3    3    0    0 -0.42947464957E+02 -0.12702505490E+02  0.21544192701E+03  0.22004786367E+03  0.00000000000E+00 0. -1.
<mgrwt>
<rscale>  0 0.92000878E+02</rscale>
<asrwt>0</asrwt>
<pdfrwt beam="1">  1        2 0.54549680E-01 0.92000878E+02</pdfrwt>
<pdfrwt beam="2">  1       -2 0.91813181E-03 0.92000878E+02</pdfrwt>
<totfact> 0.18657765E+05</totfact>
</mgrwt>
</event>
<event>
 5    1  0.1247456E+001  0.9139219E+02  0.7546771E-02  0.1299515E+00
          1   -1    0    0  501    0  0.00000000000E+00  0.00000000000E+00  0.21162236824E+02  0.21162236824E+02  0.00000000000E+00 0. -1.
         -1   -1    0    0    0  501 -0.00000000000E+00 -0.00000000000E+00 -0.98672609345E+02  0.98672609345E+02  0.00000000000E+00 0.  1.
         23    2    1    2    0    0  0.00000000000E+00  0.00000000000E+00 -0.77510372521E+02  0.11983484617E+03  0.91392190630E+02 0.  0.
        -11    1    3    3    0    0 -0.26952553513E+02  0.31252988514E+02 -0.13029164015E+02  0.43277575566E+02  0.00000000000E+00 0. -1.
         11    1    3    3    0    0  0.26952553513E+02 -0.31252988514E+02 -0.64481208506E+02  0.76557270604E+02  0.00000000000E+00 0.  1.
<mgrwt>
<rscale>  0 0.91392191E+02</rscale>
<asrwt>0</asrwt>
<pdfrwt beam="1">  1        1 0.32557288E-02 0.91392191E+02</pdfrwt>
<pdfrwt beam="2">  1       -1 0.15180401E-01 0.91392191E+02</pdfrwt>
<totfact> 0.81077976E+04</totfact>
</mgrwt>
</event>
<event>
 5    1  0.1247456E+001  0.9074120E+02  0.7546771E-02  0.1301067E+00
         -1   -1    0    0    0  501 -0.00000000000E+00  0.00000000000E+00  0.50647183990E+03  0.50647183990E+03  0.00000000000E+00 0.  1.
          1   -1    0    0  501    0  0.00000000000E+00 -0.00000000000E+00 -0.40643750146E+01  0.40643750146E+01  0.00000000000E+00 0. -1.
         23    2    1    2    0    0  0.00000000000E+00  0.00000000000E+00  0.50240746488E+03  0.51053621491E+03  0.90741203247E+02 0.  0.
        -11    1    3    3    0    0  0.35676744346E+02  0.27797098199E+02  0.23093133380E+03  0.23531848565E+03  0.00000000000E+00 0.  1.
         11    1    3    3    0    0 -0.35676744346E+02 -0.27797098199E+02  0.27147613108E+03  0.27521772926E+03  0.00000000000E+00 0. -1.
<mgrwt>
<rscale>  0 0.90741203E+02</rscale>
<asrwt>0</asrwt>
<pdfrwt beam="2">  1        1 0.62528887E-03 0.90741203E+02</pdfrwt>
<pdfrwt beam="1">  1       -1 0.77918695E-01 0.90741203E+02</pdfrwt>
<totfact> 0.47258423E+04</totfact>
</mgrwt>
</event>
<event>
 5    1  0.1247456E+001  0.7724139E+02  0.7546771E-02  0.1337067E+00
          3   -1    0    0  501    0  0.00000000000E+00  0.00000000000E+00  0.29838043153E+03  0.29838043153E+03  0.00000000000E+00 0. -1.
         -3   -1    0    0    0  501 -0.00000000000E+00 -0.00000000000E+00 -0.49988465808E+01  0.49988465808E+01  0.00000000000E+00 0.  1.
         23    2    1    2    0    0  0.00000000000E+00  0.00000000000E+00  0.29338158495E+03  0.30337927811E+03  0.77241387868E+02 0.  0.
        -13    1    3    3    0    0 -0.13179338325E+02  0.36102365958E+02  0.16163776781E+03  0.16614404524E+03  0.00000000000E+00 0.  1.
         13    1    3    3    0    0  0.13179338325E+02 -0.36102365958E+02  0.13174381715E+03  0.13723523288E+03  0.00000000000E+00 0. -1.
<mgrwt>
<rscale>  0 0.77241388E+02</rscale>
<asrwt>0</asrwt>
<pdfrwt beam="1">  1        3 0.45904668E-01 0.77241388E+02</pdfrwt>
<pdfrwt beam="2">  1       -3 0.76905355E-03 0.77241388E+02</pdfrwt>
<totfact> 0.37131218E+04</totfact>
</mgrwt>
</event>
<event>
 5    1  0.1247456E+001  0.9566010E+02  0.7546771E-02  0.1289696E+00
         -2   -1    0    0    0  501 -0.00000000000E+00  0.00000000000E+00  0.15322836094E+02  0.15322836094E+02  0.00000000000E+00 0.  1.
          2   -1    0    0  501    0  0.00000000000E+00 -0.00000000000E+00 -0.14930093037E+03  0.14930093037E+03  0.00000000000E+00 0. -1.
         23    2    1    2    0    0  0.00000000000E+00  0.00000000000E+00 -0.13397809428E+03  0.16462376646E+03  0.95660100036E+02 0.  0.
        -13    1    3    3    0    0  0.40671516506E+02 -0.10589010181E+02 -0.27692610650E+02  0.50330707090E+02  0.00000000000E+00 0.  1.
         13    1    3    3    0    0 -0.40671516506E+02  0.10589010181E+02 -0.10628548363E+03  0.11429305937E+03  0.00000000000E+00 0. -1.
<mgrwt>
<rscale>  0 0.95660100E+02</rscale>
<asrwt>0</asrwt>
<pdfrwt beam="2">  1        2 0.22969374E-01 0.95660100E+02</pdfrwt>
<pdfrwt beam="1">  1       -2 0.23573594E-02 0.95660100E+02</pdfrwt>
<totfact> 0.12247284E+05</totfact>
</mgrwt>
</event>
<event>
 5    1  0.1247456E+001  0.9115796E+02  0.7546771E-02  0.1300072E+00
          3   -1    0    0  501    0  0.00000000000E+00  0.00000000000E+00  0.39115254310E+02  0.39115254310E+02  0.00000000000E+00 0. -1.
         -3   -1    0    0    0  501 -0.00000000000E+00 -0.00000000000E+00 -0.53110820557E+02  0.53110820557E+02  0.00000000000E+00 0.  1.
         23    2    1    2    0    0  0.00000000000E+00  0.00000000000E+00 -0.13995566247E+02  0.92226074867E+02  0.91157956377E+02 0.  0.
        -11    1    3    3    0    0  0.88348817543E+00 -0.26733572447E+02 -0.44335204387E+02  0.51779096122E+02  0.00000000000E+00 0.  1.
         11    1    3    3    0    0 -0.88348817543E+00  0.26733572447E+02  0.30339638140E+02  0.40446978745E+02  0.00000000000E+00 0. -1.
<mgrwt>
<rscale>  0 0.91157956E+02</rscale>
<asrwt>0</asrwt>
<pdfrwt beam="1">  1        3 0.60177314E-02 0.91157956E+02</pdfrwt>
<pdfrwt beam="2">  1       -3 0.81708955E-02 0.91157956E+02</pdfrwt>
<totfact> 0.35278808E+04</totfact>
</mgrwt>
</event>
<event>
 5    1  0.1247456E+001  0.9149004E+02  0.7546771E-02  0.1299283E+00
         -4   -1    0    0    0  501 -0.00000000000E+00  0.00000000000E+00  0.83006320599E+02  0.83006320599E+02  0.00000000000E+00 0.  1.
          4   -1    0    0  501    0  0.00000000000E+00 -0.00000000000E+00 -0.25210213264E+02  0.25210213264E+02  0.00000000000E+00 0. -1.
         23    2    1    2    0    0  0.00000000000E+00  0.00000000000E+00  0.57796107335E+02  0.10821653386E+03  0.91490044148E+02 0.  0.
        -13    1    3    3    0    0  0.27103724332E+01  0.40911510735E+02  0.52892435457E+02  0.66923146653E+02  0.00000000000E+00 0.  1.
         13    1    3    3    0    0 -0.27103724332E+01 -0.40911510735E+02  0.49036718780E+01  0.41293387210E+02  0.00000000000E+00 0. -1.
<mgrwt>
<rscale>  0 0.91490044E+02</rscale>
<asrwt>0</asrwt>
<pdfrwt beam="2">  1        4 0.38784944E-02 0.91490044E+02</pdfrwt>
<pdfrwt beam="1">  1       -4 0.12770203E-01 0.91490044E+02</pdfrwt>
<totfact> 0.25718593E+04</totfact>
</mgrwt>
</event>
<event>
 5    1  0.1247456E+001  0.9098870E+02  0.7546771E-02  0.1300475E+00
         -1   -1    0    0    0  501 -0.00000000000E+00  0.00000000000E+00  0.72816721470E+02  0.72816721470E+02  0.00000000000E+00 0.  1.
          1   -1    0    0  501    0  0.00000000000E+00 -0.00000000000E+00 -0.28423912315E+02  0.28423912315E+02  0.00000000000E+00 0. -1.
         23    2    1    2    0    0  0.00000000000E+00  0.00000000000E+00  0.44392809155E+02  0.10124063378E+03  0.90988704928E+02 0.  0.
        -13    1    3    3    0    0 -0.16758108325E+02 -0.65835733730E+00  0.69251647148E+02  0.71253478945E+02  0.00000000000E+00 0.  1.
         13    1    3    3    0    0  0.16758108325E+02  0.65835733730E+00 -0.24858837993E+02  0.29987154840E+02  0.00000000000E+00 0. -1.
<mgrwt>
<rscale>  0 0.90988705E+02</rscale>
<asrwt>0</asrwt>
<pdfrwt beam="2">  1        1 0.43729096E-02 0.90988705E+02</pdfrwt>
<pdfrwt beam="1">  1       -1 0.11202573E-01 0.90988705E+02</pdfrwt>
<totfact> 0.86440419E+04</totfact>
</mgrwt>
</event>
<event>
 5    1  0.1247456E+001  0.9974382E+02  0.7546771E-02  0.1280836E+00
         -1   -1    0    0    0  501 -0.00000000000E+00  0.00000000000E+00  0.46885036663E+02  0.46885036663E+02  0.00000000000E+00 0.  1.
          1   -1    0    0  501    0  0.00000000000E+00 -0.00000000000E+00 -0.53049063567E+02  0.53049063567E+02  0.00000000000E+00 0. -1.
         23    2    1    2    0    0  0.00000000000E+00  0.00000000000E+00 -0.61640269038E+01  0.99934100231E+02  0.99743817659E+02 0.  0.
        -13    1    3    3    0    0 -0.29558075958E+02 -0.40130888238E+02 -0.13353445450E+01  0.49859313976E+02  0.00000000000E+00 0.  1.
         13    1    3    3    0    0  0.29558075958E+02  0.40130888238E+02 -0.48286823588E+01  0.50074786254E+02  0.00000000000E+00 0. -1.
<mgrwt>
<rscale>  0 0.99743818E+02</rscale>
<asrwt>0</asrwt>
<pdfrwt beam="2">  1        1 0.81613943E-02 0.99743818E+02</pdfrwt>
<pdfrwt beam="1">  1       -1 0.72130826E-02 0.99743818E+02</pdfrwt>
<totfact> 0.73502545E+04</totfact>
</mgrwt>
</event>
<event>
 5    1  0.1247456E+001  0.8854697E+02  0.7546771E-02  0.1306409E+00
          3   -1    0    0  501    0  0.00000000000E+00  0.00000000000E+00  0.49711809538E+02  0.49711809538E+02  0.00000000000E+00 0. -1.
         -3   -1    0    0    0  501 -0.00000000000E+00 -0.00000000000E+00 -0.39430098684E+02  0.39430098684E+02  0.00000000000E+00 0.  1.
         23    2    1    2    0    0  0.00000000000E+00  0.00000000000E+00  0.10281710854E+02  0.89141908222E+02  0.88546971847E+02 0.  0.
        -13    1    3    3    0    0  0.35398452608E+02 -0.35159195511E+01 -0.21393959184E+02  0.41510403840E+02  0.00000000000E+00 0.  1.
         13    1    3    3    0    0 -0.35398452608E+02  0.35159195511E+01  0.31675670038E+02  0.47631504382E+02  0.00000000000E+00 0. -1.
<mgrwt>
<rscale>  0 0.88546972E+02</rscale>
<asrwt>0</asrwt>
<pdfrwt beam="1">  1        3 0.76479707E-02 0.88546972E+02</pdfrwt>
<pdfrwt beam="2">  1       -3 0.60661690E-02 0.88546972E+02</pdfrwt>
<totfact> 0.38433609E+04</totfact>
</mgrwt>
</event>
<event>
 5    1  0.1247456E+001  0.8769596E+02  0.7546771E-02  0.1308529E+00
         -1   -1    0    0    0  501 -0.00000000000E+00  0.00000000000E+00  0.21257218288E+02  0.21257218288E+02  0.00000000000E+00 0.  1.
          1   -1    0    0  501    0  0.00000000000E+00 -0.00000000000E+00 -0.90446703528E+02  0.90446703528E+02  0.00000000000E+00 0. -1.
         23    2    1    2    0    0  0.00000000000E+00  0.00000000000E+00 -0.69189485240E+02  0.11170392182E+03  0.87695959321E+02 0.  0.
        -13    1    3    3    0    0  0.37717306733E+01  0.23110981358E+02 -0.81815169907E+02  0.85100325726E+02  0.00000000000E+00 0. -1.
         13    1    3    3    0    0 -0.37717306733E+01 -0.23110981358E+02  0.12625684667E+02  0.26603596090E+02  0.00000000000E+00 0.  1.
<mgrwt>
<rscale>  0 0.87695959E+02</rscale>
<asrwt>0</asrwt>
<pdfrwt beam="2">  1        1 0.13914877E-01 0.87695959E+02</pdfrwt>
<pdfrwt beam="1">  1       -1 0.32703414E-02 0.87695959E+02</pdfrwt>
<totfact> 0.11423947E+05</totfact>
</mgrwt>
</event>
<event>
 5    1  0.1247456E+001  0.8903363E+02  0.7546771E-02  0.1305209E+00
         -3   -1    0    0    0  501 -0.00000000000E+00  0.00000000000E+00  0.12827413243E+03  0.12827413243E+03  0.00000000000E+00 0.  1.
          3   -1    0    0  501    0  0.00000000000E+00 -0.00000000000E+00 -0.15449310040E+02  0.15449310040E+02  0.00000000000E+00 0. -1.
         23    2    1    2    0    0  0.00000000000E+00  0.00000000000E+00  0.11282482239E+03  0.14372344248E+03  0.89033630548E+02 0.  0.
        -11    1    3    3    0    0  0.29307022212E+02 -0.26927954736E+02  0.24218925597E+02  0.46589404957E+02  0.00000000000E+00 0. -1.
         11    1    3    3    0    0 -0.29307022212E+02  0.26927954736E+02  0.88605896798E+02  0.97134037518E+02  0.00000000000E+00 0.  1.
<mgrwt>
<rscale>  0 0.89033631E+02</rscale>
<asrwt>0</asrwt>
<pdfrwt beam="2">  1        3 0.23768170E-02 0.89033631E+02</pdfrwt>
<pdfrwt beam="1">  1       -3 0.19734481E-01 0.89033631E+02</pdfrwt>
<totfact> 0.33800717E+04</totfact>
</mgrwt>
</event>
<event>
 5    1  0.1247456E+001  0.8869144E+02  0.7546771E-02  0.1306052E+00
          2   -1    0    0  501    0  0.00000000000E+00  0.00000000000E+00  0.89185158470E+02  0.89185158470E+02  0.00000000000E+00 0. -1.
         -2   -1    0    0    0  501 -0.00000000000E+00 -0.00000000000E+00 -0.22050112131E+02  0.22050112131E+02  0.00000000000E+00 0.  1.
         23    2    1    2    0    0  0.00000000000E+00  0.00000000000E+00  0.67135046339E+02  0.11123527060E+03  0.88691436897E+02 0.  0.
        -13    1    3    3    0    0  0.40166664595E+02 -0.18066145318E+02  0.27075241162E+02  0.51699276933E+02  0.00000000000E+00 0.  1.
         13    1    3    3    0    0 -0.40166664595E+02  0.18066145318E+02  0.40059805177E+02  0.59535993669E+02  0.00000000000E+00 0. -1.
<mgrwt>
<rscale>  0 0.88691437E+02</rscale>
<asrwt>0</asrwt>
<pdfrwt beam="1">  1        2 0.13720793E-01 0.88691437E+02</pdfrwt>
<pdfrwt beam="2">  1       -2 0.33923250E-02 0.88691437E+02</pdfrwt>
<totfact> 0.12792804E+05</totfact>
</mgrwt>
</event>
<event>
 5    1  0.1247456E+001  0.9217499E+02  0.7546771E-02  0.1297669E+00
          2   -1    0    0  501    0  0.00000000000E+00  0.00000000000E+00  0.17265910669E+02  0.17265910669E+02  0.00000000000E+00 0. -1.
         -2   -1    0    0    0  501 -0.00000000000E+00 -0.00000000000E+00 -0.12302027893E+03  0.12302027893E+03  0.00000000000E+00 0.  1.
         23    2    1    2    0    0  0.00000000000E+00  0.00000000000E+00 -0.10575436826E+03  0.14028618960E+03  0.92174988938E+02 0.  0.
        -13    1    3    3    0    0  0.13328115440E+02  0.32848231072E+02 -0.97701594794E+02  0.10393385671E+03  0.00000000000E+00 0.  1.
         13    1    3    3    0    0 -0.13328115440E+02 -0.32848231072E+02 -0.80527734663E+01  0.36352332886E+02  0.00000000000E+00 0. -1.
<mgrwt>
<rscale>  0 0.92174989E+02</rscale>
<asrwt>0</asrwt>
<pdfrwt beam="1">  1        2 0.26562940E-02 0.92174989E+02</pdfrwt>
<pdfrwt beam="2">  1       -2 0.18926197E-01 0.92174989E+02</pdfrwt>
<totfact> 0.72788285E+04</totfact>
</mgrwt>
</event>
<event>
 5    1  0.1247456E+001  0.9020218E+02  0.7546771E-02  0.1302363E+00
         -1   -1    0    0    0  501 -0.00000000000E+00  0.00000000000E+00  0.30419654298E+03  0.30419654298E+03  0.00000000000E+00 0.  1.
          1   -1    0    0  501    0  0.00000000000E+00 -0.00000000000E+00 -0.66868231989E+01  0.66868231989E+01  0.00000000000E+00 0. -1.
         23    2    1    2    0    0  0.00000000000E+00  0.00000000000E+00  0.29750971978E+03  0.31088336618E+03  0.90202184023E+02 0.  0.
        -13    1    3    3    0    0  0.35393727712E+02 -0.19822634468E+02  0.80826491517E+02  0.90435471633E+02  0.00000000000E+00 0. -1.
         13    1    3    3    0    0 -0.35393727712E+02  0.19822634468E+02  0.21668322826E+03  0.22044789454E+03  0.00000000000E+00 0.  1.
<mgrwt>
<rscale>  0 0.90202184E+02</rscale>
<asrwt>0</asrwt>
<pdfrwt beam="2">  1        1 0.10287423E-02 0.90202184E+02</pdfrwt>
<pdfrwt beam="1">  1       -1 0.46799458E-01 0.90202184E+02</pdfrwt>
<totfact> 0.61970287E+04</totfact>
</mgrwt>
</event>
<event>
 5    1  0.1247456E+001  0.6113717E+02  0.7546771E-02  0.1393121E+00
         -2   -1    0    0    0  501 -0.00000000000E+00  0.00000000000E+00  0.45507203591E+02  0.45507203591E+02  0.00000000000E+00 0.  1.
          2   -1    0    0  501    0  0.00000000000E+00 -0.00000000000E+00 -0.20533853915E+02  0.20533853915E+02  0.00000000000E+00 0. -1.
         23    2    1    2    0    0  0.00000000000E+00  0.00000000000E+00  0.24973349676E+02  0.66041057506E+02  0.61137166130E+02 0.  0.
        -13    1    3    3    0    0  0.15916720862E+02 -0.21578495503E+01 -0.15607956663E+02  0.22396576276E+02  0.00000000000E+00 0. -1.
         13    1    3    3    0    0 -0.15916720862E+02  0.21578495503E+01  0.40581306339E+02  0.43644481230E+02  0.00000000000E+00 0.  1.
<mgrwt>
<rscale>  0 0.61137166E+02</rscale>
<asrwt>0</asrwt>
<pdfrwt beam="2">  1        2 0.31590545E-02 0.61137166E+02</pdfrwt>
<pdfrwt beam="1">  1       -2 0.70011082E-02 0.61137166E+02</pdfrwt>
<totfact> 0.25586297E+05</totfact>
</mgrwt>
</event>
<event>
 5    1  0.1247456E+001  0.8613963E+02  0.7546771E-02  0.1312479E+00
         -2   -1    0    0    0  501 -0.00000000000E+00  0.00000000000E+00  0.10475778340E+02  0.10475778340E+02  0.00000000000E+00 0.  1.
          2   -1    0    0  501    0  0.00000000000E+00 -0.00000000000E+00 -0.17707600156E+03  0.17707600156E+03  0.00000000000E+00 0. -1.
         23    2    1    2    0    0  0.00000000000E+00  0.00000000000E+00 -0.16660022322E+03  0.18755177990E+03  0.86139629480E+02 0.  0.
        -11    1    3    3    0    0  0.26023885473E+02  0.10883627161E+02 -0.15416487460E+03  0.15672429459E+03  0.00000000000E+00 0. -1.
         11    1    3    3    0    0 -0.26023885473E+02 -0.10883627161E+02 -0.12435348627E+02  0.30827485314E+02  0.00000000000E+00 0.  1.
<mgrwt>
<rscale>  0 0.86139629E+02</rscale>
<asrwt>0</asrwt>
<pdfrwt beam="2">  1        2 0.27242460E-01 0.86139629E+02</pdfrwt>
<pdfrwt beam="1">  1       -2 0.16116583E-02 0.86139629E+02</pdfrwt>
<totfact> 0.17254244E+05</totfact>
</mgrwt>
</event>
<event>
 5    1  0.1247456E+001  0.8976433E+02  0.7546771E-02  0.1303423E+00
          3   -1    0    0  501    0  0.00000000000E+00  0.00000000000E+00  0.22010337168E+03  0.22010337168E+03  0.00000000000E+00 0. -1.
         -3   -1    0    0    0  501 -0.00000000000E+00 -0.00000000000E+00 -0.91521028488E+01  0.91521028488E+01  0.00000000000E+00 0.  1.
         23    2    1    2    0    0  0.00000000000E+00  0.00000000000E+00  0.21095126883E+03  0.22925547453E+03  0.89764329106E+02 0.  0.
        -13    1    3    3    0    0  0.25359956414E+02 -0.35048004266E+02  0.13600800032E+03  0.14272233933E+03  0.00000000000E+00 0. -1.
         13    1    3    3    0    0 -0.25359956414E+02  0.35048004266E+02  0.74943268505E+02  0.86533135195E+02  0.00000000000E+00 0.  1.
<mgrwt>
<rscale>  0 0.89764329E+02</rscale>
<asrwt>0</asrwt>
<pdfrwt beam="1">  1        3 0.33862053E-01 0.89764329E+02</pdfrwt>
<pdfrwt beam="2">  1       -3 0.14080160E-02 0.89764329E+02</pdfrwt>
<totfact> 0.28212901E+04</totfact>
</mgrwt>
</event>
<event>
 5    1  0.1247456E+001  0.8959826E+02  0.7546771E-02  0.1303827E+00
         -3   -1    0    0    0  501 -0.00000000000E+00  0.00000000000E+00  0.15377656206E+02  0.15377656206E+02  0.00000000000E+00 0.  1.
          3   -1    0    0  501    0  0.00000000000E+00 -0.00000000000E+00 -0.13051157802E+03  0.13051157802E+03  0.00000000000E+00 0. -1.
         23    2    1    2    0    0  0.00000000000E+00  0.00000000000E+00 -0.11513392181E+03  0.14588923422E+03  0.89598262878E+02 0.  0.
        -13    1    3    3    0    0 -0.23915313072E+02 -0.37050933141E+02 -0.44720381268E+02  0.62806260410E+02  0.00000000000E+00 0. -1.
         13    1    3    3    0    0  0.23915313072E+02  0.37050933141E+02 -0.70413540545E+02  0.83082973815E+02  0.00000000000E+00 0.  1.
<mgrwt>
<rscale>  0 0.89598263E+02</rscale>
<asrwt>0</asrwt>
<pdfrwt beam="2">  1        3 0.20078705E-01 0.89598263E+02</pdfrwt>
<pdfrwt beam="1">  1       -3 0.23657932E-02 0.89598263E+02</pdfrwt>
<totfact> 0.33085675E+04</totfact>
</mgrwt>
</event>
<event>
 5    1  0.1247456E+001  0.9161136E+02  0.7546771E-02  0.1298996E+00
         -2   -1    0    0    0  501 -0.00000000000E+00  0.00000000000E+00  0.84027802818E+02  0.84027802818E+02  0.00000000000E+00 0.  1.
          2   -1    0    0  501    0  0.00000000000E+00 -0.00000000000E+00 -0.24969835370E+02  0.24969835370E+02  0.00000000000E+00 0. -1.
         23    2    1    2    0    0  0.00000000000E+00  0.00000000000E+00  0.59057967448E+02  0.10899763819E+03  0.91611361804E+02 0.  0.
        -11    1    3    3    0    0 -0.17383438441E+02  0.34773210655E+02  0.58350240127E+02  0.70114981524E+02  0.00000000000E+00 0.  1.
         11    1    3    3    0    0  0.17383438441E+02 -0.34773210655E+02  0.70772732115E+00  0.38882656664E+02  0.00000000000E+00 0. -1.
<mgrwt>
<rscale>  0 0.91611362E+02</rscale>
<asrwt>0</asrwt>
<pdfrwt beam="2">  1        2 0.38415132E-02 0.91611362E+02</pdfrwt>
<pdfrwt beam="1">  1       -2 0.12927354E-01 0.91611362E+02</pdfrwt>
<totfact> 0.82945696E+04</totfact>
</mgrwt>
</event>
<event>
 5    1  0.1247456E+001  0.9144966E+02  0.7546771E-02  0.1299379E+00
          1   -1    0    0  501    0  0.00000000000E+00  0.00000000000E+00  0.15830069853E+03  0.15830069853E+03  0.00000000000E+00 0. -1.
         -1   -1    0    0    0  501 -0.00000000000E+00 -0.00000000000E+00 -0.13207522382E+02  0.13207522382E+02  0.00000000000E+00 0.  1.
         23    2    1    2    0    0  0.00000000000E+00  0.00000000000E+00  0.14509317615E+03  0.17150822091E+03  0.91449658697E+02 0.  0.
        -11    1    3    3    0    0 -0.40041687048E+01 -0.31953686186E+02  0.13342439400E+03  0.13725574794E+03  0.00000000000E+00 0. -1.
         11    1    3    3    0    0  0.40041687048E+01  0.31953686186E+02  0.11668782146E+02  0.34252472972E+02  0.00000000000E+00 0.  1.
<mgrwt>
<rscale>  0 0.91449659E+02</rscale>
<asrwt>0</asrwt>
<pdfrwt beam="1">  1        1 0.24353952E-01 0.91449659E+02</pdfrwt>
<pdfrwt beam="2">  1       -1 0.20319266E-02 0.91449659E+02</pdfrwt>
<totfact> 0.11234588E+05</totfact>
</mgrwt>
</event>
<event>
 5    1  0.1247456E+001  0.8915350E+02  0.7546771E-02  0.1304915E+00
         -1   -1    0    0    0  501 -0.00000000000E+00  0.00000000000E+00  0.89527632799E+01  0.89527632799E+01  0.00000000000E+00 0.  1.
          1   -1    0    0  501    0  0.00000000000E+00 -0.00000000000E+00 -0.22195232146E+03  0.22195232146E+03  0.00000000000E+00 0. -1.
         23    2    1    2    0    0  0.00000000000E+00  0.00000000000E+00 -0.21299955818E+03  0.23090508474E+03  0.89153498944E+02 0.  0.
        -11    1    3    3    0    0  0.22245423641E+02  0.38559632908E+02 -0.11250853166E+03  0.12099534643E+03  0.00000000000E+00 0.  1.
         11    1    3    3    0    0 -0.22245423641E+02 -0.38559632908E+02 -0.10049102653E+03  0.10990973831E+03  0.00000000000E+00 0. -1.
<mgrwt>
<rscale>  0 0.89153499E+02</rscale>
<asrwt>0</asrwt>
<pdfrwt beam="2">  1        1 0.34146513E-01 0.89153499E+02</pdfrwt>
<pdfrwt beam="1">  1       -1 0.13773481E-02 0.89153499E+02</pdfrwt>
<totfact> 0.12829861E+05</totfact>
</mgrwt>
</event>
<event>
 5    1  0.1247456E+001  0.9005450E+02  0.7546771E-02  0.1302720E+00
         -1   -1    0    0    0  501 -0.00000000000E+00  0.00000000000E+00  0.63527628159E+01  0.63527628159E+01  0.00000000000E+00 0.  1.
          1   -1    0    0  501    0  0.00000000000E+00 -0.00000000000E+00 -0.31914511513E+03  0.31914511513E+03  0.00000000000E+00 0. -1.
         23    2    1    2    0    0  0.00000000000E+00  0.00000000000E+00 -0.31279235231E+03  0.32549787794E+03  0.90054499504E+02 0.  0.
        -11    1    3    3    0    0  0.10054261564E+02 -0.42227865983E+02 -0.19964480724E+03  0.20430939748E+03  0.00000000000E+00 0. -1.
         11    1    3    3    0    0 -0.10054261564E+02  0.42227865983E+02 -0.11314754507E+03  0.12118848046E+03  0.00000000000E+00 0.  1.
<mgrwt>
<rscale>  0 0.90054500E+02</rscale>
<asrwt>0</asrwt>
<pdfrwt beam="2">  1        1 0.49099243E-01 0.90054500E+02</pdfrwt>
<pdfrwt beam="1">  1       -1 0.97734824E-03 0.90054500E+02</pdfrwt>
<totfact> 0.13396767E+05</totfact>
</mgrwt>
</event>
<event>
 5    1  0.1247456E+001  0.9191080E+02  0.7546771E-02  0.1298289E+00
         -1   -1    0    0    0  501 -0.00000000000E+00  0.00000000000E+00  0.64719489890E+02  0.64719489890E+02  0.00000000000E+00 0.  1.
          1   -1    0    0  501    0  0.00000000000E+00 -0.00000000000E+00 -0.32631575513E+02  0.32631575513E+02  0.00000000000E+00 0. -1.
         23    2    1    2    0    0  0.00000000000E+00  0.00000000000E+00  0.32087914377E+02  0.97351065404E+02  0.91910802881E+02 0.  0.
        -13    1    3    3    0    0  0.29588763048E+02 -0.34956402909E+02  0.20070821065E+02  0.50002828533E+02  0.00000000000E+00 0. -1.
         13    1    3    3    0    0 -0.29588763048E+02  0.34956402909E+02  0.12017093312E+02  0.47348236871E+02  0.00000000000E+00 0.  1.
<mgrwt>
<rscale>  0 0.91910803E+02</rscale>
<asrwt>0</asrwt>
<pdfrwt beam="2">  1        1 0.50202424E-02 0.91910803E+02</pdfrwt>
<pdfrwt beam="1">  1       -1 0.99568446E-02 0.91910803E+02</pdfrwt>
<totfact> 0.85862133E+04</totfact>
</mgrwt>
</event>
<event>
 5    1  0.1247456E+001  0.8905608E+02  0.7546771E-02  0.1305154E+00
         -2   -1    0    0    0  501 -0.00000000000E+00  0.00000000000E+00  0.16847552294E+02  0.16847552294E+02  0.00000000000E+00 0.  1.
          2   -1    0    0  501    0  0.00000000000E+00 -0.00000000000E+00 -0.11768748925E+03  0.11768748925E+03  0.00000000000E+00 0. -1.
         23    2    1    2    0    0  0.00000000000E+00  0.00000000000E+00 -0.10083993695E+03  0.13453504154E+03  0.89056075132E+02 0.  0.
        -11    1    3    3    0    0  0.20984840266E+02  0.19011535699E+02 -0.10233421319E+03  0.10617953287E+03  0.00000000000E+00 0. -1.
         11    1    3    3    0    0 -0.20984840266E+02 -0.19011535699E+02  0.14942762389E+01  0.28355508673E+02  0.00000000000E+00 0.  1.
<mgrwt>
<rscale>  0 0.89056075E+02</rscale>
<asrwt>0</asrwt>
<pdfrwt beam="2">  1        2 0.18105767E-01 0.89056075E+02</pdfrwt>
<pdfrwt beam="1">  1       -2 0.25919312E-02 0.89056075E+02</pdfrwt>
<totfact> 0.13762152E+05</totfact>
</mgrwt>
</event>
<event>
 5    1  0.1247456E+001  0.8691837E+02  0.7546771E-02  0.1310491E+00
         -2   -1    0    0    0  501 -0.00000000000E+00  0.00000000000E+00  0.81975306032E+01  0.81975306032E+01  0.00000000000E+00 0.  1.
          2   -1    0    0  501    0  0.00000000000E+00 -0.00000000000E+00 -0.23039876373E+03  0.23039876373E+03  0.00000000000E+00 0. -1.
         23    2    1    2    0    0  0.00000000000E+00  0.00000000000E+00 -0.22220123313E+03  0.23859629433E+03  0.86918373584E+02 0.  0.
        -13    1    3    3    0    0 -0.14600096938E+02 -0.33923031975E+02 -0.17398386124E+03  0.17786039160E+03  0.00000000000E+00 0. -1.
         13    1    3    3    0    0  0.14600096938E+02  0.33923031975E+02 -0.48217371891E+02  0.60735902734E+02  0.00000000000E+00 0.  1.
<mgrwt>
<rscale>  0 0.86918374E+02</rscale>
<asrwt>0</asrwt>
<pdfrwt beam="2">  1        2 0.35445970E-01 0.86918374E+02</pdfrwt>
<pdfrwt beam="1">  1       -2 0.12611583E-02 0.86918374E+02</pdfrwt>
<totfact> 0.18510051E+05</totfact>
</mgrwt>
</event>
<event>
 5    1  0.1247456E+001  0.9007925E+02  0.7546771E-02  0.1302660E+00
         -1   -1    0    0    0  501 -0.00000000000E+00  0.00000000000E+00  0.12419902196E+03  0.12419902196E+03  0.00000000000E+00 0.  1.
          1   -1    0    0  501    0  0.00000000000E+00 -0.00000000000E+00 -0.16333203979E+02  0.16333203979E+02  0.00000000000E+00 0. -1.
         23    2    1    2    0    0  0.00000000000E+00  0.00000000000E+00  0.10786581798E+03  0.14053222594E+03  0.90079253097E+02 0.  0.
        -11    1    3    3    0    0  0.36941878372E+02  0.17282326573E+02  0.83746114006E+02  0.93149303811E+02  0.00000000000E+00 0. -1.
         11    1    3    3    0    0 -0.36941878372E+02 -0.17282326573E+02  0.24119703973E+02  0.47382922126E+02  0.00000000000E+00 0.  1.
<mgrwt>
<rscale>  0 0.90079253E+02</rscale>
<asrwt>0</asrwt>
<pdfrwt beam="2">  1        1 0.25128007E-02 0.90079253E+02</pdfrwt>
<pdfrwt beam="1">  1       -1 0.19107541E-01 0.90079253E+02</pdfrwt>
<totfact> 0.80453579E+04</totfact>
</mgrwt>
</event>
<event>
 5    1  0.1247456E+001  0.9096440E+02  0.7546771E-02  0.1300533E+00
          1   -1    0    0  501    0  0.00000000000E+00  0.00000000000E+00  0.58259176065E+02  0.58259176065E+02  0.00000000000E+00 0. -1.
         -1   -1    0    0    0  501 -0.00000000000E+00 -0.00000000000E+00 -0.35507380091E+02  0.35507380091E+02  0.00000000000E+00 0.  1.
         23    2    1    2    0    0  0.00000000000E+00  0.00000000000E+00  0.22751795974E+02  0.93766556156E+02  0.90964404210E+02 0.  0.
        -13    1    3    3    0    0 -0.16219010183E+02  0.36339227479E+02 -0.11326043969E+02  0.41374811384E+02  0.00000000000E+00 0.  1.
         13    1    3    3    0    0  0.16219010183E+02 -0.36339227479E+02  0.34077839943E+02  0.52391744772E+02  0.00000000000E+00 0. -1.
<mgrwt>
<rscale>  0 0.90964404E+02</rscale>
<asrwt>0</asrwt>
<pdfrwt beam="1">  1        1 0.89629501E-02 0.90964404E+02</pdfrwt>
<pdfrwt beam="2">  1       -1 0.54626739E-02 0.90964404E+02</pdfrwt>
<totfact> 0.96567006E+04</totfact>
</mgrwt>
</event>
<event>
 5    1  0.1247456E+001  0.9831724E+02  0.7546771E-02  0.1283875E+00
         -1   -1    0    0    0  501 -0.00000000000E+00  0.00000000000E+00  0.95025429124E+02  0.95025429124E+02  0.00000000000E+00 0.  1.
          1   -1    0    0  501    0  0.00000000000E+00 -0.00000000000E+00 -0.25430773125E+02  0.25430773125E+02  0.00000000000E+00 0. -1.
         23    2    1    2    0    0  0.00000000000E+00  0.00000000000E+00  0.69594655999E+02  0.12045620225E+03  0.98317244248E+02 0.  0.
        -11    1    3    3    0    0  0.30864241892E+02 -0.31695985082E+02  0.61055434328E+02  0.75398958606E+02  0.00000000000E+00 0.  1.
         11    1    3    3    0    0 -0.30864241892E+02  0.31695985082E+02  0.85392216710E+01  0.45057243642E+02  0.00000000000E+00 0. -1.
<mgrwt>
<rscale>  0 0.98317244E+02</rscale>
<asrwt>0</asrwt>
<pdfrwt beam="2">  1        1 0.39124267E-02 0.98317244E+02</pdfrwt>
<pdfrwt beam="1">  1       -1 0.14619297E-01 0.98317244E+02</pdfrwt>
<totfact> 0.67635311E+04</totfact>
</mgrwt>
</event>
<event>
 5    1  0.1247456E+001  0.9118715E+02  0.7546771E-02  0.1300002E+00
         -3   -1    0    0    0  501 -0.00000000000E+00  0.00000000000E+00  0.96814449597E+02  0.96814449597E+02  0.00000000000E+00 0.  1.
          3   -1    0    0  501    0  0.00000000000E+00 -0.00000000000E+00 -0.21471735892E+02  0.21471735892E+02  0.00000000000E+00 0. -1.
         23    2    1    2    0    0  0.00000000000E+00  0.00000000000E+00  0.75342713705E+02  0.11828618549E+03  0.91187154627E+02 0.  0.
        -11    1    3    3    0    0  0.15253940062E+02  0.31596660950E+02 -0.97372290664E-01  0.35086196032E+02  0.00000000000E+00 0. -1.
         11    1    3    3    0    0 -0.15253940062E+02 -0.31596660950E+02  0.75440085996E+02  0.83199989457E+02  0.00000000000E+00 0.  1.
<mgrwt>
<rscale>  0 0.91187155E+02</rscale>
<asrwt>0</asrwt>
<pdfrwt beam="2">  1        3 0.33033440E-02 0.91187155E+02</pdfrwt>
<pdfrwt beam="1">  1       -3 0.14894530E-01 0.91187155E+02</pdfrwt>
<totfact> 0.33355362E+04</totfact>
</mgrwt>
</event>
<event>
 5    1  0.1247456E+001  0.9158057E+02  0.7546771E-02  0.1299069E+00
         -3   -1    0    0    0  501 -0.00000000000E+00  0.00000000000E+00  0.11665412678E+03  0.11665412678E+03  0.00000000000E+00 0.  1.
          3   -1    0    0  501    0  0.00000000000E+00 -0.00000000000E+00 -0.17974076450E+02  0.17974076450E+02  0.00000000000E+00 0. -1.
         23    2    1    2    0    0  0.00000000000E+00  0.00000000000E+00  0.98680050329E+02  0.13462820323E+03  0.91580569838E+02 0.  0.
        -13    1    3    3    0    0 -0.14423665430E+02  0.28616820826E+02  0.97421866280E+02  0.10255722592E+03  0.00000000000E+00 0.  1.
         13    1    3    3    0    0  0.14423665430E+02 -0.28616820826E+02  0.12581840490E+01  0.32070977311E+02  0.00000000000E+00 0. -1.
<mgrwt>
<rscale>  0 0.91580570E+02</rscale>
<asrwt>0</asrwt>
<pdfrwt beam="2">  1        3 0.27652426E-02 0.91580570E+02</pdfrwt>
<pdfrwt beam="1">  1       -3 0.17946788E-01 0.91580570E+02</pdfrwt>
<totfact> 0.31890456E+04</totfact>
</mgrwt>
</event>
<event>
 5    1  0.1247456E+001  0.9103607E+02  0.7546771E-02  0.1300362E+00
         -1   -1    0    0    0  501 -0.00000000000E+00  0.00000000000E+00  0.38364986976E+02  0.38364986976E+02  0.00000000000E+00 0.  1.
          1   -1    0    0  501    0  0.00000000000E+00 -0.00000000000E+00 -0.54004752110E+02  0.54004752110E+02  0.00000000000E+00 0. -1.
         23    2    1    2    0    0  0.00000000000E+00  0.00000000000E+00 -0.15639765133E+02  0.92369739086E+02  0.91036072221E+02 0.  0.
        -11    1    3    3    0    0  0.17055778633E+02  0.29364312981E+02 -0.38574473384E+02  0.51392143937E+02  0.00000000000E+00 0. -1.
         11    1    3    3    0    0 -0.17055778633E+02 -0.29364312981E+02  0.22934708250E+02  0.40977595149E+02  0.00000000000E+00 0.  1.
<mgrwt>
<rscale>  0 0.91036072E+02</rscale>
<asrwt>0</asrwt>
<pdfrwt beam="2">  1        1 0.83084234E-02 0.91036072E+02</pdfrwt>
<pdfrwt beam="1">  1       -1 0.59023057E-02 0.91036072E+02</pdfrwt>
<totfact> 0.95264081E+04</totfact>
</mgrwt>
</event>
<event>
 5    1  0.1247456E+001  0.9110379E+02  0.7546771E-02  0.1300201E+00
         -1   -1    0    0    0  501 -0.00000000000E+00  0.00000000000E+00  0.85791685260E+02  0.85791685260E+02  0.00000000000E+00 0. -1.
          1   -1    0    0  501    0  0.00000000000E+00 -0.00000000000E+00 -0.24186204739E+02  0.24186204739E+02  0.00000000000E+00 0.  1.
         23    2    1    2    0    0  0.00000000000E+00  0.00000000000E+00  0.61605480521E+02  0.10997789000E+03  0.91103792777E+02 0.  0.
        -11    1    3    3    0    0 -0.31429933134E+02 -0.13838392850E+02 -0.53244410294E+01  0.34751855860E+02  0.00000000000E+00 0.  1.
         11    1    3    3    0    0  0.31429933134E+02  0.13838392850E+02  0.66929921551E+02  0.75226034139E+02  0.00000000000E+00 0. -1.
<mgrwt>
<rscale>  0 0.91103793E+02</rscale>
<asrwt>0</asrwt>
<pdfrwt beam="2">  1        1 0.37209546E-02 0.91103793E+02</pdfrwt>
<pdfrwt beam="1">  1       -1 0.13198721E-01 0.91103793E+02</pdfrwt>
<totfact> 0.83814865E+04</totfact>
</mgrwt>
</event>
<event>
 5    1  0.1247456E+001  0.9154484E+02  0.7546771E-02  0.1299153E+00
          4   -1    0    0  501    0  0.00000000000E+00  0.00000000000E+00  0.13699550714E+02  0.13699550714E+02  0.00000000000E+00 0. -1.
         -4   -1    0    0    0  501 -0.00000000000E+00 -0.00000000000E+00 -0.15293309014E+03  0.15293309014E+03  0.00000000000E+00 0.  1.
         23    2    1    2    0    0  0.00000000000E+00  0.00000000000E+00 -0.13923353942E+03  0.16663264085E+03  0.91544844183E+02 0.  0.
        -13    1    3    3    0    0 -0.80923758024E+01  0.38494076381E+02 -0.11222080567E+03  0.11891505240E+03  0.00000000000E+00 0.  1.
         13    1    3    3    0    0  0.80923758024E+01 -0.38494076381E+02 -0.27012733754E+02  0.47717588449E+02  0.00000000000E+00 0. -1.
<mgrwt>
<rscale>  0 0.91544844E+02</rscale>
<asrwt>0</asrwt>
<pdfrwt beam="1">  1        4 0.21076234E-02 0.91544844E+02</pdfrwt>
<pdfrwt beam="2">  1       -4 0.23528166E-01 0.91544844E+02</pdfrwt>
<totfact> 0.22618405E+04</totfact>
</mgrwt>
</event>
<event>
 5    1  0.1247456E+001  0.8895749E+02  0.7546771E-02  0.1305396E+00
          2   -1    0    0  501    0  0.00000000000E+00  0.00000000000E+00  0.94750433149E+02  0.94750433149E+02  0.00000000000E+00 0. -1.
         -2   -1    0    0    0  501 -0.00000000000E+00 -0.00000000000E+00 -0.20879679565E+02  0.20879679565E+02  0.00000000000E+00 0.  1.
         23    2    1    2    0    0  0.00000000000E+00  0.00000000000E+00  0.73870753584E+02  0.11563011271E+03  0.88957488337E+02 0.  0.
        -11    1    3    3    0    0  0.29431323735E+02 -0.32248028146E+02  0.47981727373E+02  0.64872060996E+02  0.00000000000E+00 0.  1.
         11    1    3    3    0    0 -0.29431323735E+02  0.32248028146E+02  0.25889026211E+02  0.50758051718E+02  0.00000000000E+00 0. -1.
<mgrwt>
<rscale>  0 0.88957488E+02</rscale>
<asrwt>0</asrwt>
<pdfrwt beam="1">  1        2 0.14576990E-01 0.88957488E+02</pdfrwt>
<pdfrwt beam="2">  1       -2 0.32122584E-02 0.88957488E+02</pdfrwt>
<totfact> 0.12916101E+05</totfact>
</mgrwt>
</event>
<event>
 5    1  0.1247456E+001  0.9211793E+02  0.7546771E-02  0.1297802E+00
         -2   -1    0    0    0  501 -0.00000000000E+00  0.00000000000E+00  0.28532456353E+03  0.28532456353E+03  0.00000000000E+00 0.  1.
          2   -1    0    0  501    0  0.00000000000E+00 -0.00000000000E+00 -0.74351410553E+01  0.74351410553E+01  0.00000000000E+00 0. -1.
         23    2    1    2    0    0  0.00000000000E+00  0.00000000000E+00  0.27788942248E+03  0.29275970459E+03  0.92117932596E+02 0.  0.
        -13    1    3    3    0    0 -0.45104011425E+02  0.92524374853E+01  0.14277023477E+03  0.15001106420E+03  0.00000000000E+00 0.  1.
         13    1    3    3    0    0  0.45104011425E+02 -0.92524374853E+01  0.13511918771E+03  0.14274864039E+03  0.00000000000E+00 0. -1.
<mgrwt>
<rscale>  0 0.92117933E+02</rscale>
<asrwt>0</asrwt>
<pdfrwt beam="2">  1        2 0.11438681E-02 0.92117933E+02</pdfrwt>
<pdfrwt beam="1">  1       -2 0.43896078E-01 0.92117933E+02</pdfrwt>
<totfact> 0.51067621E+04</totfact>
</mgrwt>
</event>
<event>
 5    1  0.1247456E+001  0.9563694E+02  0.7546771E-02  0.1289748E+00
         -2   -1    0    0    0  501 -0.00000000000E+00  0.00000000000E+00  0.13017004567E+02  0.13017004567E+02  0.00000000000E+00 0.  1.
          2   -1    0    0  501    0  0.00000000000E+00 -0.00000000000E+00 -0.17566299275E+03  0.17566299275E+03  0.00000000000E+00 0. -1.
         23    2    1    2    0    0  0.00000000000E+00  0.00000000000E+00 -0.16264598818E+03  0.18867999732E+03  0.95636938028E+02 0.  0.
        -11    1    3    3    0    0  0.33233963587E+02  0.33920482756E+01 -0.13822782278E+02  0.36153445716E+02  0.00000000000E+00 0.  1.
         11    1    3    3    0    0 -0.33233963587E+02 -0.33920482756E+01 -0.14882320591E+03  0.15252655160E+03  0.00000000000E+00 0. -1.
<mgrwt>
<rscale>  0 0.95636938E+02</rscale>
<asrwt>0</asrwt>
<pdfrwt beam="2">  1        2 0.27025075E-01 0.95636938E+02</pdfrwt>
<pdfrwt beam="1">  1       -2 0.20026161E-02 0.95636938E+02</pdfrwt>
<totfact> 0.12973086E+05</totfact>
</mgrwt>
</event>
<event>
 5    1  0.1247456E+001  0.9194233E+02  0.7546771E-02  0.1298215E+00
          1   -1    0    0  501    0  0.00000000000E+00  0.00000000000E+00  0.14785695883E+02  0.14785695883E+02  0.00000000000E+00 0. -1.
         -1   -1    0    0    0  501 -0.00000000000E+00 -0.00000000000E+00 -0.14293193605E+03  0.14293193605E+03  0.00000000000E+00 0.  1.
         23    2    1    2    0    0  0.00000000000E+00  0.00000000000E+00 -0.12814624016E+03  0.15771763193E+03  0.91942332760E+02 0.  0.
        -11    1    3    3    0    0 -0.35358727275E+02 -0.17235290363E+02 -0.23260601503E+02  0.45698472739E+02  0.00000000000E+00 0. -1.
         11    1    3    3    0    0  0.35358727275E+02  0.17235290363E+02 -0.10488563866E+03  0.11201915919E+03  0.00000000000E+00 0.  1.
<mgrwt>
<rscale>  0 0.91942333E+02</rscale>
<asrwt>0</asrwt>
<pdfrwt beam="1">  1        1 0.22747223E-02 0.91942333E+02</pdfrwt>
<pdfrwt beam="2">  1       -1 0.21989530E-01 0.91942333E+02</pdfrwt>
<totfact> 0.74001560E+04</totfact>
</mgrwt>
</event>
<event>
 5    1  0.1247456E+001  0.9168041E+02  0.7546771E-02  0.1298833E+00
         -2   -1    0    0    0  501 -0.00000000000E+00  0.00000000000E+00  0.10012670256E+02  0.10012670256E+02  0.00000000000E+00 0. -1.
          2   -1    0    0  501    0  0.00000000000E+00 -0.00000000000E+00 -0.20986651286E+03  0.20986651286E+03  0.00000000000E+00 0.  1.
         23    2    1    2    0    0  0.00000000000E+00  0.00000000000E+00 -0.19985384260E+03  0.21987918311E+03  0.91680405561E+02 0.  0.
        -13    1    3    3    0    0  0.43405781141E+02 -0.13190321828E+02 -0.11570448706E+03  0.12428022671E+03  0.00000000000E+00 0.  1.
         13    1    3    3    0    0 -0.43405781141E+02  0.13190321828E+02 -0.84149355543E+02  0.95598956399E+02  0.00000000000E+00 0. -1.
<mgrwt>
<rscale>  0 0.91680406E+02</rscale>
<asrwt>0</asrwt>
<pdfrwt beam="2">  1        2 0.32287157E-01 0.91680406E+02</pdfrwt>
<pdfrwt beam="1">  1       -2 0.15404108E-02 0.91680406E+02</pdfrwt>
<totfact> 0.15508955E+05</totfact>
</mgrwt>
</event>
<event>
 5    1  0.1247456E+001  0.8981976E+02  0.7546771E-02  0.1303289E+00
          2   -1    0    0  501    0  0.00000000000E+00  0.00000000000E+00  0.42482300655E+03  0.42482300655E+03  0.00000000000E+00 0.  1.
         -2   -1    0    0    0  501 -0.00000000000E+00 -0.00000000000E+00 -0.47476176056E+01  0.47476176056E+01  0.00000000000E+00 0. -1.
         23    2    1    2    0    0  0.00000000000E+00  0.00000000000E+00  0.42007538894E+03  0.42957062415E+03  0.89819756961E+02 0.  0.
        -13    1    3    3    0    0  0.55768935184E+01 -0.43554022909E+02  0.25511657926E+03  0.25886777256E+03  0.00000000000E+00 0.  1.
         13    1    3    3    0    0 -0.55768935184E+01  0.43554022909E+02  0.16495880968E+03  0.17070285160E+03  0.00000000000E+00 0. -1.
<mgrwt>
<rscale>  0 0.89819757E+02</rscale>
<asrwt>0</asrwt>
<pdfrwt beam="1">  1        2 0.65357356E-01 0.89819757E+02</pdfrwt>
<pdfrwt beam="2">  1       -2 0.73040304E-03 0.89819757E+02</pdfrwt>
<totfact> 0.21219236E+05</totfact>
</mgrwt>
</event>
<event>
 5    1  0.1247456E+001  0.9033801E+02  0.7546771E-02  0.1302035E+00
          3   -1    0    0  501    0  0.00000000000E+00  0.00000000000E+00  0.50542731481E+02  0.50542731481E+02  0.00000000000E+00 0. -1.
         -3   -1    0    0    0  501 -0.00000000000E+00 -0.00000000000E+00 -0.40366615272E+02  0.40366615272E+02  0.00000000000E+00 0.  1.
         23    2    1    2    0    0  0.00000000000E+00  0.00000000000E+00  0.10176116209E+02  0.90909346753E+02  0.90338009642E+02 0.  0.
        -11    1    3    3    0    0 -0.15204433272E+02  0.41344679182E+02 -0.49591582911E+01  0.44330018484E+02  0.00000000000E+00 0.  1.
         11    1    3    3    0    0  0.15204433272E+02 -0.41344679182E+02  0.15135274500E+02  0.46579328269E+02  0.00000000000E+00 0. -1.
<mgrwt>
<rscale>  0 0.90338010E+02</rscale>
<asrwt>0</asrwt>
<pdfrwt beam="1">  1        3 0.77758049E-02 0.90338010E+02</pdfrwt>
<pdfrwt beam="2">  1       -3 0.62102485E-02 0.90338010E+02</pdfrwt>
<totfact> 0.36259727E+04</totfact>
</mgrwt>
</event>
<event>
 5    1  0.1247456E+001  0.9168590E+02  0.7546771E-02  0.1298820E+00
          3   -1    0    0  501    0  0.00000000000E+00  0.00000000000E+00  0.29879899357E+02  0.29879899357E+02  0.00000000000E+00 0. -1.
         -3   -1    0    0    0  501 -0.00000000000E+00 -0.00000000000E+00 -0.70334106160E+02  0.70334106160E+02  0.00000000000E+00 0.  1.
         23    2    1    2    0    0  0.00000000000E+00  0.00000000000E+00 -0.40454206803E+02  0.10021400552E+03  0.91685898882E+02 0.  0.
        -13    1    3    3    0    0 -0.29112764620E+02 -0.15200062207E+02 -0.55186157251E+02  0.64219209798E+02  0.00000000000E+00 0.  1.
         13    1    3    3    0    0  0.29112764620E+02  0.15200062207E+02  0.14731950448E+02  0.35994795720E+02  0.00000000000E+00 0. -1.
<mgrwt>
<rscale>  0 0.91685899E+02</rscale>
<asrwt>0</asrwt>
<pdfrwt beam="1">  1        3 0.45969076E-02 0.91685899E+02</pdfrwt>
<pdfrwt beam="2">  1       -3 0.10820632E-01 0.91685899E+02</pdfrwt>
<totfact> 0.34134184E+04</totfact>
</mgrwt>
</event>
<event>
 5    1  0.1247456E+001  0.9530344E+02  0.7546771E-02  0.1290494E+00
          4   -1    0    0  501    0  0.00000000000E+00  0.00000000000E+00  0.11662520359E+02  0.11662520359E+02  0.00000000000E+00 0. -1.
         -4   -1    0    0    0  501 -0.00000000000E+00 -0.00000000000E+00 -0.19469944931E+03  0.19469944931E+03  0.00000000000E+00 0.  1.
         23    2    1    2    0    0  0.00000000000E+00  0.00000000000E+00 -0.18303692896E+03  0.20636196967E+03  0.95303437326E+02 0.  0.
        -13    1    3    3    0    0 -0.35640376439E+02  0.29624995000E+02 -0.67522559446E+02  0.81897330821E+02  0.00000000000E+00 0. -1.
         13    1    3    3    0    0  0.35640376439E+02 -0.29624995000E+02 -0.11551436951E+03  0.12446463885E+03  0.00000000000E+00 0.  1.
<mgrwt>
<rscale>  0 0.95303437E+02</rscale>
<asrwt>0</asrwt>
<pdfrwt beam="1">  1        4 0.17942337E-02 0.95303437E+02</pdfrwt>
<pdfrwt beam="2">  1       -4 0.29953765E-01 0.95303437E+02</pdfrwt>
<totfact> 0.18753949E+04</totfact>
</mgrwt>
</event>
<event>
 5    1  0.1247456E+001  0.9035833E+02  0.7546771E-02  0.1301986E+00
         -1   -1    0    0    0  501 -0.00000000000E+00  0.00000000000E+00  0.33044368173E+03  0.33044368173E+03  0.00000000000E+00 0.  1.
          1   -1    0    0  501    0  0.00000000000E+00 -0.00000000000E+00 -0.61770195031E+01  0.61770195031E+01  0.00000000000E+00 0. -1.
         23    2    1    2    0    0  0.00000000000E+00  0.00000000000E+00  0.32426666223E+03  0.33662070123E+03  0.90358332582E+02 0.  0.
        -11    1    3    3    0    0 -0.41075614091E+02  0.18513870670E+02  0.14967267767E+03  0.15630700535E+03  0.00000000000E+00 0.  1.
         11    1    3    3    0    0  0.41075614091E+02 -0.18513870670E+02  0.17459398456E+03  0.18031369589E+03  0.00000000000E+00 0. -1.
<mgrwt>
<rscale>  0 0.90358333E+02</rscale>
<asrwt>0</asrwt>
<pdfrwt beam="2">  1        1 0.95031095E-03 0.90358333E+02</pdfrwt>
<pdfrwt beam="1">  1       -1 0.50837476E-01 0.90358333E+02</pdfrwt>
<totfact> 0.59622543E+04</totfact>
</mgrwt>
</event>
<event>
 5    1  0.1247456E+001  0.9146389E+02  0.7546771E-02  0.1299345E+00
         -1   -1    0    0    0  501 -0.00000000000E+00  0.00000000000E+00  0.17235188608E+03  0.17235188608E+03  0.00000000000E+00 0.  1.
          1   -1    0    0  501    0  0.00000000000E+00 -0.00000000000E+00 -0.12134538908E+02  0.12134538908E+02  0.00000000000E+00 0. -1.
         23    2    1    2    0    0  0.00000000000E+00  0.00000000000E+00  0.16021734718E+03  0.18448642499E+03  0.91463887247E+02 0.  0.
        -13    1    3    3    0    0  0.33164909443E+02 -0.30875081461E+02  0.92579925706E+02  0.10307387893E+03  0.00000000000E+00 0. -1.
         13    1    3    3    0    0 -0.33164909443E+02  0.30875081461E+02  0.67637421471E+02  0.81412546065E+02  0.00000000000E+00 0.  1.
<mgrwt>
<rscale>  0 0.91463887E+02</rscale>
<asrwt>0</asrwt>
<pdfrwt beam="2">  1        1 0.18668523E-02 0.91463887E+02</pdfrwt>
<pdfrwt beam="1">  1       -1 0.26515673E-01 0.91463887E+02</pdfrwt>
<totfact> 0.71694930E+04</totfact>
</mgrwt>
</event>
<event>
 5    1  0.1247456E+001  0.9207046E+02  0.7546771E-02  0.1297914E+00
          1   -1    0    0  501    0  0.00000000000E+00  0.00000000000E+00  0.57064751356E+02  0.57064751356E+02  0.00000000000E+00 0. -1.
         -1   -1    0    0    0  501 -0.00000000000E+00 -0.00000000000E+00 -0.37137504753E+02  0.37137504753E+02  0.00000000000E+00 0.  1.
         23    2    1    2    0    0  0.00000000000E+00  0.00000000000E+00  0.19927246603E+02  0.94202256110E+02  0.92070461598E+02 0.  0.
        -13    1    3    3    0    0 -0.12693537023E+01  0.18950761193E+02 -0.32941796281E+02  0.38025051622E+02  0.00000000000E+00 0.  1.
         13    1    3    3    0    0  0.12693537023E+01 -0.18950761193E+02  0.52869042884E+02  0.56177204488E+02  0.00000000000E+00 0. -1.
<mgrwt>
<rscale>  0 0.92070462E+02</rscale>
<asrwt>0</asrwt>
<pdfrwt beam="1">  1        1 0.87791925E-02 0.92070462E+02</pdfrwt>
<pdfrwt beam="2">  1       -1 0.57134623E-02 0.92070462E+02</pdfrwt>
<totfact> 0.93081917E+04</totfact>
</mgrwt>
</event>
<event>
 5    1  0.1247456E+001  0.9232090E+02  0.7546771E-02  0.1297327E+00
          1   -1    0    0  501    0  0.00000000000E+00  0.00000000000E+00  0.44660752448E+02  0.44660752448E+02  0.00000000000E+00 0. -1.
         -1   -1    0    0    0  501 -0.00000000000E+00 -0.00000000000E+00 -0.47710507703E+02  0.47710507703E+02  0.00000000000E+00 0.  1.
         23    2    1    2    0    0  0.00000000000E+00  0.00000000000E+00 -0.30497552549E+01  0.92371260151E+02  0.92320900639E+02 0.  0.
        -11    1    3    3    0    0  0.26567301447E+02  0.15248886569E+02 -0.36075397014E+02  0.47326359648E+02  0.00000000000E+00 0.  1.
         11    1    3    3    0    0 -0.26567301447E+02 -0.15248886569E+02  0.33025641759E+02  0.45044900504E+02  0.00000000000E+00 0. -1.
<mgrwt>
<rscale>  0 0.92320901E+02</rscale>
<asrwt>0</asrwt>
<pdfrwt beam="1">  1        1 0.68708850E-02 0.92320901E+02</pdfrwt>
<pdfrwt beam="2">  1       -1 0.73400781E-02 0.92320901E+02</pdfrwt>
<totfact> 0.89006633E+04</totfact>
</mgrwt>
</event>
<event>
 5    1  0.1247456E+001  0.9149178E+02  0.7546771E-02  0.1299279E+00
          3   -1    0    0  501    0  0.00000000000E+00  0.00000000000E+00  0.15107438009E+03  0.15107438009E+03  0.00000000000E+00 0. -1.
         -3   -1    0    0    0  501 -0.00000000000E+00 -0.00000000000E+00 -0.13852028368E+02  0.13852028368E+02  0.00000000000E+00 0.  1.
         23    2    1    2    0    0  0.00000000000E+00  0.00000000000E+00  0.13722235172E+03  0.16492640846E+03  0.91491783210E+02 0.  0.
        -13    1    3    3    0    0  0.28697421545E+02  0.30280037199E+02  0.10244430801E+03  0.11061310456E+03  0.00000000000E+00 0. -1.
         13    1    3    3    0    0 -0.28697421545E+02 -0.30280037199E+02  0.34778043708E+02  0.54313303898E+02  0.00000000000E+00 0.  1.
<mgrwt>
<rscale>  0 0.91491783E+02</rscale>
<asrwt>0</asrwt>
<pdfrwt beam="1">  1        3 0.23242211E-01 0.91491783E+02</pdfrwt>
<pdfrwt beam="2">  1       -3 0.21310814E-02 0.91491783E+02</pdfrwt>
<totfact> 0.30135221E+04</totfact>
</mgrwt>
</event>
<event>
 5    1  0.1247456E+001  0.9198354E+02  0.7546771E-02  0.1298118E+00
          1   -1    0    0  501    0  0.00000000000E+00  0.00000000000E+00  0.32460624798E+03  0.32460624798E+03  0.00000000000E+00 0. -1.
         -1   -1    0    0    0  501 -0.00000000000E+00 -0.00000000000E+00 -0.65163342762E+01  0.65163342762E+01  0.00000000000E+00 0.  1.
         23    2    1    2    0    0  0.00000000000E+00  0.00000000000E+00  0.31808991371E+03  0.33112258226E+03  0.91983538092E+02 0.  0.
        -11    1    3    3    0    0  0.43114264739E+02  0.93025718088E+01  0.20596202208E+03  0.21063174548E+03  0.00000000000E+00 0. -1.
         11    1    3    3    0    0 -0.43114264739E+02 -0.93025718088E+01  0.11212789163E+03  0.12049083678E+03  0.00000000000E+00 0.  1.
<mgrwt>
<rscale>  0 0.91983538E+02</rscale>
<asrwt>0</asrwt>
<pdfrwt beam="1">  1        1 0.49939410E-01 0.91983538E+02</pdfrwt>
<pdfrwt beam="2">  1       -1 0.10025132E-02 0.91983538E+02</pdfrwt>
<totfact> 0.12701983E+05</totfact>
</mgrwt>
</event>
<event>
 5    1  0.1247456E+001  0.9048924E+02  0.7546771E-02  0.1301671E+00
         -1   -1    0    0    0  501 -0.00000000000E+00  0.00000000000E+00  0.32783009959E+03  0.32783009959E+03  0.00000000000E+00 0.  1.
          1   -1    0    0  501    0  0.00000000000E+00 -0.00000000000E+00 -0.62443185776E+01  0.62443185776E+01  0.00000000000E+00 0. -1.
         23    2    1    2    0    0  0.00000000000E+00  0.00000000000E+00  0.32158578101E+03  0.33407441817E+03  0.90489238723E+02 0.  0.
        -11    1    3    3    0    0  0.80316197430E+01 -0.43393661152E+02  0.19763005507E+03  0.20249729729E+03  0.00000000000E+00 0.  1.
         11    1    3    3    0    0 -0.80316197430E+01  0.43393661152E+02  0.12395572594E+03  0.13157712087E+03  0.00000000000E+00 0. -1.
<mgrwt>
<rscale>  0 0.90489239E+02</rscale>
<asrwt>0</asrwt>
<pdfrwt beam="2">  1        1 0.96066465E-03 0.90489239E+02</pdfrwt>
<pdfrwt beam="1">  1       -1 0.50435387E-01 0.90489239E+02</pdfrwt>
<totfact> 0.59598228E+04</totfact>
</mgrwt>
</event>
<event>
 5    1  0.1247456E+001  0.8996073E+02  0.7546771E-02  0.1302947E+00
         -2   -1    0    0    0  501 -0.00000000000E+00  0.00000000000E+00  0.83270376086E+01  0.83270376086E+01  0.00000000000E+00 0. -1.
          2   -1    0    0  501    0  0.00000000000E+00 -0.00000000000E+00 -0.24297152335E+03  0.24297152335E+03  0.00000000000E+00 0.  1.
         23    2    1    2    0    0  0.00000000000E+00  0.00000000000E+00 -0.23464448574E+03  0.25129856096E+03  0.89960725048E+02 0.  0.
        -13    1    3    3    0    0  0.24807406161E+02 -0.26416973298E+02 -0.19175374585E+03  0.19514805387E+03  0.00000000000E+00 0.  1.
         13    1    3    3    0    0 -0.24807406161E+02  0.26416973298E+02 -0.42890739889E+02  0.56150507094E+02  0.00000000000E+00 0. -1.
<mgrwt>
<rscale>  0 0.89960725E+02</rscale>
<asrwt>0</asrwt>
<pdfrwt beam="2">  1        2 0.37380234E-01 0.89960725E+02</pdfrwt>
<pdfrwt beam="1">  1       -2 0.12810827E-02 0.89960725E+02</pdfrwt>
<totfact> 0.17217713E+05</totfact>
</mgrwt>
</event>
<event>
 5    1  0.1247456E+001  0.8862630E+02  0.7546771E-02  0.1306213E+00
         -2   -1    0    0    0  501 -0.00000000000E+00  0.00000000000E+00  0.10241613053E+03  0.10241613053E+03  0.00000000000E+00 0. -1.
          2   -1    0    0  501    0  0.00000000000E+00 -0.00000000000E+00 -0.19173299565E+02  0.19173299565E+02  0.00000000000E+00 0.  1.
         23    2    1    2    0    0  0.00000000000E+00  0.00000000000E+00  0.83242830963E+02  0.12158943009E+03  0.88626297472E+02 0.  0.
        -13    1    3    3    0    0  0.44067057178E+02 -0.23368106993E+01  0.36084350686E+02  0.57003917207E+02  0.00000000000E+00 0.  1.
         13    1    3    3    0    0 -0.44067057178E+02  0.23368106993E+01  0.47158480277E+02  0.64585512885E+02  0.00000000000E+00 0. -1.
<mgrwt>
<rscale>  0 0.88626297E+02</rscale>
<asrwt>0</asrwt>
<pdfrwt beam="2">  1        2 0.29497384E-02 0.88626297E+02</pdfrwt>
<pdfrwt beam="1">  1       -2 0.15756328E-01 0.88626297E+02</pdfrwt>
<totfact> 0.85036744E+04</totfact>
</mgrwt>
</event>
<event>
 5    1  0.1247456E+001  0.8743042E+02  0.7546771E-02  0.1309196E+00
         -1   -1    0    0    0  501 -0.00000000000E+00  0.00000000000E+00  0.17573447097E+02  0.17573447097E+02  0.00000000000E+00 0.  1.
          1   -1    0    0  501    0  0.00000000000E+00 -0.00000000000E+00 -0.10874471274E+03  0.10874471274E+03  0.00000000000E+00 0. -1.
         23    2    1    2    0    0  0.00000000000E+00  0.00000000000E+00 -0.91171265644E+02  0.12631815984E+03  0.87430417050E+02 0.  0.
        -11    1    3    3    0    0  0.28690523047E+01 -0.31308475026E+02 -0.17020286200E+01  0.31485694704E+02  0.00000000000E+00 0.  1.
         11    1    3    3    0    0 -0.28690523047E+01  0.31308475026E+02 -0.89469237024E+02  0.94832465133E+02  0.00000000000E+00 0. -1.
<mgrwt>
<rscale>  0 0.87430417E+02</rscale>
<asrwt>0</asrwt>
<pdfrwt beam="2">  1        1 0.16729956E-01 0.87430417E+02</pdfrwt>
<pdfrwt beam="1">  1       -1 0.27036073E-02 0.87430417E+02</pdfrwt>
<totfact> 0.11868923E+05</totfact>
</mgrwt>
</event>
<event>
 5    1  0.1247456E+001  0.9108132E+02  0.7546771E-02  0.1300254E+00
         -1   -1    0    0    0  501 -0.00000000000E+00  0.00000000000E+00  0.64344112143E+02  0.64344112143E+02  0.00000000000E+00 0.  1.
          1   -1    0    0  501    0  0.00000000000E+00 -0.00000000000E+00 -0.32232192526E+02  0.32232192526E+02  0.00000000000E+00 0. -1.
         23    2    1    2    0    0  0.00000000000E+00  0.00000000000E+00  0.32111919617E+02  0.96576304668E+02  0.91081322135E+02 0.  0.
        -11    1    3    3    0    0 -0.38491502699E+02 -0.22476698415E+02  0.25954817168E+02  0.51579552983E+02  0.00000000000E+00 0.  1.
         11    1    3    3    0    0  0.38491502699E+02  0.22476698415E+02  0.61571024488E+01  0.44996751685E+02  0.00000000000E+00 0. -1.
<mgrwt>
<rscale>  0 0.91081322E+02</rscale>
<asrwt>0</asrwt>
<pdfrwt beam="2">  1        1 0.49587989E-02 0.91081322E+02</pdfrwt>
<pdfrwt beam="1">  1       -1 0.98990941E-02 0.91081322E+02</pdfrwt>
<totfact> 0.87947350E+04</totfact>
</mgrwt>
</event>
<event>
 5    1  0.1247456E+001  0.9118219E+02  0.7546771E-02  0.1300014E+00
          4   -1    0    0  501    0  0.00000000000E+00  0.00000000000E+00  0.30259745482E+02  0.30259745482E+02  0.00000000000E+00 0. -1.
         -4   -1    0    0    0  501 -0.00000000000E+00 -0.00000000000E+00 -0.68690193626E+02  0.68690193626E+02  0.00000000000E+00 0.  1.
         23    2    1    2    0    0  0.00000000000E+00  0.00000000000E+00 -0.38430448144E+02  0.98949939108E+02  0.91182186336E+02 0.  0.
        -13    1    3    3    0    0 -0.37731762942E+02  0.17472208095E+02  0.10747349797E+01  0.41594699731E+02  0.00000000000E+00 0.  1.
         13    1    3    3    0    0  0.37731762942E+02 -0.17472208095E+02 -0.39505183124E+02  0.57355239377E+02  0.00000000000E+00 0. -1.
<mgrwt>
<rscale>  0 0.91182186E+02</rscale>
<asrwt>0</asrwt>
<pdfrwt beam="1">  1        4 0.46553455E-02 0.91182186E+02</pdfrwt>
<pdfrwt beam="2">  1       -4 0.10567722E-01 0.91182186E+02</pdfrwt>
<totfact> 0.26519148E+04</totfact>
</mgrwt>
</event>
<event>
 5    1  0.1247456E+001  0.9139054E+02  0.7546771E-02  0.1299519E+00
         -1   -1    0    0    0  501 -0.00000000000E+00  0.00000000000E+00  0.10585808618E+03  0.10585808618E+03  0.00000000000E+00 0.  1.
          1   -1    0    0  501    0  0.00000000000E+00 -0.00000000000E+00 -0.19725064145E+02  0.19725064145E+02  0.00000000000E+00 0. -1.
         23    2    1    2    0    0  0.00000000000E+00  0.00000000000E+00  0.86133022039E+02  0.12558315033E+03  0.91390536495E+02 0.  0.
        -11    1    3    3    0    0  0.15098234868E+02  0.10804008400E+02  0.10044187580E+03  0.10214329987E+03  0.00000000000E+00 0.  1.
         11    1    3    3    0    0 -0.15098234868E+02 -0.10804008400E+02 -0.14308853761E+02  0.23439850460E+02  0.00000000000E+00 0. -1.
<mgrwt>
<rscale>  0 0.91390536E+02</rscale>
<asrwt>0</asrwt>
<pdfrwt beam="2">  1        1 0.30346253E-02 0.91390536E+02</pdfrwt>
<pdfrwt beam="1">  1       -1 0.16285859E-01 0.91390536E+02</pdfrwt>
<totfact> 0.80016793E+04</totfact>
</mgrwt>
</event>
<event>
 5    1  0.1247456E+001  0.9179116E+02  0.7546771E-02  0.1298571E+00
         -4   -1    0    0    0  501 -0.00000000000E+00  0.00000000000E+00  0.63218241068E+02  0.63218241068E+02  0.00000000000E+00 0.  1.
          4   -1    0    0  501    0  0.00000000000E+00 -0.00000000000E+00 -0.33319562568E+02  0.33319562568E+02  0.00000000000E+00 0. -1.
         23    2    1    2    0    0  0.00000000000E+00  0.00000000000E+00  0.29898678501E+02  0.96537803636E+02  0.91791157280E+02 0.  0.
        -13    1    3    3    0    0  0.11651082222E+02 -0.44390611637E+02  0.15328568689E+02  0.48386352792E+02  0.00000000000E+00 0. -1.
         13    1    3    3    0    0 -0.11651082222E+02  0.44390611637E+02  0.14570109812E+02  0.48151450844E+02  0.00000000000E+00 0.  1.
<mgrwt>
<rscale>  0 0.91791157E+02</rscale>
<asrwt>0</asrwt>
<pdfrwt beam="2">  1        4 0.51260866E-02 0.91791157E+02</pdfrwt>
<pdfrwt beam="1">  1       -4 0.97258832E-02 0.91791157E+02</pdfrwt>
<totfact> 0.26191945E+04</totfact>
</mgrwt>
</event>
<event>
 5    1  0.1247456E+001  0.8926931E+02  0.7546771E-02  0.1304631E+00
          2   -1    0    0  501    0  0.00000000000E+00  0.00000000000E+00  0.19408942101E+02  0.19408942101E+02  0.00000000000E+00 0. -1.
         -2   -1    0    0    0  501 -0.00000000000E+00 -0.00000000000E+00 -0.10264612183E+03  0.10264612183E+03  0.00000000000E+00 0.  1.
         23    2    1    2    0    0  0.00000000000E+00  0.00000000000E+00 -0.83237179733E+02  0.12205506394E+03  0.89269314674E+02 0.  0.
        -11    1    3    3    0    0 -0.35083166649E+02 -0.80235201160E+01 -0.77716718537E+02  0.85645162136E+02  0.00000000000E+00 0.  1.
         11    1    3    3    0    0  0.35083166649E+02  0.80235201160E+01 -0.55204611959E+01  0.36409901799E+02  0.00000000000E+00 0. -1.
<mgrwt>
<rscale>  0 0.89269315E+02</rscale>
<asrwt>0</asrwt>
<pdfrwt beam="1">  1        2 0.29859911E-02 0.89269315E+02</pdfrwt>
<pdfrwt beam="2">  1       -2 0.15791711E-01 0.89269315E+02</pdfrwt>
<totfact> 0.83463743E+04</totfact>
</mgrwt>
</event>
<event>
 5    1  0.1247456E+001  0.9276679E+02  0.7546771E-02  0.1296287E+00
         -4   -1    0    0    0  501 -0.00000000000E+00  0.00000000000E+00  0.17312699145E+02  0.17312699145E+02  0.00000000000E+00 0.  1.
          4   -1    0    0  501    0  0.00000000000E+00 -0.00000000000E+00 -0.12426828187E+03  0.12426828187E+03  0.00000000000E+00 0. -1.
         23    2    1    2    0    0  0.00000000000E+00  0.00000000000E+00 -0.10695558272E+03  0.14158098101E+03  0.92766790982E+02 0.  0.
        -11    1    3    3    0    0  0.43348815818E+02  0.24704458175E+01 -0.28576979514E+02  0.51979483390E+02  0.00000000000E+00 0.  1.
         11    1    3    3    0    0 -0.43348815818E+02 -0.24704458175E+01 -0.78378603210E+02  0.89601497624E+02  0.00000000000E+00 0. -1.
<mgrwt>
<rscale>  0 0.92766791E+02</rscale>
<asrwt>0</asrwt>
<pdfrwt beam="2">  1        4 0.19118196E-01 0.92766791E+02</pdfrwt>
<pdfrwt beam="1">  1       -4 0.26634923E-02 0.92766791E+02</pdfrwt>
<totfact> 0.23003089E+04</totfact>
</mgrwt>
</event>
<event>
 5    1  0.1247456E+001  0.9015594E+02  0.7546771E-02  0.1302475E+00
         -3   -1    0    0    0  501 -0.00000000000E+00  0.00000000000E+00  0.99000691129E+02  0.99000691129E+02  0.00000000000E+00 0.  1.
          3   -1    0    0  501    0  0.00000000000E+00 -0.00000000000E+00 -0.20525344114E+02  0.20525344114E+02  0.00000000000E+00 0. -1.
         23    2    1    2    0    0  0.00000000000E+00  0.00000000000E+00  0.78475347015E+02  0.11952603524E+03  0.90155937197E+02 0.  0.
        -11    1    3    3    0    0 -0.27631481204E+01 -0.42659420348E+02  0.20275819848E+02  0.47313528747E+02  0.00000000000E+00 0. -1.
         11    1    3    3    0    0  0.27631481204E+01  0.42659420348E+02  0.58199527167E+02  0.72212506496E+02  0.00000000000E+00 0.  1.
<mgrwt>
<rscale>  0 0.90155937E+02</rscale>
<asrwt>0</asrwt>
<pdfrwt beam="2">  1        3 0.31577453E-02 0.90155937E+02</pdfrwt>
<pdfrwt beam="1">  1       -3 0.15230875E-01 0.90155937E+02</pdfrwt>
<totfact> 0.34311988E+04</totfact>
</mgrwt>
</event>
<event>
 5    1  0.1247456E+001  0.9364535E+02  0.7546771E-02  0.1294257E+00
          2   -1    0    0  501    0  0.00000000000E+00  0.00000000000E+00  0.38386302153E+03  0.38386302153E+03  0.00000000000E+00 0. -1.
         -2   -1    0    0    0  501 -0.00000000000E+00 -0.00000000000E+00 -0.57113153068E+01  0.57113153068E+01  0.00000000000E+00 0.  1.
         23    2    1    2    0    0  0.00000000000E+00  0.00000000000E+00  0.37815170622E+03  0.38957433684E+03  0.93645346934E+02 0.  0.
        -13    1    3    3    0    0  0.13082324140E+02 -0.44893410874E+02  0.19909229548E+03  0.20450992070E+03  0.00000000000E+00 0.  1.
         13    1    3    3    0    0 -0.13082324140E+02  0.44893410874E+02  0.17905941074E+03  0.18506441614E+03  0.00000000000E+00 0. -1.
<mgrwt>
<rscale>  0 0.93645347E+02</rscale>
<asrwt>0</asrwt>
<pdfrwt beam="1">  1        2 0.59055829E-01 0.93645347E+02</pdfrwt>
<pdfrwt beam="2">  1       -2 0.87866420E-03 0.93645347E+02</pdfrwt>
<totfact> 0.18319145E+05</totfact>
</mgrwt>
</event>
<event>
 5    1  0.1247456E+001  0.9239149E+02  0.7546771E-02  0.1297162E+00
          3   -1    0    0  501    0  0.00000000000E+00  0.00000000000E+00  0.19591456680E+02  0.19591456680E+02  0.00000000000E+00 0. -1.
         -3   -1    0    0    0  501 -0.00000000000E+00 -0.00000000000E+00 -0.10892742078E+03  0.10892742078E+03  0.00000000000E+00 0.  1.
         23    2    1    2    0    0  0.00000000000E+00  0.00000000000E+00 -0.89335964096E+02  0.12851887746E+03  0.92391489769E+02 0.  0.
        -11    1    3    3    0    0 -0.47062980826E+01  0.17473112831E+02 -0.10379207703E+03  0.10535774375E+03  0.00000000000E+00 0.  1.
         11    1    3    3    0    0  0.47062980826E+01 -0.17473112831E+02  0.14456112932E+02  0.23161133710E+02  0.00000000000E+00 0. -1.
<mgrwt>
<rscale>  0 0.92391490E+02</rscale>
<asrwt>0</asrwt>
<pdfrwt beam="1">  1        3 0.30140703E-02 0.92391490E+02</pdfrwt>
<pdfrwt beam="2">  1       -3 0.16758064E-01 0.92391490E+02</pdfrwt>
<totfact> 0.31519852E+04</totfact>
</mgrwt>
</event>
<event>
 5    1  0.1247456E+001  0.9533164E+02  0.7546771E-02  0.1290431E+00
         -1   -1    0    0    0  501 -0.00000000000E+00  0.00000000000E+00  0.10026139126E+02  0.10026139126E+02  0.00000000000E+00 0.  1.
          1   -1    0    0  501    0  0.00000000000E+00 -0.00000000000E+00 -0.22661070397E+03  0.22661070397E+03  0.00000000000E+00 0. -1.
         23    2    1    2    0    0  0.00000000000E+00  0.00000000000E+00 -0.21658456484E+03  0.23663684309E+03  0.95331641032E+02 0.  0.
        -13    1    3    3    0    0  0.35365819598E+02  0.29068934010E+02 -0.14124980863E+03  0.14848317265E+03  0.00000000000E+00 0. -1.
         13    1    3    3    0    0 -0.35365819598E+02 -0.29068934010E+02 -0.75334756207E+02  0.88153670446E+02  0.00000000000E+00 0.  1.
<mgrwt>
<rscale>  0 0.95331641E+02</rscale>
<asrwt>0</asrwt>
<pdfrwt beam="2">  1        1 0.34863185E-01 0.95331641E+02</pdfrwt>
<pdfrwt beam="1">  1       -1 0.15424829E-02 0.95331641E+02</pdfrwt>
<totfact> 0.10764548E+05</totfact>
</mgrwt>
</event>
<event>
 5    1  0.1247456E+001  0.8921016E+02  0.7546771E-02  0.1304776E+00
          3   -1    0    0  501    0  0.00000000000E+00  0.00000000000E+00  0.31474528148E+02  0.31474528148E+02  0.00000000000E+00 0.  1.
         -3   -1    0    0    0  501 -0.00000000000E+00 -0.00000000000E+00 -0.63213444837E+02  0.63213444837E+02  0.00000000000E+00 0. -1.
         23    2    1    2    0    0  0.00000000000E+00  0.00000000000E+00 -0.31738916689E+02  0.94687972984E+02  0.89210164193E+02 0.  0.
        -13    1    3    3    0    0 -0.98517485719E+01 -0.21426490493E+02  0.24316428650E+02  0.33873885917E+02  0.00000000000E+00 0.  1.
         13    1    3    3    0    0  0.98517485719E+01  0.21426490493E+02 -0.56055345339E+02  0.60814087068E+02  0.00000000000E+00 0. -1.
<mgrwt>
<rscale>  0 0.89210164E+02</rscale>
<asrwt>0</asrwt>
<pdfrwt beam="1">  1        3 0.48422352E-02 0.89210164E+02</pdfrwt>
<pdfrwt beam="2">  1       -3 0.97251452E-02 0.89210164E+02</pdfrwt>
<totfact> 0.37210561E+04</totfact>
</mgrwt>
</event>
<event>
 5    1  0.1247456E+001  0.9325676E+02  0.7546771E-02  0.1295151E+00
          3   -1    0    0  501    0  0.00000000000E+00  0.00000000000E+00  0.28138993234E+03  0.28138993234E+03  0.00000000000E+00 0. -1.
         -3   -1    0    0    0  501 -0.00000000000E+00 -0.00000000000E+00 -0.77266647882E+01  0.77266647882E+01  0.00000000000E+00 0.  1.
         23    2    1    2    0    0  0.00000000000E+00  0.00000000000E+00  0.27366326756E+03  0.28911659713E+03  0.93256757010E+02 0.  0.
        -11    1    3    3    0    0 -0.25245465138E+02 -0.36216915132E+02  0.90306901840E+02  0.10052032119E+03  0.00000000000E+00 0.  1.
         11    1    3    3    0    0  0.25245465138E+02  0.36216915132E+02  0.18335636572E+03  0.18859627595E+03  0.00000000000E+00 0. -1.
<mgrwt>
<rscale>  0 0.93256757E+02</rscale>
<asrwt>0</asrwt>
<pdfrwt beam="1">  1        3 0.43290751E-01 0.93256757E+02</pdfrwt>
<pdfrwt beam="2">  1       -3 0.11887179E-02 0.93256757E+02</pdfrwt>
<totfact> 0.23017469E+04</totfact>
</mgrwt>
</event>
<event>
 5    1  0.1247456E+001  0.9233267E+02  0.7546771E-02  0.1297299E+00
         -1   -1    0    0    0  501 -0.00000000000E+00  0.00000000000E+00  0.26441702478E+02  0.26441702478E+02  0.00000000000E+00 0.  1.
          1   -1    0    0  501    0  0.00000000000E+00 -0.00000000000E+00 -0.80604886230E+02  0.80604886230E+02  0.00000000000E+00 0. -1.
         23    2    1    2    0    0  0.00000000000E+00  0.00000000000E+00 -0.54163183752E+02  0.10704658871E+03  0.92332668540E+02 0.  0.
        -13    1    3    3    0    0  0.40803764528E+02 -0.21595583357E+02 -0.27218767600E+02  0.53592702207E+02  0.00000000000E+00 0.  1.
         13    1    3    3    0    0 -0.40803764528E+02  0.21595583357E+02 -0.26944416153E+02  0.53453886501E+02  0.00000000000E+00 0. -1.
<mgrwt>
<rscale>  0 0.92332669E+02</rscale>
<asrwt>0</asrwt>
<pdfrwt beam="2">  1        1 0.12400752E-01 0.92332669E+02</pdfrwt>
<pdfrwt beam="1">  1       -1 0.40679543E-02 0.92332669E+02</pdfrwt>
<totfact> 0.97430909E+04</totfact>
</mgrwt>
</event>
<event>
 5    1  0.1247456E+001  0.9002816E+02  0.7546771E-02  0.1302784E+00
         -1   -1    0    0    0  501 -0.00000000000E+00  0.00000000000E+00  0.16879360960E+03  0.16879360960E+03  0.00000000000E+00 0.  1.
          1   -1    0    0  501    0  0.00000000000E+00 -0.00000000000E+00 -0.12004409134E+02  0.12004409134E+02  0.00000000000E+00 0. -1.
         23    2    1    2    0    0  0.00000000000E+00  0.00000000000E+00  0.15678920047E+03  0.18079801873E+03  0.90028163344E+02 0.  0.
        -13    1    3    3    0    0  0.28104884099E+02 -0.25738337482E+02  0.30283937087E+02  0.48677133975E+02  0.00000000000E+00 0. -1.
         13    1    3    3    0    0 -0.28104884099E+02  0.25738337482E+02  0.12650526338E+03  0.13212088476E+03  0.00000000000E+00 0.  1.
<mgrwt>
<rscale>  0 0.90028163E+02</rscale>
<asrwt>0</asrwt>
<pdfrwt beam="2">  1        1 0.18468323E-02 0.90028163E+02</pdfrwt>
<pdfrwt beam="1">  1       -1 0.25968246E-01 0.90028163E+02</pdfrwt>
<totfact> 0.75102250E+04</totfact>
</mgrwt>
</event>
<event>
 5    1  0.1247456E+001  0.9796052E+02  0.7546771E-02  0.1284644E+00
          3   -1    0    0  501    0  0.00000000000E+00  0.00000000000E+00  0.10164639147E+03  0.10164639147E+03  0.00000000000E+00 0. -1.
         -3   -1    0    0    0  501 -0.00000000000E+00 -0.00000000000E+00 -0.23602076004E+02  0.23602076004E+02  0.00000000000E+00 0.  1.
         23    2    1    2    0    0  0.00000000000E+00  0.00000000000E+00  0.78044315471E+02  0.12524846748E+03  0.97960519743E+02 0.  0.
        -13    1    3    3    0    0  0.39863477581E+02 -0.25883925222E+02  0.54149828385E+02  0.72050526326E+02  0.00000000000E+00 0. -1.
         13    1    3    3    0    0 -0.39863477581E+02  0.25883925222E+02  0.23894487086E+02  0.53197941152E+02  0.00000000000E+00 0.  1.
<mgrwt>
<rscale>  0 0.97960520E+02</rscale>
<asrwt>0</asrwt>
<pdfrwt beam="1">  1        3 0.15637906E-01 0.97960520E+02</pdfrwt>
<pdfrwt beam="2">  1       -3 0.36310887E-02 0.97960520E+02</pdfrwt>
<totfact> 0.27040284E+04</totfact>
</mgrwt>
</event>
<event>
 5    1  0.1247456E+001  0.9061625E+02  0.7546771E-02  0.1301366E+00
          1   -1    0    0  501    0  0.00000000000E+00  0.00000000000E+00  0.70768398627E+02  0.70768398627E+02  0.00000000000E+00 0. -1.
         -1   -1    0    0    0  501 -0.00000000000E+00 -0.00000000000E+00 -0.29007667387E+02  0.29007667387E+02  0.00000000000E+00 0.  1.
         23    2    1    2    0    0  0.00000000000E+00  0.00000000000E+00  0.41760731239E+02  0.99776066014E+02  0.90616249512E+02 0.  0.
        -13    1    3    3    0    0  0.16277058512E+02  0.36825565288E+02  0.43759634257E+02  0.59464026797E+02  0.00000000000E+00 0. -1.
         13    1    3    3    0    0 -0.16277058512E+02 -0.36825565288E+02 -0.19989030174E+01  0.40312039218E+02  0.00000000000E+00 0.  1.
<mgrwt>
<rscale>  0 0.90616250E+02</rscale>
<asrwt>0</asrwt>
<pdfrwt beam="1">  1        1 0.10887446E-01 0.90616250E+02</pdfrwt>
<pdfrwt beam="2">  1       -1 0.44627181E-02 0.90616250E+02</pdfrwt>
<totfact> 0.10052667E+05</totfact>
</mgrwt>
</event>
<event>
 5    1  0.1247456E+001  0.9173713E+02  0.7546771E-02  0.1298699E+00
         -4   -1    0    0    0  501 -0.00000000000E+00  0.00000000000E+00  0.24769339494E+02  0.24769339494E+02  0.00000000000E+00 0.  1.
          4   -1    0    0  501    0  0.00000000000E+00 -0.00000000000E+00 -0.84940716107E+02  0.84940716107E+02  0.00000000000E+00 0. -1.
         23    2    1    2    0    0  0.00000000000E+00  0.00000000000E+00 -0.60171376612E+02  0.10971005560E+03  0.91737133902E+02 0.  0.
        -11    1    3    3    0    0 -0.26726686137E+02  0.22883706720E+00  0.14494253799E+02  0.30404794218E+02  0.00000000000E+00 0.  1.
         11    1    3    3    0    0  0.26726686137E+02 -0.22883706720E+00 -0.74665630412E+02  0.79305261383E+02  0.00000000000E+00 0. -1.
<mgrwt>
<rscale>  0 0.91737134E+02</rscale>
<asrwt>0</asrwt>
<pdfrwt beam="2">  1        4 0.13067802E-01 0.91737134E+02</pdfrwt>
<pdfrwt beam="1">  1       -4 0.38106676E-02 0.91737134E+02</pdfrwt>
<totfact> 0.25443708E+04</totfact>
</mgrwt>
</event>
<event>
 5    1  0.1247456E+001  0.9291645E+02  0.7546771E-02  0.1295939E+00
          2   -1    0    0  501    0  0.00000000000E+00  0.00000000000E+00  0.21888147621E+02  0.21888147621E+02  0.00000000000E+00 0. -1.
         -2   -1    0    0    0  501 -0.00000000000E+00 -0.00000000000E+00 -0.98608925055E+02  0.98608925055E+02  0.00000000000E+00 0.  1.
         23    2    1    2    0    0  0.00000000000E+00  0.00000000000E+00 -0.76720777434E+02  0.12049707268E+03  0.92916450823E+02 0.  0.
        -11    1    3    3    0    0  0.99751956391E+01  0.12930641161E+02 -0.94763817348E+02  0.96160735684E+02  0.00000000000E+00 0.  1.
         11    1    3    3    0    0 -0.99751956391E+01 -0.12930641161E+02  0.18043039914E+02  0.24336336993E+02  0.00000000000E+00 0. -1.
<mgrwt>
<rscale>  0 0.92916451E+02</rscale>
<asrwt>0</asrwt>
<pdfrwt beam="1">  1        2 0.33674073E-02 0.92916451E+02</pdfrwt>
<pdfrwt beam="2">  1       -2 0.15170604E-01 0.92916451E+02</pdfrwt>
<totfact> 0.76457770E+04</totfact>
</mgrwt>
</event>
<event>
 5    1  0.1247456E+001  0.9162788E+02  0.7546771E-02  0.1298957E+00
         -2   -1    0    0    0  501 -0.00000000000E+00  0.00000000000E+00  0.25406842496E+03  0.25406842496E+03  0.00000000000E+00 0.  1.
          2   -1    0    0  501    0  0.00000000000E+00 -0.00000000000E+00 -0.82612285478E+01  0.82612285478E+01  0.00000000000E+00 0. -1.
         23    2    1    2    0    0  0.00000000000E+00  0.00000000000E+00  0.24580719641E+03  0.26232965351E+03  0.91627884956E+02 0.  0.
        -11    1    3    3    0    0  0.20020080681E+02  0.36221399067E+02  0.17916144303E+03  0.18387935189E+03  0.00000000000E+00 0. -1.
         11    1    3    3    0    0 -0.20020080681E+02 -0.36221399067E+02  0.66645753378E+02  0.78450301619E+02  0.00000000000E+00 0.  1.
<mgrwt>
<rscale>  0 0.91627885E+02</rscale>
<asrwt>0</asrwt>
<pdfrwt beam="2">  1        2 0.12709584E-02 0.91627885E+02</pdfrwt>
<pdfrwt beam="1">  1       -2 0.39087444E-01 0.91627885E+02</pdfrwt>
<totfact> 0.55021758E+04</totfact>
</mgrwt>
</event>
<event>
 5    1  0.1247456E+001  0.9105647E+02  0.7546771E-02  0.1300313E+00
          2   -1    0    0  501    0  0.00000000000E+00  0.00000000000E+00  0.19700276980E+02  0.19700276980E+02  0.00000000000E+00 0. -1.
         -2   -1    0    0    0  501 -0.00000000000E+00 -0.00000000000E+00 -0.10521782656E+03  0.10521782656E+03  0.00000000000E+00 0.  1.
         23    2    1    2    0    0  0.00000000000E+00  0.00000000000E+00 -0.85517549582E+02  0.12491810354E+03  0.91056473170E+02 0.  0.
        -11    1    3    3    0    0  0.21165125403E+02  0.17383677931E+02  0.71342203313E+01  0.28302860129E+02  0.00000000000E+00 0. -1.
         11    1    3    3    0    0 -0.21165125403E+02 -0.17383677931E+02 -0.92651769913E+02  0.96615243413E+02  0.00000000000E+00 0.  1.
<mgrwt>
<rscale>  0 0.91056473E+02</rscale>
<asrwt>0</asrwt>
<pdfrwt beam="1">  1        2 0.30308119E-02 0.91056473E+02</pdfrwt>
<pdfrwt beam="2">  1       -2 0.16187358E-01 0.91056473E+02</pdfrwt>
<totfact> 0.78851671E+04</totfact>
</mgrwt>
</event>
<event>
 5    1  0.1247456E+001  0.8227919E+02  0.7546771E-02  0.1322705E+00
          3   -1    0    0  501    0  0.00000000000E+00  0.00000000000E+00  0.27895033147E+02  0.27895033147E+02  0.00000000000E+00 0. -1.
         -3   -1    0    0    0  501 -0.00000000000E+00 -0.00000000000E+00 -0.60672670083E+02  0.60672670083E+02  0.00000000000E+00 0.  1.
         23    2    1    2    0    0  0.00000000000E+00  0.00000000000E+00 -0.32777636936E+02  0.88567703230E+02  0.82279186751E+02 0.  0.
        -13    1    3    3    0    0 -0.10678965618E+02 -0.37295211393E+02 -0.16494806895E+01  0.38829034060E+02  0.00000000000E+00 0.  1.
         13    1    3    3    0    0  0.10678965618E+02  0.37295211393E+02 -0.31128156247E+02  0.49738669170E+02  0.00000000000E+00 0. -1.
<mgrwt>
<rscale>  0 0.82279187E+02</rscale>
<asrwt>0</asrwt>
<pdfrwt beam="1">  1        3 0.42915436E-02 0.82279187E+02</pdfrwt>
<pdfrwt beam="2">  1       -3 0.93342569E-02 0.82279187E+02</pdfrwt>
<totfact> 0.46923671E+04</totfact>
</mgrwt>
</event>
<event>
 5    1  0.1247456E+001  0.9175938E+02  0.7546771E-02  0.1298646E+00
         -2   -1    0    0    0  501 -0.00000000000E+00  0.00000000000E+00  0.65394454486E+02  0.65394454486E+02  0.00000000000E+00 0.  1.
          2   -1    0    0  501    0  0.00000000000E+00 -0.00000000000E+00 -0.32188447587E+02  0.32188447587E+02  0.00000000000E+00 0. -1.
         23    2    1    2    0    0  0.00000000000E+00  0.00000000000E+00  0.33206006899E+02  0.97582902074E+02  0.91759380354E+02 0.  0.
        -13    1    3    3    0    0  0.35648852652E+02  0.27244515618E+02  0.26794620161E+02  0.52259506277E+02  0.00000000000E+00 0.  1.
         13    1    3    3    0    0 -0.35648852652E+02 -0.27244515618E+02  0.64113867379E+01  0.45323395797E+02  0.00000000000E+00 0. -1.
<mgrwt>
<rscale>  0 0.91759380E+02</rscale>
<asrwt>0</asrwt>
<pdfrwt beam="2">  1        2 0.49520689E-02 0.91759380E+02</pdfrwt>
<pdfrwt beam="1">  1       -2 0.10060685E-01 0.91759380E+02</pdfrwt>
<totfact> 0.88454655E+04</totfact>
</mgrwt>
</event>
<event>
 5    1  0.1247456E+001  0.9109712E+02  0.7546771E-02  0.1300216E+00
          1   -1    0    0  501    0  0.00000000000E+00  0.00000000000E+00  0.49492535612E+03  0.49492535612E+03  0.00000000000E+00 0. -1.
         -1   -1    0    0    0  501 -0.00000000000E+00 -0.00000000000E+00 -0.41918876747E+01  0.41918876747E+01  0.00000000000E+00 0.  1.
         23    2    1    2    0    0  0.00000000000E+00  0.00000000000E+00  0.49073346844E+03  0.49911724379E+03  0.91097123998E+02 0.  0.
        -11    1    3    3    0    0  0.14789800643E+02  0.42871894186E+02  0.26856931653E+03  0.27237146564E+03  0.00000000000E+00 0.  1.
         11    1    3    3    0    0 -0.14789800643E+02 -0.42871894186E+02  0.22216415192E+03  0.22674577816E+03  0.00000000000E+00 0. -1.
<mgrwt>
<rscale>  0 0.91097124E+02</rscale>
<asrwt>0</asrwt>
<pdfrwt beam="1">  1        1 0.76142316E-01 0.91097124E+02</pdfrwt>
<pdfrwt beam="2">  1       -1 0.64490619E-03 0.91097124E+02</pdfrwt>
<totfact> 0.13941854E+05</totfact>
</mgrwt>
</event>
<event>
 5    1  0.1247456E+001  0.9135725E+02  0.7546771E-02  0.1299598E+00
         -1   -1    0    0    0  501 -0.00000000000E+00  0.00000000000E+00  0.60747746253E+01  0.60747746253E+01  0.00000000000E+00 0.  1.
          1   -1    0    0  501    0  0.00000000000E+00 -0.00000000000E+00 -0.34347562013E+03  0.34347562013E+03  0.00000000000E+00 0. -1.
         23    2    1    2    0    0  0.00000000000E+00  0.00000000000E+00 -0.33740084551E+03  0.34955039476E+03  0.91357254372E+02 0.  0.
        -13    1    3    3    0    0 -0.30155709003E+02 -0.32317768222E+02 -0.21278175022E+03  0.21732436162E+03  0.00000000000E+00 0. -1.
         13    1    3    3    0    0  0.30155709003E+02  0.32317768222E+02 -0.12461909529E+03  0.13222603314E+03  0.00000000000E+00 0.  1.
<mgrwt>
<rscale>  0 0.91357254E+02</rscale>
<asrwt>0</asrwt>
<pdfrwt beam="2">  1        1 0.52842423E-01 0.91357254E+02</pdfrwt>
<pdfrwt beam="1">  1       -1 0.93458037E-03 0.91357254E+02</pdfrwt>
<totfact> 0.13069852E+05</totfact>
</mgrwt>
</event>
<event>
 5    1  0.1247456E+001  0.9386557E+02  0.7546771E-02  0.1293752E+00
         -1   -1    0    0    0  501 -0.00000000000E+00  0.00000000000E+00  0.13690355769E+03  0.13690355769E+03  0.00000000000E+00 0.  1.
          1   -1    0    0  501    0  0.00000000000E+00 -0.00000000000E+00 -0.16089327712E+02  0.16089327712E+02  0.00000000000E+00 0. -1.
         23    2    1    2    0    0  0.00000000000E+00  0.00000000000E+00  0.12081422998E+03  0.15299288541E+03  0.93865567801E+02 0.  0.
        -11    1    3    3    0    0  0.41451252264E+02 -0.16798795936E+02  0.83588627419E+02  0.94802238861E+02  0.00000000000E+00 0.  1.
         11    1    3    3    0    0 -0.41451252264E+02  0.16798795936E+02  0.37225602563E+02  0.58190646545E+02  0.00000000000E+00 0. -1.
<mgrwt>
<rscale>  0 0.93865568E+02</rscale>
<asrwt>0</asrwt>
<pdfrwt beam="2">  1        1 0.24752813E-02 0.93865568E+02</pdfrwt>
<pdfrwt beam="1">  1       -1 0.21062085E-01 0.93865568E+02</pdfrwt>
<totfact> 0.70811331E+04</totfact>
</mgrwt>
</event>
<event>
 5    1  0.1247456E+001  0.9074508E+02  0.7546771E-02  0.1301057E+00
         -1   -1    0    0    0  501 -0.00000000000E+00  0.00000000000E+00  0.31643498500E+02  0.31643498500E+02  0.00000000000E+00 0.  1.
          1   -1    0    0  501    0  0.00000000000E+00 -0.00000000000E+00 -0.65058147918E+02  0.65058147918E+02  0.00000000000E+00 0. -1.
         23    2    1    2    0    0  0.00000000000E+00  0.00000000000E+00 -0.33414649418E+02  0.96701646418E+02  0.90745080441E+02 0.  0.
        -11    1    3    3    0    0 -0.95758124198E+01  0.11417561142E+02 -0.62376094426E+02  0.64131381100E+02  0.00000000000E+00 0. -1.
         11    1    3    3    0    0  0.95758124198E+01 -0.11417561142E+02  0.28961445008E+02  0.32570265318E+02  0.00000000000E+00 0.  1.
<mgrwt>
<rscale>  0 0.90745080E+02</rscale>
<asrwt>0</asrwt>
<pdfrwt beam="2">  1        1 0.10008946E-01 0.90745080E+02</pdfrwt>
<pdfrwt beam="1">  1       -1 0.48682306E-02 0.90745080E+02</pdfrwt>
<totfact> 0.98852372E+04</totfact>
</mgrwt>
</event>
<event>
 5    1  0.1247456E+001  0.9116893E+02  0.7546771E-02  0.1300045E+00
          4   -1    0    0  501    0  0.00000000000E+00  0.00000000000E+00  0.37261127221E+02  0.37261127221E+02  0.00000000000E+00 0.  1.
         -4   -1    0    0    0  501 -0.00000000000E+00 -0.00000000000E+00 -0.55767060344E+02  0.55767060344E+02  0.00000000000E+00 0. -1.
         23    2    1    2    0    0  0.00000000000E+00  0.00000000000E+00 -0.18505933123E+02  0.93028187565E+02  0.91168931774E+02 0.  0.
        -13    1    3    3    0    0  0.34458913552E+02  0.15993127136E+01  0.21153544959E+02  0.40465380125E+02  0.00000000000E+00 0.  1.
         13    1    3    3    0    0 -0.34458913552E+02 -0.15993127136E+01 -0.39659478081E+02  0.52562807440E+02  0.00000000000E+00 0. -1.
<mgrwt>
<rscale>  0 0.91168932E+02</rscale>
<asrwt>0</asrwt>
<pdfrwt beam="1">  1        4 0.57324811E-02 0.91168932E+02</pdfrwt>
<pdfrwt beam="2">  1       -4 0.85795477E-02 0.91168932E+02</pdfrwt>
<totfact> 0.26903998E+04</totfact>
</mgrwt>
</event>
<event>
 5    1  0.1247456E+001  0.9246041E+02  0.7546771E-02  0.1297001E+00
         -4   -1    0    0    0  501 -0.00000000000E+00  0.00000000000E+00  0.18740787381E+03  0.18740787381E+03  0.00000000000E+00 0. -1.
          4   -1    0    0  501    0  0.00000000000E+00 -0.00000000000E+00 -0.11404173461E+02  0.11404173461E+02  0.00000000000E+00 0.  1.
         23    2    1    2    0    0  0.00000000000E+00  0.00000000000E+00  0.17600370035E+03  0.19881204727E+03  0.92460411008E+02 0.  0.
        -11    1    3    3    0    0 -0.25551026718E+02 -0.37783357626E+02  0.71797140832E+02  0.85060369806E+02  0.00000000000E+00 0.  1.
         11    1    3    3    0    0  0.25551026718E+02  0.37783357626E+02  0.10420655951E+03  0.11375167746E+03  0.00000000000E+00 0. -1.
<mgrwt>
<rscale>  0 0.92460411E+02</rscale>
<asrwt>0</asrwt>
<pdfrwt beam="2">  1        4 0.17544884E-02 0.92460411E+02</pdfrwt>
<pdfrwt beam="1">  1       -4 0.28831978E-01 0.92460411E+02</pdfrwt>
<totfact> 0.20646340E+04</totfact>
</mgrwt>
</event>
<event>
 5    1  0.1247456E+001  0.9151681E+02  0.7546771E-02  0.1299220E+00
          2   -1    0    0  501    0  0.00000000000E+00  0.00000000000E+00  0.73319674062E+02  0.73319674062E+02  0.00000000000E+00 0. -1.
         -2   -1    0    0    0  501 -0.00000000000E+00 -0.00000000000E+00 -0.28557570869E+02  0.28557570869E+02  0.00000000000E+00 0.  1.
         23    2    1    2    0    0  0.00000000000E+00  0.00000000000E+00  0.44762103193E+02  0.10187724493E+03  0.91516813496E+02 0.  0.
        -11    1    3    3    0    0 -0.37183821913E+02  0.15333554923E+01  0.52019238648E+02  0.63960839430E+02  0.00000000000E+00 0. -1.
         11    1    3    3    0    0  0.37183821913E+02 -0.15333554923E+01 -0.72571354555E+01  0.37916405501E+02  0.00000000000E+00 0.  1.
<mgrwt>
<rscale>  0 0.91516813E+02</rscale>
<asrwt>0</asrwt>
<pdfrwt beam="1">  1        2 0.11279950E-01 0.91516813E+02</pdfrwt>
<pdfrwt beam="2">  1       -2 0.43934725E-02 0.91516813E+02</pdfrwt>
<totfact> 0.11089686E+05</totfact>
</mgrwt>
</event>
<event>
 5    1  0.1247456E+001  0.9049069E+02  0.7546771E-02  0.1301668E+00
         -2   -1    0    0    0  501 -0.00000000000E+00  0.00000000000E+00  0.22040531418E+02  0.22040531418E+02  0.00000000000E+00 0. -1.
          2   -1    0    0  501    0  0.00000000000E+00 -0.00000000000E+00 -0.92880762327E+02  0.92880762327E+02  0.00000000000E+00 0.  1.
         23    2    1    2    0    0  0.00000000000E+00  0.00000000000E+00 -0.70840230909E+02  0.11492129374E+03  0.90490692563E+02 0.  0.
        -13    1    3    3    0    0 -0.15411189062E+02 -0.33924836017E+02 -0.68015364881E+02  0.77553137312E+02  0.00000000000E+00 0.  1.
         13    1    3    3    0    0  0.15411189062E+02  0.33924836017E+02 -0.28248660283E+01  0.37368156432E+02  0.00000000000E+00 0. -1.
<mgrwt>
<rscale>  0 0.90490693E+02</rscale>
<asrwt>0</asrwt>
<pdfrwt beam="2">  1        2 0.14289348E-01 0.90490693E+02</pdfrwt>
<pdfrwt beam="1">  1       -2 0.33908510E-02 0.90490693E+02</pdfrwt>
<totfact> 0.12250164E+05</totfact>
</mgrwt>
</event>
<event>
 5    1  0.1247456E+001  0.9062338E+02  0.7546771E-02  0.1301349E+00
          1   -1    0    0  501    0  0.00000000000E+00  0.00000000000E+00  0.11449301593E+02  0.11449301593E+02  0.00000000000E+00 0. -1.
         -1   -1    0    0    0  501 -0.00000000000E+00 -0.00000000000E+00 -0.17932526578E+03  0.17932526578E+03  0.00000000000E+00 0.  1.
         23    2    1    2    0    0  0.00000000000E+00  0.00000000000E+00 -0.16787596419E+03  0.19077456737E+03  0.90623375597E+02 0.  0.
        -11    1    3    3    0    0 -0.35961640466E+02  0.23467298890E+02 -0.11438580568E+03  0.12218046588E+03  0.00000000000E+00 0.  1.
         11    1    3    3    0    0  0.35961640466E+02 -0.23467298890E+02 -0.53490158509E+02  0.68594101492E+02  0.00000000000E+00 0. -1.
<mgrwt>
<rscale>  0 0.90623376E+02</rscale>
<asrwt>0</asrwt>
<pdfrwt beam="1">  1        1 0.17614312E-02 0.90623376E+02</pdfrwt>
<pdfrwt beam="2">  1       -1 0.27588499E-01 0.90623376E+02</pdfrwt>
<totfact> 0.72682196E+04</totfact>
</mgrwt>
</event>
<event>
 5    1  0.1247456E+001  0.1109691E+03  0.7546771E-02  0.1258786E+00
         -2   -1    0    0    0  501 -0.00000000000E+00  0.00000000000E+00  0.97015590830E+02  0.97015590830E+02  0.00000000000E+00 0.  1.
          2   -1    0    0  501    0  0.00000000000E+00 -0.00000000000E+00 -0.31732363030E+02  0.31732363030E+02  0.00000000000E+00 0. -1.
         23    2    1    2    0    0  0.00000000000E+00  0.00000000000E+00  0.65283227800E+02  0.12874795386E+03  0.11096907583E+03 0.  0.
        -11    1    3    3    0    0 -0.50040395619E+02 -0.23639994582E+02  0.37230466241E+02  0.66700810745E+02  0.00000000000E+00 0.  1.
         11    1    3    3    0    0  0.50040395619E+02  0.23639994582E+02  0.28052761559E+02  0.62047143114E+02  0.00000000000E+00 0. -1.
<mgrwt>
<rscale>  0 0.11096908E+03</rscale>
<asrwt>0</asrwt>
<pdfrwt beam="2">  1        2 0.48819020E-02 0.11096908E+03</pdfrwt>
<pdfrwt beam="1">  1       -2 0.14925475E-01 0.11096908E+03</pdfrwt>
<totfact> 0.49510061E+04</totfact>
</mgrwt>
</event>
<event>
 5    1  0.1247456E+001  0.9035676E+02  0.7546771E-02  0.1301990E+00
         -1   -1    0    0    0  501 -0.00000000000E+00  0.00000000000E+00  0.28005623334E+02  0.28005623334E+02  0.00000000000E+00 0.  1.
          1   -1    0    0  501    0  0.00000000000E+00 -0.00000000000E+00 -0.72881287344E+02  0.72881287344E+02  0.00000000000E+00 0. -1.
         23    2    1    2    0    0  0.00000000000E+00  0.00000000000E+00 -0.44875664010E+02  0.10088691068E+03  0.90356756945E+02 0.  0.
        -11    1    3    3    0    0  0.35114035192E+02  0.15657002037E+01 -0.54129451173E+02  0.64540253865E+02  0.00000000000E+00 0. -1.
         11    1    3    3    0    0 -0.35114035192E+02 -0.15657002037E+01  0.92537871628E+01  0.36346656813E+02  0.00000000000E+00 0.  1.
<mgrwt>
<rscale>  0 0.90356757E+02</rscale>
<asrwt>0</asrwt>
<pdfrwt beam="2">  1        1 0.11212506E-01 0.90356757E+02</pdfrwt>
<pdfrwt beam="1">  1       -1 0.43085575E-02 0.90356757E+02</pdfrwt>
<totfact> 0.10178332E+05</totfact>
</mgrwt>
</event>
<event>
 5    1  0.1247456E+001  0.9206305E+02  0.7546771E-02  0.1297931E+00
          2   -1    0    0  501    0  0.00000000000E+00  0.00000000000E+00  0.16497261113E+02  0.16497261113E+02  0.00000000000E+00 0. -1.
         -2   -1    0    0    0  501 -0.00000000000E+00 -0.00000000000E+00 -0.12843958220E+03  0.12843958220E+03  0.00000000000E+00 0.  1.
         23    2    1    2    0    0  0.00000000000E+00  0.00000000000E+00 -0.11194232109E+03  0.14493684331E+03  0.92063050674E+02 0.  0.
        -13    1    3    3    0    0 -0.39288369347E+02  0.12944772337E+02 -0.87761473478E+02  0.97021746654E+02  0.00000000000E+00 0.  1.
         13    1    3    3    0    0  0.39288369347E+02 -0.12944772337E+02 -0.24180847608E+02  0.47915096659E+02  0.00000000000E+00 0. -1.
<mgrwt>
<rscale>  0 0.92063051E+02</rscale>
<asrwt>0</asrwt>
<pdfrwt beam="1">  1        2 0.25380401E-02 0.92063051E+02</pdfrwt>
<pdfrwt beam="2">  1       -2 0.19759936E-01 0.92063051E+02</pdfrwt>
<totfact> 0.71971401E+04</totfact>
</mgrwt>
</event>
<event>
 5    1  0.1247456E+001  0.9106043E+02  0.7546771E-02  0.1300304E+00
          1   -1    0    0  501    0  0.00000000000E+00  0.00000000000E+00  0.18575030280E+03  0.18575030280E+03  0.00000000000E+00 0. -1.
         -1   -1    0    0    0  501 -0.00000000000E+00 -0.00000000000E+00 -0.11160147043E+02  0.11160147043E+02  0.00000000000E+00 0.  1.
         23    2    1    2    0    0  0.00000000000E+00  0.00000000000E+00  0.17459015576E+03  0.19691044984E+03  0.91060434712E+02 0.  0.
        -13    1    3    3    0    0 -0.10827961477E+02 -0.44038182701E+02  0.78539457915E+02  0.90692076473E+02  0.00000000000E+00 0.  1.
         13    1    3    3    0    0  0.10827961477E+02  0.44038182701E+02  0.96050697841E+02  0.10621837337E+03  0.00000000000E+00 0. -1.
<mgrwt>
<rscale>  0 0.91060435E+02</rscale>
<asrwt>0</asrwt>
<pdfrwt beam="1">  1        1 0.28576967E-01 0.91060435E+02</pdfrwt>
<pdfrwt beam="2">  1       -1 0.17169458E-02 0.91060435E+02</pdfrwt>
<totfact> 0.11712933E+05</totfact>
</mgrwt>
</event>
<event>
 5    1  0.1247456E+001  0.9166682E+02  0.7546771E-02  0.1298865E+00
         -1   -1    0    0    0  501 -0.00000000000E+00  0.00000000000E+00  0.56282490132E+02  0.56282490132E+02  0.00000000000E+00 0.  1.
          1   -1    0    0  501    0  0.00000000000E+00 -0.00000000000E+00 -0.37324246205E+02  0.37324246205E+02  0.00000000000E+00 0. -1.
         23    2    1    2    0    0  0.00000000000E+00  0.00000000000E+00  0.18958243928E+02  0.93606736337E+02  0.91666821014E+02 0.  0.
        -11    1    3    3    0    0 -0.31445907066E+02 -0.27958289641E+02  0.28034816397E+02  0.50561467159E+02  0.00000000000E+00 0.  1.
         11    1    3    3    0    0  0.31445907066E+02  0.27958289641E+02 -0.90765724691E+01  0.43045269178E+02  0.00000000000E+00 0. -1.
<mgrwt>
<rscale>  0 0.91666821E+02</rscale>
<asrwt>0</asrwt>
<pdfrwt beam="2">  1        1 0.57421917E-02 0.91666821E+02</pdfrwt>
<pdfrwt beam="1">  1       -1 0.86588446E-02 0.91666821E+02</pdfrwt>
<totfact> 0.88355439E+04</totfact>
</mgrwt>
</event>
<event>
 5    1  0.1247456E+001  0.8989425E+02  0.7546771E-02  0.1303108E+00
          2   -1    0    0  501    0  0.00000000000E+00  0.00000000000E+00  0.15724766926E+03  0.15724766926E+03  0.00000000000E+00 0. -1.
         -2   -1    0    0    0  501 -0.00000000000E+00 -0.00000000000E+00 -0.12847528224E+02  0.12847528224E+02  0.00000000000E+00 0.  1.
         23    2    1    2    0    0  0.00000000000E+00  0.00000000000E+00  0.14440014104E+03  0.17009519748E+03  0.89894246068E+02 0.  0.
        -11    1    3    3    0    0  0.10925108612E+02  0.31728556280E+02  0.12878147811E+03  0.13308166059E+03  0.00000000000E+00 0. -1.
         11    1    3    3    0    0 -0.10925108612E+02 -0.31728556280E+02  0.15618662929E+02  0.37013536895E+02  0.00000000000E+00 0.  1.
<mgrwt>
<rscale>  0 0.89894246E+02</rscale>
<asrwt>0</asrwt>
<pdfrwt beam="1">  1        2 0.24191948E-01 0.89894246E+02</pdfrwt>
<pdfrwt beam="2">  1       -2 0.19765429E-02 0.89894246E+02</pdfrwt>
<totfact> 0.14763696E+05</totfact>
</mgrwt>
</event>
<event>
 5    1  0.1247456E+001  0.9187767E+02  0.7546771E-02  0.1298367E+00
         -1   -1    0    0    0  501 -0.00000000000E+00  0.00000000000E+00  0.97109122681E+01  0.97109122681E+01  0.00000000000E+00 0.  1.
          1   -1    0    0  501    0  0.00000000000E+00 -0.00000000000E+00 -0.21732010701E+03  0.21732010701E+03  0.00000000000E+00 0. -1.
         23    2    1    2    0    0  0.00000000000E+00  0.00000000000E+00 -0.20760919474E+03  0.22703101928E+03  0.91877668522E+02 0.  0.
        -11    1    3    3    0    0  0.35944751705E+01 -0.43106069404E+02 -0.65577838942E+02  0.78558936038E+02  0.00000000000E+00 0. -1.
         11    1    3    3    0    0 -0.35944751705E+01  0.43106069404E+02 -0.14203135580E+03  0.14847208324E+03  0.00000000000E+00 0.  1.
<mgrwt>
<rscale>  0 0.91877669E+02</rscale>
<asrwt>0</asrwt>
<pdfrwt beam="2">  1        1 0.33433866E-01 0.91877669E+02</pdfrwt>
<pdfrwt beam="1">  1       -1 0.14939864E-02 0.91877669E+02</pdfrwt>
<totfact> 0.11788997E+05</totfact>
</mgrwt>
</event>
<event>
 5    1  0.1247456E+001  0.9025224E+02  0.7546771E-02  0.1302242E+00
          1   -1    0    0  501    0  0.00000000000E+00  0.00000000000E+00  0.42133323499E+02  0.42133323499E+02  0.00000000000E+00 0. -1.
         -1   -1    0    0    0  501 -0.00000000000E+00 -0.00000000000E+00 -0.48331503138E+02  0.48331503138E+02  0.00000000000E+00 0.  1.
         23    2    1    2    0    0  0.00000000000E+00  0.00000000000E+00 -0.61981796394E+01  0.90464826637E+02  0.90252243339E+02 0.  0.
        -11    1    3    3    0    0  0.14925122485E+02  0.38391437916E+02 -0.21573592834E+02  0.46498190225E+02  0.00000000000E+00 0.  1.
         11    1    3    3    0    0 -0.14925122485E+02 -0.38391437916E+02  0.15375413195E+02  0.43966636412E+02  0.00000000000E+00 0. -1.
<mgrwt>
<rscale>  0 0.90252243E+02</rscale>
<asrwt>0</asrwt>
<pdfrwt beam="1">  1        1 0.64820498E-02 0.90252243E+02</pdfrwt>
<pdfrwt beam="2">  1       -1 0.74356158E-02 0.90252243E+02</pdfrwt>
<totfact> 0.94038397E+04</totfact>
</mgrwt>
</event>
<event>
 4    1  0.1247456E+001  0.4838835E+02  0.7546771E-02  0.1454233E+00
          1   -1    0    0  501    0  0.00000000000E+00  0.00000000000E+00  0.76719250336E+01  0.76719250336E+01  0.00000000000E+00 0.  1.
         -1   -1    0    0    0  501 -0.00000000000E+00 -0.00000000000E+00 -0.76298724381E+02  0.76298724381E+02  0.00000000000E+00 0. -1.
        -11    1    1    2    0    0  0.19398125007E+02 -0.11807861346E+01 -0.59321486483E+02  0.62423715592E+02  0.00000000000E+00 0. -1.
         11    1    1    2    0    0 -0.19398125007E+02  0.11807861346E+01 -0.93053128636E+01  0.21546933823E+02  0.00000000000E+00 0.  1.
<mgrwt>
<rscale>  0 0.48388350E+02</rscale>
<asrwt>0</asrwt>
<pdfrwt beam="1">  1        1 0.11802962E-02 0.48388350E+02</pdfrwt>
<pdfrwt beam="2">  1       -1 0.11738265E-01 0.48388350E+02</pdfrwt>
<totfact> 0.42044449E+05</totfact>
</mgrwt>
</event>
<event>
 5    1  0.1247456E+001  0.8715726E+02  0.7546771E-02  0.1309886E+00
          2   -1    0    0  501    0  0.00000000000E+00  0.00000000000E+00  0.61714399814E+01  0.61714399814E+01  0.00000000000E+00 0.  1.
         -2   -1    0    0    0  501 -0.00000000000E+00 -0.00000000000E+00 -0.30772348526E+03  0.30772348526E+03  0.00000000000E+00 0. -1.
         23    2    1    2    0    0  0.00000000000E+00  0.00000000000E+00 -0.30155204528E+03  0.31389492524E+03  0.87157260631E+02 0.  0.
        -13    1    3    3    0    0 -0.31722631152E+02 -0.26609980621E+02 -0.10183293210E+03  0.10992889727E+03  0.00000000000E+00 0.  1.
         13    1    3    3    0    0  0.31722631152E+02  0.26609980621E+02 -0.19971911318E+03  0.20396602797E+03  0.00000000000E+00 0. -1.
<mgrwt>
<rscale>  0 0.87157261E+02</rscale>
<asrwt>0</asrwt>
<pdfrwt beam="1">  1        2 0.94945223E-03 0.87157261E+02</pdfrwt>
<pdfrwt beam="2">  1       -2 0.47342078E-01 0.87157261E+02</pdfrwt>
<totfact> 0.56451981E+04</totfact>
</mgrwt>
</event>
<event>
 5    1  0.1247456E+001  0.9191846E+02  0.7546771E-02  0.1298271E+00
         -2   -1    0    0    0  501 -0.00000000000E+00  0.00000000000E+00  0.21422119722E+02  0.21422119722E+02  0.00000000000E+00 0.  1.
          2   -1    0    0  501    0  0.00000000000E+00 -0.00000000000E+00 -0.98601398922E+02  0.98601398922E+02  0.00000000000E+00 0. -1.
         23    2    1    2    0    0  0.00000000000E+00  0.00000000000E+00 -0.77179279200E+02  0.12002351864E+03  0.91918463269E+02 0.  0.
        -13    1    3    3    0    0 -0.33003894211E+02  0.13223521340E+02 -0.76616934481E+02  0.84464626910E+02  0.00000000000E+00 0. -1.
         13    1    3    3    0    0  0.33003894211E+02 -0.13223521340E+02 -0.56234471861E+00  0.35558891734E+02  0.00000000000E+00 0.  1.
<mgrwt>
<rscale>  0 0.91918463E+02</rscale>
<asrwt>0</asrwt>
<pdfrwt beam="2">  1        2 0.15169446E-01 0.91918463E+02</pdfrwt>
<pdfrwt beam="1">  1       -2 0.32957107E-02 0.91918463E+02</pdfrwt>
<totfact> 0.11945256E+05</totfact>
</mgrwt>
</event>
<event>
 5    1  0.1247456E+001  0.8718915E+02  0.7546771E-02  0.1309805E+00
          1   -1    0    0  501    0  0.00000000000E+00  0.00000000000E+00  0.19074496231E+02  0.19074496231E+02  0.00000000000E+00 0. -1.
         -1   -1    0    0    0  501 -0.00000000000E+00 -0.00000000000E+00 -0.99634975189E+02  0.99634975189E+02  0.00000000000E+00 0.  1.
         23    2    1    2    0    0  0.00000000000E+00  0.00000000000E+00 -0.80560478958E+02  0.11870947142E+03  0.87189149754E+02 0.  0.
        -13    1    3    3    0    0  0.17751254472E+02 -0.22126819450E+01  0.13847261336E+02  0.22621884167E+02  0.00000000000E+00 0. -1.
         13    1    3    3    0    0 -0.17751254472E+02  0.22126819450E+01 -0.94407740294E+02  0.96087587253E+02  0.00000000000E+00 0.  1.
<mgrwt>
<rscale>  0 0.87189150E+02</rscale>
<asrwt>0</asrwt>
<pdfrwt beam="1">  1        1 0.29345379E-02 0.87189150E+02</pdfrwt>
<pdfrwt beam="2">  1       -1 0.15328458E-01 0.87189150E+02</pdfrwt>
<totfact> 0.91346657E+04</totfact>
</mgrwt>
</event>
<event>
 5    1  0.1247456E+001  0.9224648E+02  0.7546771E-02  0.1297501E+00
          2   -1    0    0  501    0  0.00000000000E+00  0.00000000000E+00  0.25930334791E+02  0.25930334791E+02  0.00000000000E+00 0. -1.
         -2   -1    0    0    0  501 -0.00000000000E+00 -0.00000000000E+00 -0.82041105308E+02  0.82041105308E+02  0.00000000000E+00 0.  1.
         23    2    1    2    0    0  0.00000000000E+00  0.00000000000E+00 -0.56110770517E+02  0.10797144010E+03  0.92246481282E+02 0.  0.
        -13    1    3    3    0    0  0.43391072457E+02 -0.13056655800E+02 -0.17980399437E+02  0.48749935319E+02  0.00000000000E+00 0. -1.
         13    1    3    3    0    0 -0.43391072457E+02  0.13056655800E+02 -0.38130371080E+02  0.59221504779E+02  0.00000000000E+00 0.  1.
<mgrwt>
<rscale>  0 0.92246481E+02</rscale>
<asrwt>0</asrwt>
<pdfrwt beam="1">  1        2 0.39892823E-02 0.92246481E+02</pdfrwt>
<pdfrwt beam="2">  1       -2 0.12621708E-01 0.92246481E+02</pdfrwt>
<totfact> 0.82094433E+04</totfact>
</mgrwt>
</event>
<event>
 5    1  0.1247456E+001  0.9052884E+02  0.7546771E-02  0.1301576E+00
         -3   -1    0    0    0  501 -0.00000000000E+00  0.00000000000E+00  0.15070448734E+02  0.15070448734E+02  0.00000000000E+00 0.  1.
          3   -1    0    0  501    0  0.00000000000E+00 -0.00000000000E+00 -0.13595265785E+03  0.13595265785E+03  0.00000000000E+00 0. -1.
         23    2    1    2    0    0  0.00000000000E+00  0.00000000000E+00 -0.12088220912E+03  0.15102310659E+03  0.90528836519E+02 0.  0.
        -11    1    3    3    0    0 -0.10566673578E+02  0.32295715756E+02 -0.10555674111E+02  0.35582159893E+02  0.00000000000E+00 0.  1.
         11    1    3    3    0    0  0.10566673578E+02 -0.32295715756E+02 -0.11032653501E+03  0.11544094669E+03  0.00000000000E+00 0. -1.
<mgrwt>
<rscale>  0 0.90528837E+02</rscale>
<asrwt>0</asrwt>
<pdfrwt beam="2">  1        3 0.20915793E-01 0.90528837E+02</pdfrwt>
<pdfrwt beam="1">  1       -3 0.23185307E-02 0.90528837E+02</pdfrwt>
<totfact> 0.31852984E+04</totfact>
</mgrwt>
</event>
<event>
 5    1  0.1247456E+001  0.9084702E+02  0.7546771E-02  0.1300813E+00
          2   -1    0    0  501    0  0.00000000000E+00  0.00000000000E+00  0.19124888756E+03  0.19124888756E+03  0.00000000000E+00 0. -1.
         -2   -1    0    0    0  501 -0.00000000000E+00 -0.00000000000E+00 -0.10788533705E+02  0.10788533705E+02  0.00000000000E+00 0.  1.
         23    2    1    2    0    0  0.00000000000E+00  0.00000000000E+00  0.18046035386E+03  0.20203742127E+03  0.90847015791E+02 0.  0.
        -13    1    3    3    0    0 -0.30403209066E+02 -0.24975391217E+02  0.39752850845E+02  0.55932230764E+02  0.00000000000E+00 0. -1.
         13    1    3    3    0    0  0.30403209066E+02  0.24975391217E+02  0.14070750301E+03  0.14610519050E+03  0.00000000000E+00 0.  1.
<mgrwt>
<rscale>  0 0.90847016E+02</rscale>
<asrwt>0</asrwt>
<pdfrwt beam="1">  1        2 0.29422903E-01 0.90847016E+02</pdfrwt>
<pdfrwt beam="2">  1       -2 0.16597746E-02 0.90847016E+02</pdfrwt>
<totfact> 0.15369942E+05</totfact>
</mgrwt>
</event>
<event>
 5    1  0.1247456E+001  0.9179834E+02  0.7546771E-02  0.1298554E+00
          2   -1    0    0  501    0  0.00000000000E+00  0.00000000000E+00  0.22679803813E+03  0.22679803813E+03  0.00000000000E+00 0. -1.
         -2   -1    0    0    0  501 -0.00000000000E+00 -0.00000000000E+00 -0.92890302465E+01  0.92890302465E+01  0.00000000000E+00 0.  1.
         23    2    1    2    0    0  0.00000000000E+00  0.00000000000E+00  0.21750900788E+03  0.23608706837E+03  0.91798340639E+02 0.  0.
        -11    1    3    3    0    0 -0.21786177410E+02 -0.40264654298E+02  0.11722737815E+03  0.12584966468E+03  0.00000000000E+00 0. -1.
         11    1    3    3    0    0  0.21786177410E+02  0.40264654298E+02  0.10028162973E+03  0.11023740370E+03  0.00000000000E+00 0.  1.
<mgrwt>
<rscale>  0 0.91798341E+02</rscale>
<asrwt>0</asrwt>
<pdfrwt beam="1">  1        2 0.34892002E-01 0.91798341E+02</pdfrwt>
<pdfrwt beam="2">  1       -2 0.14290818E-02 0.91798341E+02</pdfrwt>
<totfact> 0.15900835E+05</totfact>
</mgrwt>
</event>
<event>
 5    1  0.1247456E+001  0.9133250E+02  0.7546771E-02  0.1299657E+00
          2   -1    0    0  501    0  0.00000000000E+00  0.00000000000E+00  0.12183460092E+03  0.12183460092E+03  0.00000000000E+00 0. -1.
         -2   -1    0    0    0  501 -0.00000000000E+00 -0.00000000000E+00 -0.17116702429E+02  0.17116702429E+02  0.00000000000E+00 0.  1.
         23    2    1    2    0    0  0.00000000000E+00  0.00000000000E+00  0.10471789849E+03  0.13895130334E+03  0.91332504825E+02 0.  0.
        -13    1    3    3    0    0  0.18294587676E+02  0.40380706663E+02  0.69032673923E+02  0.82041474132E+02  0.00000000000E+00 0. -1.
         13    1    3    3    0    0 -0.18294587676E+02 -0.40380706663E+02  0.35685224565E+02  0.56909829213E+02  0.00000000000E+00 0.  1.
<mgrwt>
<rscale>  0 0.91332505E+02</rscale>
<asrwt>0</asrwt>
<pdfrwt beam="1">  1        2 0.18743784E-01 0.91332505E+02</pdfrwt>
<pdfrwt beam="2">  1       -2 0.26333389E-02 0.91332505E+02</pdfrwt>
<totfact> 0.12989051E+05</totfact>
</mgrwt>
</event>
<event>
 5    1  0.1247456E+001  0.9407984E+02  0.7546771E-02  0.1293262E+00
          1   -1    0    0  501    0  0.00000000000E+00  0.00000000000E+00  0.19596244091E+02  0.19596244091E+02  0.00000000000E+00 0. -1.
         -1   -1    0    0    0  501 -0.00000000000E+00 -0.00000000000E+00 -0.11291724618E+03  0.11291724618E+03  0.00000000000E+00 0.  1.
         23    2    1    2    0    0  0.00000000000E+00  0.00000000000E+00 -0.93321002089E+02  0.13251349027E+03  0.94079836697E+02 0.  0.
        -13    1    3    3    0    0  0.20997611941E+02  0.24517335263E+02  0.15338850739E+01  0.32316439145E+02  0.00000000000E+00 0. -1.
         13    1    3    3    0    0 -0.20997611941E+02 -0.24517335263E+02 -0.94854887162E+02  0.10019705113E+03  0.00000000000E+00 0.  1.
<mgrwt>
<rscale>  0 0.94079837E+02</rscale>
<asrwt>0</asrwt>
<pdfrwt beam="1">  1        1 0.30148068E-02 0.94079837E+02</pdfrwt>
<pdfrwt beam="2">  1       -1 0.17371884E-01 0.94079837E+02</pdfrwt>
<totfact> 0.73308407E+04</totfact>
</mgrwt>
</event>
<event>
 5    1  0.1247456E+001  0.9134397E+02  0.7546771E-02  0.1299629E+00
          1   -1    0    0  501    0  0.00000000000E+00  0.00000000000E+00  0.12976156026E+02  0.12976156026E+02  0.00000000000E+00 0. -1.
         -1   -1    0    0    0  501 -0.00000000000E+00 -0.00000000000E+00 -0.16075101726E+03  0.16075101726E+03  0.00000000000E+00 0.  1.
         23    2    1    2    0    0  0.00000000000E+00  0.00000000000E+00 -0.14777486123E+03  0.17372717328E+03  0.91343971476E+02 0.  0.
        -11    1    3    3    0    0 -0.77546214395E+01 -0.44958970247E+02 -0.77916194314E+02  0.90290511659E+02  0.00000000000E+00 0. -1.
         11    1    3    3    0    0  0.77546214395E+01  0.44958970247E+02 -0.69858666915E+02  0.83436661622E+02  0.00000000000E+00 0.  1.
<mgrwt>
<rscale>  0 0.91343971E+02</rscale>
<asrwt>0</asrwt>
<pdfrwt beam="1">  1        1 0.19963317E-02 0.91343971E+02</pdfrwt>
<pdfrwt beam="2">  1       -1 0.24730926E-01 0.91343971E+02</pdfrwt>
<totfact> 0.73209410E+04</totfact>
</mgrwt>
</event>
<event>
 5    1  0.1247456E+001  0.9140559E+02  0.7546771E-02  0.1299483E+00
          1   -1    0    0  501    0  0.00000000000E+00  0.00000000000E+00  0.28175477879E+02  0.28175477879E+02  0.00000000000E+00 0. -1.
         -1   -1    0    0    0  501 -0.00000000000E+00 -0.00000000000E+00 -0.74133446961E+02  0.74133446961E+02  0.00000000000E+00 0.  1.
         23    2    1    2    0    0  0.00000000000E+00  0.00000000000E+00 -0.45957969082E+02  0.10230892484E+03  0.91405586151E+02 0.  0.
        -13    1    3    3    0    0 -0.75669340522E+01  0.18760179949E+02 -0.68849780433E+02  0.71759982639E+02  0.00000000000E+00 0.  1.
         13    1    3    3    0    0  0.75669340522E+01 -0.18760179949E+02  0.22891811351E+02  0.30548942201E+02  0.00000000000E+00 0. -1.
<mgrwt>
<rscale>  0 0.91405586E+02</rscale>
<asrwt>0</asrwt>
<pdfrwt beam="1">  1        1 0.43346889E-02 0.91405586E+02</pdfrwt>
<pdfrwt beam="2">  1       -1 0.11405146E-01 0.91405586E+02</pdfrwt>
<totfact> 0.85185483E+04</totfact>
</mgrwt>
</event>
<event>
 5    1  0.1247456E+001  0.9163040E+02  0.7546771E-02  0.1298951E+00
          2   -1    0    0  501    0  0.00000000000E+00  0.00000000000E+00  0.50314276416E+02  0.50314276416E+02  0.00000000000E+00 0. -1.
         -2   -1    0    0    0  501 -0.00000000000E+00 -0.00000000000E+00 -0.41718425093E+02  0.41718425093E+02  0.00000000000E+00 0.  1.
         23    2    1    2    0    0  0.00000000000E+00  0.00000000000E+00  0.85958513237E+01  0.92032701509E+02  0.91630396087E+02 0.  0.
        -13    1    3    3    0    0  0.27762897844E+02 -0.13088439265E+02 -0.29865331471E+02  0.42825503651E+02  0.00000000000E+00 0.  1.
         13    1    3    3    0    0 -0.27762897844E+02  0.13088439265E+02  0.38461182794E+02  0.49207197858E+02  0.00000000000E+00 0. -1.
<mgrwt>
<rscale>  0 0.91630396E+02</rscale>
<asrwt>0</asrwt>
<pdfrwt beam="1">  1        2 0.77406580E-02 0.91630396E+02</pdfrwt>
<pdfrwt beam="2">  1       -2 0.64182192E-02 0.91630396E+02</pdfrwt>
<totfact> 0.99818588E+04</totfact>
</mgrwt>
</event>
<event>
 5    1  0.1247456E+001  0.9263703E+02  0.7546771E-02  0.1296589E+00
         -1   -1    0    0    0  501 -0.00000000000E+00  0.00000000000E+00  0.64073063891E+01  0.64073063891E+01  0.00000000000E+00 0.  1.
          1   -1    0    0  501    0  0.00000000000E+00 -0.00000000000E+00 -0.33483722854E+03  0.33483722854E+03  0.00000000000E+00 0. -1.
         23    2    1    2    0    0  0.00000000000E+00  0.00000000000E+00 -0.32842992215E+03  0.34124453493E+03  0.92637027450E+02 0.  0.
        -11    1    3    3    0    0  0.35297607068E+02 -0.29380508289E+02 -0.18639953896E+03  0.19197375721E+03  0.00000000000E+00 0.  1.
         11    1    3    3    0    0 -0.35297607068E+02  0.29380508289E+02 -0.14203038319E+03  0.14927077772E+03  0.00000000000E+00 0. -1.
<mgrwt>
<rscale>  0 0.92637027E+02</rscale>
<asrwt>0</asrwt>
<pdfrwt beam="2">  1        1 0.51513436E-01 0.92637027E+02</pdfrwt>
<pdfrwt beam="1">  1       -1 0.98573913E-03 0.92637027E+02</pdfrwt>
<totfact> 0.12536084E+05</totfact>
</mgrwt>
</event>
<event>
 5    1  0.1247456E+001  0.8184727E+02  0.7546771E-02  0.1323889E+00
          1   -1    0    0  501    0  0.00000000000E+00  0.00000000000E+00  0.10027613187E+03  0.10027613187E+03  0.00000000000E+00 0. -1.
         -1   -1    0    0    0  501 -0.00000000000E+00 -0.00000000000E+00 -0.16701322746E+02  0.16701322746E+02  0.00000000000E+00 0.  1.
         23    2    1    2    0    0  0.00000000000E+00  0.00000000000E+00  0.83574809127E+02  0.11697745462E+03  0.81847273434E+02 0.  0.
        -13    1    3    3    0    0  0.20781000197E+02  0.25102480042E+02  0.77166196695E+02  0.83765186001E+02  0.00000000000E+00 0. -1.
         13    1    3    3    0    0 -0.20781000197E+02 -0.25102480042E+02  0.64086124328E+01  0.33212268618E+02  0.00000000000E+00 0.  1.
<mgrwt>
<rscale>  0 0.81847273E+02</rscale>
<asrwt>0</asrwt>
<pdfrwt beam="1">  1        1 0.15427097E-01 0.81847273E+02</pdfrwt>
<pdfrwt beam="2">  1       -1 0.25694343E-02 0.81847273E+02</pdfrwt>
<totfact> 0.13993639E+05</totfact>
</mgrwt>
</event>
<event>
 5    1  0.1247456E+001  0.9695296E+02  0.7546771E-02  0.1286837E+00
         -2   -1    0    0    0  501 -0.00000000000E+00  0.00000000000E+00  0.37619989251E+02  0.37619989251E+02  0.00000000000E+00 0.  1.
          2   -1    0    0  501    0  0.00000000000E+00 -0.00000000000E+00 -0.62465972274E+02  0.62465972274E+02  0.00000000000E+00 0. -1.
         23    2    1    2    0    0  0.00000000000E+00  0.00000000000E+00 -0.24845983022E+02  0.10008596153E+03  0.96952961905E+02 0.  0.
        -11    1    3    3    0    0  0.27973708263E+02  0.22596442724E+02  0.21136628918E+02  0.41711924671E+02  0.00000000000E+00 0.  1.
         11    1    3    3    0    0 -0.27973708263E+02 -0.22596442724E+02 -0.45982611940E+02  0.58374036854E+02  0.00000000000E+00 0. -1.
<mgrwt>
<rscale>  0 0.96952962E+02</rscale>
<asrwt>0</asrwt>
<pdfrwt beam="2">  1        2 0.96101494E-02 0.96952962E+02</pdfrwt>
<pdfrwt beam="1">  1       -2 0.57876908E-02 0.96952962E+02</pdfrwt>
<totfact> 0.90104814E+04</totfact>
</mgrwt>
</event>
<event>
 5    1  0.1247456E+001  0.8915510E+02  0.7546771E-02  0.1304911E+00
         -4   -1    0    0    0  501 -0.00000000000E+00  0.00000000000E+00  0.11002533589E+03  0.11002533589E+03  0.00000000000E+00 0.  1.
          4   -1    0    0  501    0  0.00000000000E+00 -0.00000000000E+00 -0.18060913702E+02  0.18060913702E+02  0.00000000000E+00 0. -1.
         23    2    1    2    0    0  0.00000000000E+00  0.00000000000E+00  0.91964422193E+02  0.12808624960E+03  0.89155102975E+02 0.  0.
        -13    1    3    3    0    0 -0.23432327813E+02  0.35217901689E+02  0.66186861674E+02  0.78549826508E+02  0.00000000000E+00 0.  1.
         13    1    3    3    0    0  0.23432327813E+02 -0.35217901689E+02  0.25777560519E+02  0.49536423089E+02  0.00000000000E+00 0. -1.
<mgrwt>
<rscale>  0 0.89155103E+02</rscale>
<asrwt>0</asrwt>
<pdfrwt beam="2">  1        4 0.27786022E-02 0.89155103E+02</pdfrwt>
<pdfrwt beam="1">  1       -4 0.16926974E-01 0.89155103E+02</pdfrwt>
<totfact> 0.26365199E+04</totfact>
</mgrwt>
</event>
<event>
 5    1  0.1247456E+001  0.9671165E+02  0.7546771E-02  0.1287367E+00
          4   -1    0    0  501    0  0.00000000000E+00  0.00000000000E+00  0.77141894254E+02  0.77141894254E+02  0.00000000000E+00 0. -1.
         -4   -1    0    0    0  501 -0.00000000000E+00 -0.00000000000E+00 -0.30311491318E+02  0.30311491318E+02  0.00000000000E+00 0.  1.
         23    2    1    2    0    0  0.00000000000E+00  0.00000000000E+00  0.46830402936E+02  0.10745338557E+03  0.96711650962E+02 0.  0.
        -13    1    3    3    0    0 -0.15267239555E+02 -0.43414070921E+02  0.39910590766E+02  0.60915723856E+02  0.00000000000E+00 0. -1.
         13    1    3    3    0    0  0.15267239555E+02  0.43414070921E+02  0.69198121699E+01  0.46537661717E+02  0.00000000000E+00 0.  1.
<mgrwt>
<rscale>  0 0.96711651E+02</rscale>
<asrwt>0</asrwt>
<pdfrwt beam="1">  1        4 0.11867984E-01 0.96711651E+02</pdfrwt>
<pdfrwt beam="2">  1       -4 0.46633064E-02 0.96711651E+02</pdfrwt>
<totfact> 0.22149781E+04</totfact>
</mgrwt>
</event>
<event>
 5    1  0.1247456E+001  0.9045572E+02  0.7546771E-02  0.1301752E+00
          2   -1    0    0  501    0  0.00000000000E+00  0.00000000000E+00  0.43210849183E+02  0.43210849183E+02  0.00000000000E+00 0. -1.
         -2   -1    0    0    0  501 -0.00000000000E+00 -0.00000000000E+00 -0.47339024014E+02  0.47339024014E+02  0.00000000000E+00 0.  1.
         23    2    1    2    0    0  0.00000000000E+00  0.00000000000E+00 -0.41281748309E+01  0.90549873198E+02  0.90455722366E+02 0.  0.
        -11    1    3    3    0    0  0.11672513538E+02  0.29144529751E+02 -0.34654205543E+02  0.46760722284E+02  0.00000000000E+00 0.  1.
         11    1    3    3    0    0 -0.11672513538E+02 -0.29144529751E+02  0.30526030712E+02  0.43789150914E+02  0.00000000000E+00 0. -1.
<mgrwt>
<rscale>  0 0.90455722E+02</rscale>
<asrwt>0</asrwt>
<pdfrwt beam="1">  1        2 0.66478230E-02 0.90455722E+02</pdfrwt>
<pdfrwt beam="2">  1       -2 0.72829267E-02 0.90455722E+02</pdfrwt>
<totfact> 0.99562124E+04</totfact>
</mgrwt>
</event>
<event>
 5    1  0.1247456E+001  0.9105583E+02  0.7546771E-02  0.1300315E+00
          1   -1    0    0  501    0  0.00000000000E+00  0.00000000000E+00  0.43937714697E+02  0.43937714697E+02  0.00000000000E+00 0. -1.
         -1   -1    0    0    0  501 -0.00000000000E+00 -0.00000000000E+00 -0.47175668540E+02  0.47175668540E+02  0.00000000000E+00 0.  1.
         23    2    1    2    0    0  0.00000000000E+00  0.00000000000E+00 -0.32379538427E+01  0.91113383237E+02  0.91055830455E+02 0.  0.
        -13    1    3    3    0    0  0.16664510801E+02  0.24786295607E+02  0.32764416528E+02  0.44334787251E+02  0.00000000000E+00 0. -1.
         13    1    3    3    0    0 -0.16664510801E+02 -0.24786295607E+02 -0.36002370371E+02  0.46778595986E+02  0.00000000000E+00 0.  1.
<mgrwt>
<rscale>  0 0.91055830E+02</rscale>
<asrwt>0</asrwt>
<pdfrwt beam="1">  1        1 0.67596484E-02 0.91055830E+02</pdfrwt>
<pdfrwt beam="2">  1       -1 0.72577951E-02 0.91055830E+02</pdfrwt>
<totfact> 0.92304794E+04</totfact>
</mgrwt>
</event>
<event>
 5    1  0.1247456E+001  0.9236330E+02  0.7546771E-02  0.1297227E+00
         -3   -1    0    0    0  501 -0.00000000000E+00  0.00000000000E+00  0.28878677903E+02  0.28878677903E+02  0.00000000000E+00 0.  1.
          3   -1    0    0  501    0  0.00000000000E+00 -0.00000000000E+00 -0.73851877316E+02  0.73851877316E+02  0.00000000000E+00 0. -1.
         23    2    1    2    0    0  0.00000000000E+00  0.00000000000E+00 -0.44973199413E+02  0.10273055522E+03  0.92363295255E+02 0.  0.
        -13    1    3    3    0    0 -0.14556727067E+01 -0.27792761704E+02 -0.63476811243E+02  0.69309899377E+02  0.00000000000E+00 0. -1.
         13    1    3    3    0    0  0.14556727067E+01  0.27792761704E+02  0.18503611830E+02  0.33420655842E+02  0.00000000000E+00 0.  1.
<mgrwt>
<rscale>  0 0.92363295E+02</rscale>
<asrwt>0</asrwt>
<pdfrwt beam="2">  1        3 0.11361827E-01 0.92363295E+02</pdfrwt>
<pdfrwt beam="1">  1       -3 0.44428735E-02 0.92363295E+02</pdfrwt>
<totfact> 0.33275466E+04</totfact>
</mgrwt>
</event>
<event>
 5    1  0.1247456E+001  0.9078420E+02  0.7546771E-02  0.1300964E+00
         -1   -1    0    0    0  501 -0.00000000000E+00  0.00000000000E+00  0.10454207490E+02  0.10454207490E+02  0.00000000000E+00 0.  1.
          1   -1    0    0  501    0  0.00000000000E+00 -0.00000000000E+00 -0.19709221761E+03  0.19709221761E+03  0.00000000000E+00 0. -1.
         23    2    1    2    0    0  0.00000000000E+00  0.00000000000E+00 -0.18663801012E+03  0.20754642510E+03  0.90784204300E+02 0.  0.
        -11    1    3    3    0    0  0.45398292301E+01  0.43215750997E+02 -0.63316219501E+02  0.76792934802E+02  0.00000000000E+00 0. -1.
         11    1    3    3    0    0 -0.45398292301E+01 -0.43215750997E+02 -0.12332179062E+03  0.13075349030E+03  0.00000000000E+00 0.  1.
<mgrwt>
<rscale>  0 0.90784204E+02</rscale>
<asrwt>0</asrwt>
<pdfrwt beam="2">  1        1 0.30321879E-01 0.90784204E+02</pdfrwt>
<pdfrwt beam="1">  1       -1 0.16083397E-02 0.90784204E+02</pdfrwt>
<totfact> 0.11944465E+05</totfact>
</mgrwt>
</event>
<event>
 5    1  0.1247456E+001  0.9056073E+02  0.7546771E-02  0.1301499E+00
         -2   -1    0    0    0  501 -0.00000000000E+00  0.00000000000E+00  0.26886944014E+03  0.26886944014E+03  0.00000000000E+00 0. -1.
          2   -1    0    0  501    0  0.00000000000E+00 -0.00000000000E+00 -0.76256766259E+01  0.76256766259E+01  0.00000000000E+00 0.  1.
         23    2    1    2    0    0  0.00000000000E+00  0.00000000000E+00  0.26124376351E+03  0.27649511677E+03  0.90560728908E+02 0.  0.
        -11    1    3    3    0    0  0.28658885326E+02  0.30001530306E+02  0.75252268718E+02  0.85932109692E+02  0.00000000000E+00 0.  1.
         11    1    3    3    0    0 -0.28658885326E+02 -0.30001530306E+02  0.18599149480E+03  0.19056300708E+03  0.00000000000E+00 0. -1.
<mgrwt>
<rscale>  0 0.90560729E+02</rscale>
<asrwt>0</asrwt>
<pdfrwt beam="2">  1        2 0.11731812E-02 0.90560729E+02</pdfrwt>
<pdfrwt beam="1">  1       -2 0.41364522E-01 0.90560729E+02</pdfrwt>
<totfact> 0.55076526E+04</totfact>
</mgrwt>
</event>
<event>
 5    1  0.1247456E+001  0.9094105E+02  0.7546771E-02  0.1300589E+00
          2   -1    0    0  501    0  0.00000000000E+00  0.00000000000E+00  0.13877911697E+02  0.13877911697E+02  0.00000000000E+00 0. -1.
         -2   -1    0    0    0  501 -0.00000000000E+00 -0.00000000000E+00 -0.14898269195E+03  0.14898269195E+03  0.00000000000E+00 0.  1.
         23    2    1    2    0    0  0.00000000000E+00  0.00000000000E+00 -0.13510478025E+03  0.16286060364E+03  0.90941049988E+02 0.  0.
        -11    1    3    3    0    0  0.34014484303E+02 -0.30078974066E+02 -0.63225074048E+02  0.77840476692E+02  0.00000000000E+00 0.  1.
         11    1    3    3    0    0 -0.34014484303E+02  0.30078974066E+02 -0.71879706200E+02  0.85020126951E+02  0.00000000000E+00 0. -1.
<mgrwt>
<rscale>  0 0.90941050E+02</rscale>
<asrwt>0</asrwt>
<pdfrwt beam="1">  1        2 0.21350634E-02 0.90941050E+02</pdfrwt>
<pdfrwt beam="2">  1       -2 0.22920414E-01 0.90941050E+02</pdfrwt>
<totfact> 0.70490110E+04</totfact>
</mgrwt>
</event>
<event>
 5    1  0.1247456E+001  0.8815719E+02  0.7546771E-02  0.1307377E+00
          3   -1    0    0  501    0  0.00000000000E+00  0.00000000000E+00  0.90082393963E+02  0.90082393963E+02  0.00000000000E+00 0. -1.
         -3   -1    0    0    0  501 -0.00000000000E+00 -0.00000000000E+00 -0.21568281875E+02  0.21568281875E+02  0.00000000000E+00 0.  1.
         23    2    1    2    0    0  0.00000000000E+00  0.00000000000E+00  0.68514112088E+02  0.11165067584E+03  0.88157188362E+02 0.  0.
        -11    1    3    3    0    0 -0.25584798361E+02  0.26547283502E+02  0.36617585767E+01  0.37050622725E+02  0.00000000000E+00 0.  1.
         11    1    3    3    0    0  0.25584798361E+02 -0.26547283502E+02  0.64852353511E+02  0.74600053113E+02  0.00000000000E+00 0. -1.
<mgrwt>
<rscale>  0 0.88157188E+02</rscale>
<asrwt>0</asrwt>
<pdfrwt beam="1">  1        3 0.13858830E-01 0.88157188E+02</pdfrwt>
<pdfrwt beam="2">  1       -3 0.33181972E-02 0.88157188E+02</pdfrwt>
<totfact> 0.37058257E+04</totfact>
</mgrwt>
</event>
<event>
 5    1  0.1247456E+001  0.9122159E+02  0.7546771E-02  0.1299920E+00
         -2   -1    0    0    0  501 -0.00000000000E+00  0.00000000000E+00  0.33794760381E+02  0.33794760381E+02  0.00000000000E+00 0.  1.
          2   -1    0    0  501    0  0.00000000000E+00 -0.00000000000E+00 -0.61558198171E+02  0.61558198171E+02  0.00000000000E+00 0. -1.
         23    2    1    2    0    0  0.00000000000E+00  0.00000000000E+00 -0.27763437790E+02  0.95352958552E+02  0.91221588600E+02 0.  0.
        -11    1    3    3    0    0 -0.49348046624E+01 -0.45237180904E+02 -0.10644742115E+02  0.46733985149E+02  0.00000000000E+00 0.  1.
         11    1    3    3    0    0  0.49348046624E+01  0.45237180904E+02 -0.17118695675E+02  0.48618973403E+02  0.00000000000E+00 0. -1.
<mgrwt>
<rscale>  0 0.91221589E+02</rscale>
<asrwt>0</asrwt>
<pdfrwt beam="2">  1        2 0.94704920E-02 0.91221589E+02</pdfrwt>
<pdfrwt beam="1">  1       -2 0.51991939E-02 0.91221589E+02</pdfrwt>
<totfact> 0.10665558E+05</totfact>
</mgrwt>
</event>
<event>
 5    1  0.1247456E+001  0.9057997E+02  0.7546771E-02  0.1301453E+00
          3   -1    0    0  501    0  0.00000000000E+00  0.00000000000E+00  0.22212093268E+02  0.22212093268E+02  0.00000000000E+00 0. -1.
         -3   -1    0    0    0  501 -0.00000000000E+00 -0.00000000000E+00 -0.92345322537E+02  0.92345322537E+02  0.00000000000E+00 0.  1.
         23    2    1    2    0    0  0.00000000000E+00  0.00000000000E+00 -0.70133229269E+02  0.11455741581E+03  0.90579973881E+02 0.  0.
        -11    1    3    3    0    0  0.43502247863E+02  0.34393902141E+01 -0.19737620576E+02  0.47894139936E+02  0.00000000000E+00 0. -1.
         11    1    3    3    0    0 -0.43502247863E+02 -0.34393902141E+01 -0.50395608693E+02  0.66663275870E+02  0.00000000000E+00 0.  1.
<mgrwt>
<rscale>  0 0.90579974E+02</rscale>
<asrwt>0</asrwt>
<pdfrwt beam="1">  1        3 0.34172451E-02 0.90579974E+02</pdfrwt>
<pdfrwt beam="2">  1       -3 0.14206973E-01 0.90579974E+02</pdfrwt>
<totfact> 0.34229129E+04</totfact>
</mgrwt>
</event>
<event>
 5    1  0.1247456E+001  0.9101244E+02  0.7546771E-02  0.1300418E+00
          2   -1    0    0  501    0  0.00000000000E+00  0.00000000000E+00  0.18899548594E+02  0.18899548594E+02  0.00000000000E+00 0. -1.
         -2   -1    0    0    0  501 -0.00000000000E+00 -0.00000000000E+00 -0.10956960154E+03  0.10956960154E+03  0.00000000000E+00 0.  1.
         23    2    1    2    0    0  0.00000000000E+00  0.00000000000E+00 -0.90670052951E+02  0.12846915014E+03  0.91012438903E+02 0.  0.
        -11    1    3    3    0    0  0.21757313624E+02  0.23736573975E+02 -0.90725064385E+02  0.96269636687E+02  0.00000000000E+00 0.  1.
         11    1    3    3    0    0 -0.21757313624E+02 -0.23736573975E+02  0.55011433973E-01  0.32199513451E+02  0.00000000000E+00 0. -1.
<mgrwt>
<rscale>  0 0.91012439E+02</rscale>
<asrwt>0</asrwt>
<pdfrwt beam="1">  1        2 0.29076228E-02 0.91012439E+02</pdfrwt>
<pdfrwt beam="2">  1       -2 0.16856862E-01 0.91012439E+02</pdfrwt>
<totfact> 0.77970602E+04</totfact>
</mgrwt>
</event>
<event>
 5    1  0.1247456E+001  0.9013809E+02  0.7546771E-02  0.1302518E+00
         -1   -1    0    0    0  501 -0.00000000000E+00  0.00000000000E+00  0.11736092867E+03  0.11736092867E+03  0.00000000000E+00 0.  1.
          1   -1    0    0  501    0  0.00000000000E+00 -0.00000000000E+00 -0.17307453582E+02  0.17307453582E+02  0.00000000000E+00 0. -1.
         23    2    1    2    0    0  0.00000000000E+00  0.00000000000E+00  0.10005347509E+03  0.13466838225E+03  0.90138090179E+02 0.  0.
        -11    1    3    3    0    0 -0.43503720898E+02 -0.58123270419E+01  0.65325850490E+02  0.78700848915E+02  0.00000000000E+00 0.  1.
         11    1    3    3    0    0  0.43503720898E+02  0.58123270419E+01  0.34727624596E+02  0.55967533336E+02  0.00000000000E+00 0. -1.
<mgrwt>
<rscale>  0 0.90138090E+02</rscale>
<asrwt>0</asrwt>
<pdfrwt beam="2">  1        1 0.26626852E-02 0.90138090E+02</pdfrwt>
<pdfrwt beam="1">  1       -1 0.18055527E-01 0.90138090E+02</pdfrwt>
<totfact> 0.81254679E+04</totfact>
</mgrwt>
</event>
<event>
 5    1  0.1247456E+001  0.9066931E+02  0.7546771E-02  0.1301239E+00
          3   -1    0    0  501    0  0.00000000000E+00  0.00000000000E+00  0.62128804843E+02  0.62128804843E+02  0.00000000000E+00 0. -1.
         -3   -1    0    0    0  501 -0.00000000000E+00 -0.00000000000E+00 -0.33080161940E+02  0.33080161940E+02  0.00000000000E+00 0.  1.
         23    2    1    2    0    0  0.00000000000E+00  0.00000000000E+00  0.29048642904E+02  0.95208966783E+02  0.90669309589E+02 0.  0.
        -11    1    3    3    0    0 -0.11512098694E+02 -0.29545736442E+01  0.60463735055E+02  0.61620785280E+02  0.00000000000E+00 0. -1.
         11    1    3    3    0    0  0.11512098694E+02  0.29545736442E+01 -0.31415092151E+02  0.33588181502E+02  0.00000000000E+00 0.  1.
<mgrwt>
<rscale>  0 0.90669310E+02</rscale>
<asrwt>0</asrwt>
<pdfrwt beam="1">  1        3 0.95582776E-02 0.90669310E+02</pdfrwt>
<pdfrwt beam="2">  1       -3 0.50892557E-02 0.90669310E+02</pdfrwt>
<totfact> 0.35566298E+04</totfact>
</mgrwt>
</event>
<event>
 5    1  0.1247456E+001  0.9253383E+02  0.7546771E-02  0.1296829E+00
         -2   -1    0    0    0  501 -0.00000000000E+00  0.00000000000E+00  0.26677930739E+02  0.26677930739E+02  0.00000000000E+00 0.  1.
          2   -1    0    0  501    0  0.00000000000E+00 -0.00000000000E+00 -0.80239633186E+02  0.80239633186E+02  0.00000000000E+00 0. -1.
         23    2    1    2    0    0  0.00000000000E+00  0.00000000000E+00 -0.53561702448E+02  0.10691756392E+03  0.92533828984E+02 0.  0.
        -11    1    3    3    0    0  0.13121412013E+02 -0.41414896665E+02 -0.45168820043E+02  0.62670466912E+02  0.00000000000E+00 0.  1.
         11    1    3    3    0    0 -0.13121412013E+02  0.41414896665E+02 -0.83928824051E+01  0.44247097012E+02  0.00000000000E+00 0. -1.
<mgrwt>
<rscale>  0 0.92533829E+02</rscale>
<asrwt>0</asrwt>
<pdfrwt beam="2">  1        2 0.12344559E-01 0.92533829E+02</pdfrwt>
<pdfrwt beam="1">  1       -2 0.41042971E-02 0.92533829E+02</pdfrwt>
<totfact> 0.11032082E+05</totfact>
</mgrwt>
</event>
<event>
 5    1  0.1247456E+001  0.9197949E+02  0.7546771E-02  0.1298128E+00
         -1   -1    0    0    0  501 -0.00000000000E+00  0.00000000000E+00  0.15872640980E+03  0.15872640980E+03  0.00000000000E+00 0.  1.
          1   -1    0    0  501    0  0.00000000000E+00 -0.00000000000E+00 -0.13325170186E+02  0.13325170186E+02  0.00000000000E+00 0. -1.
         23    2    1    2    0    0  0.00000000000E+00  0.00000000000E+00  0.14540123961E+03  0.17205157999E+03  0.91979485182E+02 0.  0.
        -11    1    3    3    0    0  0.26450201285E+02  0.15232203110E+01  0.14301719092E+03  0.14545050790E+03  0.00000000000E+00 0.  1.
         11    1    3    3    0    0 -0.26450201285E+02 -0.15232203110E+01  0.23840486908E+01  0.26601072089E+02  0.00000000000E+00 0. -1.
<mgrwt>
<rscale>  0 0.91979485E+02</rscale>
<asrwt>0</asrwt>
<pdfrwt beam="2">  1        1 0.20500263E-02 0.91979485E+02</pdfrwt>
<pdfrwt beam="1">  1       -1 0.24419446E-01 0.91979485E+02</pdfrwt>
<totfact> 0.72123879E+04</totfact>
</mgrwt>
</event>
<event>
 5    1  0.1247456E+001  0.9180900E+02  0.7546771E-02  0.1298529E+00
         -2   -1    0    0    0  501 -0.00000000000E+00  0.00000000000E+00  0.22514208471E+03  0.22514208471E+03  0.00000000000E+00 0.  1.
          2   -1    0    0  501    0  0.00000000000E+00 -0.00000000000E+00 -0.93595261798E+01  0.93595261798E+01  0.00000000000E+00 0. -1.
         23    2    1    2    0    0  0.00000000000E+00  0.00000000000E+00  0.21578255853E+03  0.23450161089E+03  0.91809002522E+02 0.  0.
        -11    1    3    3    0    0 -0.50181449037E+01 -0.39886855866E+02  0.51288628823E+02  0.65166452226E+02  0.00000000000E+00 0. -1.
         11    1    3    3    0    0  0.50181449037E+01  0.39886855866E+02  0.16449392971E+03  0.16933515867E+03  0.00000000000E+00 0.  1.
<mgrwt>
<rscale>  0 0.91809003E+02</rscale>
<asrwt>0</asrwt>
<pdfrwt beam="2">  1        2 0.14399273E-02 0.91809003E+02</pdfrwt>
<pdfrwt beam="1">  1       -2 0.34637240E-01 0.91809003E+02</pdfrwt>
<totfact> 0.58051773E+04</totfact>
</mgrwt>
</event>
<event>
 5    1  0.1247456E+001  0.9451285E+02  0.7546771E-02  0.1292277E+00
          1   -1    0    0  501    0  0.00000000000E+00  0.00000000000E+00  0.13618656511E+03  0.13618656511E+03  0.00000000000E+00 0. -1.
         -1   -1    0    0    0  501 -0.00000000000E+00 -0.00000000000E+00 -0.16397871396E+02  0.16397871396E+02  0.00000000000E+00 0.  1.
         23    2    1    2    0    0  0.00000000000E+00  0.00000000000E+00  0.11978869372E+03  0.15258443651E+03  0.94512851625E+02 0.  0.
        -11    1    3    3    0    0 -0.24460488503E+02  0.24377758639E+00 -0.53812726894E+01  0.25046616959E+02  0.00000000000E+00 0.  1.
         11    1    3    3    0    0  0.24460488503E+02 -0.24377758639E+00  0.12516996641E+03  0.12753781955E+03  0.00000000000E+00 0. -1.
<mgrwt>
<rscale>  0 0.94512852E+02</rscale>
<asrwt>0</asrwt>
<pdfrwt beam="1">  1        1 0.20951778E-01 0.94512852E+02</pdfrwt>
<pdfrwt beam="2">  1       -1 0.25227495E-02 0.94512852E+02</pdfrwt>
<totfact> 0.99949567E+04</totfact>
</mgrwt>
</event>
<event>
 5    1  0.1247456E+001  0.8941206E+02  0.7546771E-02  0.1304282E+00
          1   -1    0    0  501    0  0.00000000000E+00  0.00000000000E+00  0.11673502057E+03  0.11673502057E+03  0.00000000000E+00 0. -1.
         -1   -1    0    0    0  501 -0.00000000000E+00 -0.00000000000E+00 -0.17121076198E+02  0.17121076198E+02  0.00000000000E+00 0.  1.
         23    2    1    2    0    0  0.00000000000E+00  0.00000000000E+00  0.99613944376E+02  0.13385609677E+03  0.89412061428E+02 0.  0.
        -13    1    3    3    0    0  0.40076305554E+01  0.27704933719E+02 -0.23762669000E+01  0.28093969093E+02  0.00000000000E+00 0.  1.
         13    1    3    3    0    0 -0.40076305554E+01 -0.27704933719E+02  0.10199021128E+03  0.10576212768E+03  0.00000000000E+00 0. -1.
<mgrwt>
<rscale>  0 0.89412061E+02</rscale>
<asrwt>0</asrwt>
<pdfrwt beam="1">  1        1 0.17959233E-01 0.89412061E+02</pdfrwt>
<pdfrwt beam="2">  1       -1 0.26340118E-02 0.89412061E+02</pdfrwt>
<totfact> 0.11305516E+05</totfact>
</mgrwt>
</event>
<event>
 5    1  0.1247456E+001  0.9124436E+02  0.7546771E-02  0.1299866E+00
         -2   -1    0    0    0  501 -0.00000000000E+00  0.00000000000E+00  0.21426992327E+02  0.21426992327E+02  0.00000000000E+00 0. -1.
          2   -1    0    0  501    0  0.00000000000E+00 -0.00000000000E+00 -0.97138369804E+02  0.97138369804E+02  0.00000000000E+00 0.  1.
         23    2    1    2    0    0  0.00000000000E+00  0.00000000000E+00 -0.75711377476E+02  0.11856536213E+03  0.91244355540E+02 0.  0.
        -13    1    3    3    0    0 -0.24094468058E+02  0.75690681242E+01  0.11514817138E+02  0.27756534311E+02  0.00000000000E+00 0. -1.
         13    1    3    3    0    0  0.24094468058E+02 -0.75690681242E+01 -0.87226194614E+02  0.90808827820E+02  0.00000000000E+00 0.  1.
<mgrwt>
<rscale>  0 0.91244356E+02</rscale>
<asrwt>0</asrwt>
<pdfrwt beam="2">  1        2 0.14944364E-01 0.91244356E+02</pdfrwt>
<pdfrwt beam="1">  1       -2 0.32964604E-02 0.91244356E+02</pdfrwt>
<totfact> 0.12135266E+05</totfact>
</mgrwt>
</event>
<event>
 5    1  0.1247456E+001  0.9114739E+02  0.7546771E-02  0.1300097E+00
         -3   -1    0    0    0  501 -0.00000000000E+00  0.00000000000E+00  0.18560188499E+03  0.18560188499E+03  0.00000000000E+00 0.  1.
          3   -1    0    0  501    0  0.00000000000E+00 -0.00000000000E+00 -0.11190411439E+02  0.11190411439E+02  0.00000000000E+00 0. -1.
         23    2    1    2    0    0  0.00000000000E+00  0.00000000000E+00  0.17441147355E+03  0.19679229643E+03  0.91147385193E+02 0.  0.
        -13    1    3    3    0    0 -0.40239008352E+02 -0.13581389277E+02  0.12290071784E+03  0.13003160529E+03  0.00000000000E+00 0.  1.
         13    1    3    3    0    0  0.40239008352E+02  0.13581389277E+02  0.51510755710E+02  0.66760691141E+02  0.00000000000E+00 0. -1.
<mgrwt>
<rscale>  0 0.91147385E+02</rscale>
<asrwt>0</asrwt>
<pdfrwt beam="2">  1        3 0.17216019E-02 0.91147385E+02</pdfrwt>
<pdfrwt beam="1">  1       -3 0.28554134E-01 0.91147385E+02</pdfrwt>
<totfact> 0.28689215E+04</totfact>
</mgrwt>
</event>
<event>
 5    1  0.1247456E+001  0.9102379E+02  0.7546771E-02  0.1300391E+00
          1   -1    0    0  501    0  0.00000000000E+00  0.00000000000E+00  0.11020482942E+03  0.11020482942E+03  0.00000000000E+00 0. -1.
         -1   -1    0    0    0  501 -0.00000000000E+00 -0.00000000000E+00 -0.18795296675E+02  0.18795296675E+02  0.00000000000E+00 0.  1.
         23    2    1    2    0    0  0.00000000000E+00  0.00000000000E+00  0.91409532746E+02  0.12900012610E+03  0.91023787308E+02 0.  0.
        -13    1    3    3    0    0 -0.68880675434E+01  0.26517218506E+02 -0.57992724328E+01  0.28004283825E+02  0.00000000000E+00 0.  1.
         13    1    3    3    0    0  0.68880675434E+01 -0.26517218506E+02  0.97208805178E+02  0.10099584227E+03  0.00000000000E+00 0. -1.
<mgrwt>
<rscale>  0 0.91023787E+02</rscale>
<asrwt>0</asrwt>
<pdfrwt beam="1">  1        1 0.16954589E-01 0.91023787E+02</pdfrwt>
<pdfrwt beam="2">  1       -1 0.28915842E-02 0.91023787E+02</pdfrwt>
<totfact> 0.10665970E+05</totfact>
</mgrwt>
</event>
<event>
 5    1  0.1247456E+001  0.9082293E+02  0.7546771E-02  0.1300871E+00
          1   -1    0    0  501    0  0.00000000000E+00  0.00000000000E+00  0.52183751569E+02  0.52183751569E+02  0.00000000000E+00 0. -1.
         -1   -1    0    0    0  501 -0.00000000000E+00 -0.00000000000E+00 -0.39518067558E+02  0.39518067558E+02  0.00000000000E+00 0.  1.
         23    2    1    2    0    0  0.00000000000E+00  0.00000000000E+00  0.12665684010E+02  0.91701819127E+02  0.90822927060E+02 0.  0.
        -11    1    3    3    0    0  0.36873438786E+02  0.16231634712E+02  0.27489961693E+02  0.48773091425E+02  0.00000000000E+00 0.  1.
         11    1    3    3    0    0 -0.36873438786E+02 -0.16231634712E+02 -0.14824277683E+02  0.42928727702E+02  0.00000000000E+00 0. -1.
<mgrwt>
<rscale>  0 0.90822927E+02</rscale>
<asrwt>0</asrwt>
<pdfrwt beam="1">  1        1 0.80282695E-02 0.90822927E+02</pdfrwt>
<pdfrwt beam="2">  1       -1 0.60797027E-02 0.90822927E+02</pdfrwt>
<totfact> 0.95396434E+04</totfact>
</mgrwt>
</event>
<event>
 5    1  0.1247456E+001  0.9146384E+02  0.7546771E-02  0.1299345E+00
          2   -1    0    0  501    0  0.00000000000E+00  0.00000000000E+00  0.53729753878E+02  0.53729753878E+02  0.00000000000E+00 0. -1.
         -2   -1    0    0    0  501 -0.00000000000E+00 -0.00000000000E+00 -0.38924585124E+02  0.38924585124E+02  0.00000000000E+00 0.  1.
         23    2    1    2    0    0  0.00000000000E+00  0.00000000000E+00  0.14805168753E+02  0.92654339002E+02  0.91463837193E+02 0.  0.
        -11    1    3    3    0    0 -0.33058648027E+02 -0.63206533545E+01 -0.23961406704E+02  0.41315540410E+02  0.00000000000E+00 0.  1.
         11    1    3    3    0    0  0.33058648027E+02  0.63206533545E+01  0.38766575457E+02  0.51338798592E+02  0.00000000000E+00 0. -1.
<mgrwt>
<rscale>  0 0.91463837E+02</rscale>
<asrwt>0</asrwt>
<pdfrwt beam="1">  1        2 0.82661160E-02 0.91463837E+02</pdfrwt>
<pdfrwt beam="2">  1       -2 0.59883977E-02 0.91463837E+02</pdfrwt>
<totfact> 0.10208751E+05</totfact>
</mgrwt>
</event>
<event>
 5    1  0.1247456E+001  0.8347559E+02  0.7546771E-02  0.1319468E+00
         -1   -1    0    0    0  501 -0.00000000000E+00  0.00000000000E+00  0.50218586432E+01  0.50218586432E+01  0.00000000000E+00 0.  1.
          1   -1    0    0  501    0  0.00000000000E+00 -0.00000000000E+00 -0.34689217114E+03  0.34689217114E+03  0.00000000000E+00 0. -1.
         23    2    1    2    0    0  0.00000000000E+00  0.00000000000E+00 -0.34187031249E+03  0.35191402978E+03  0.83475587997E+02 0.  0.
        -11    1    3    3    0    0  0.77742763335E+01 -0.38865934439E+02 -0.11579982087E+03  0.12239525622E+03  0.00000000000E+00 0. -1.
         11    1    3    3    0    0 -0.77742763335E+01  0.38865934439E+02 -0.22607049162E+03  0.22951877356E+03  0.00000000000E+00 0.  1.
<mgrwt>
<rscale>  0 0.83475588E+02</rscale>
<asrwt>0</asrwt>
<pdfrwt beam="2">  1        1 0.53368026E-01 0.83475588E+02</pdfrwt>
<pdfrwt beam="1">  1       -1 0.77259364E-03 0.83475588E+02</pdfrwt>
<totfact> 0.16624875E+05</totfact>
</mgrwt>
</event>
<event>
 5    1  0.1247456E+001  0.8870354E+02  0.7546771E-02  0.1306022E+00
          2   -1    0    0  501    0  0.00000000000E+00  0.00000000000E+00  0.10602810381E+03  0.10602810381E+03  0.00000000000E+00 0. -1.
         -2   -1    0    0    0  501 -0.00000000000E+00 -0.00000000000E+00 -0.18552433205E+02  0.18552433205E+02  0.00000000000E+00 0.  1.
         23    2    1    2    0    0  0.00000000000E+00  0.00000000000E+00  0.87475670603E+02  0.12458053701E+03  0.88703535754E+02 0.  0.
        -11    1    3    3    0    0 -0.22286321974E+02  0.37988210991E+02  0.51075379934E+02  0.67442410669E+02  0.00000000000E+00 0. -1.
         11    1    3    3    0    0  0.22286321974E+02 -0.37988210991E+02  0.36400290669E+02  0.57138126345E+02  0.00000000000E+00 0.  1.
<mgrwt>
<rscale>  0 0.88703536E+02</rscale>
<asrwt>0</asrwt>
<pdfrwt beam="1">  1        2 0.16312016E-01 0.88703536E+02</pdfrwt>
<pdfrwt beam="2">  1       -2 0.28542206E-02 0.88703536E+02</pdfrwt>
<totfact> 0.13467241E+05</totfact>
</mgrwt>
</event>
<event>
 5    1  0.1247456E+001  0.9049151E+02  0.7546771E-02  0.1301666E+00
         -2   -1    0    0    0  501 -0.00000000000E+00  0.00000000000E+00  0.13431523613E+02  0.13431523613E+02  0.00000000000E+00 0.  1.
          2   -1    0    0  501    0  0.00000000000E+00 -0.00000000000E+00 -0.15241595441E+03  0.15241595441E+03  0.00000000000E+00 0. -1.
         23    2    1    2    0    0  0.00000000000E+00  0.00000000000E+00 -0.13898443080E+03  0.16584747803E+03  0.90491513209E+02 0.  0.
        -13    1    3    3    0    0 -0.22162098502E+02  0.20245623215E+02 -0.74454941503E+01  0.30926998764E+02  0.00000000000E+00 0.  1.
         13    1    3    3    0    0  0.22162098502E+02 -0.20245623215E+02 -0.13153893665E+03  0.13492047926E+03  0.00000000000E+00 0. -1.
<mgrwt>
<rscale>  0 0.90491513E+02</rscale>
<asrwt>0</asrwt>
<pdfrwt beam="2">  1        2 0.23448609E-01 0.90491513E+02</pdfrwt>
<pdfrwt beam="1">  1       -2 0.20663882E-02 0.90491513E+02</pdfrwt>
<totfact> 0.14347705E+05</totfact>
</mgrwt>
</event>
<event>
 5    1  0.1247456E+001  0.9184209E+02  0.7546771E-02  0.1298451E+00
         -2   -1    0    0    0  501 -0.00000000000E+00  0.00000000000E+00  0.12320338945E+02  0.12320338945E+02  0.00000000000E+00 0. -1.
          2   -1    0    0  501    0  0.00000000000E+00 -0.00000000000E+00 -0.17115944389E+03  0.17115944389E+03  0.00000000000E+00 0.  1.
         23    2    1    2    0    0  0.00000000000E+00  0.00000000000E+00 -0.15883910494E+03  0.18347978283E+03  0.91842089750E+02 0.  0.
        -13    1    3    3    0    0  0.12381485966E+02 -0.27532844851E+02 -0.14854900495E+03  0.15158550595E+03  0.00000000000E+00 0.  1.
         13    1    3    3    0    0 -0.12381485966E+02  0.27532844851E+02 -0.10290099988E+02  0.31894276886E+02  0.00000000000E+00 0. -1.
<mgrwt>
<rscale>  0 0.91842090E+02</rscale>
<asrwt>0</asrwt>
<pdfrwt beam="2">  1        2 0.26332222E-01 0.91842090E+02</pdfrwt>
<pdfrwt beam="1">  1       -2 0.18954368E-02 0.91842090E+02</pdfrwt>
<totfact> 0.14347475E+05</totfact>
</mgrwt>
</event>
<event>
 5    1  0.1247456E+001  0.9166332E+02  0.7546771E-02  0.1298873E+00
         -3   -1    0    0    0  501 -0.00000000000E+00  0.00000000000E+00  0.27534685109E+02  0.27534685109E+02  0.00000000000E+00 0.  1.
          3   -1    0    0  501    0  0.00000000000E+00 -0.00000000000E+00 -0.76287087065E+02  0.76287087065E+02  0.00000000000E+00 0. -1.
         23    2    1    2    0    0  0.00000000000E+00  0.00000000000E+00 -0.48752401956E+02  0.10382177217E+03  0.91663316986E+02 0.  0.
        -13    1    3    3    0    0  0.68580607957E+01 -0.35114920148E+02 -0.56819051786E+02  0.67145329403E+02  0.00000000000E+00 0. -1.
         13    1    3    3    0    0 -0.68580607957E+01  0.35114920148E+02  0.80666498291E+01  0.36676442771E+02  0.00000000000E+00 0.  1.
<mgrwt>
<rscale>  0 0.91663317E+02</rscale>
<asrwt>0</asrwt>
<pdfrwt beam="2">  1        3 0.11736475E-01 0.91663317E+02</pdfrwt>
<pdfrwt beam="1">  1       -3 0.42361055E-02 0.91663317E+02</pdfrwt>
<totfact> 0.33894958E+04</totfact>
</mgrwt>
</event>
<event>
 5    1  0.1247456E+001  0.9198801E+02  0.7546771E-02  0.1298108E+00
         -1   -1    0    0    0  501 -0.00000000000E+00  0.00000000000E+00  0.13133405727E+02  0.13133405727E+02  0.00000000000E+00 0.  1.
          1   -1    0    0  501    0  0.00000000000E+00 -0.00000000000E+00 -0.16107388156E+03  0.16107388156E+03  0.00000000000E+00 0. -1.
         23    2    1    2    0    0  0.00000000000E+00  0.00000000000E+00 -0.14794047583E+03  0.17420728729E+03  0.91988013100E+02 0.  0.
        -11    1    3    3    0    0  0.12040827452E+02 -0.43485187687E+02 -0.90856512337E+02  0.10144382144E+03  0.00000000000E+00 0.  1.
         11    1    3    3    0    0 -0.12040827452E+02  0.43485187687E+02 -0.57083963495E+02  0.72763465848E+02  0.00000000000E+00 0. -1.
<mgrwt>
<rscale>  0 0.91988013E+02</rscale>
<asrwt>0</asrwt>
<pdfrwt beam="2">  1        1 0.24780597E-01 0.91988013E+02</pdfrwt>
<pdfrwt beam="1">  1       -1 0.20205239E-02 0.91988013E+02</pdfrwt>
<totfact> 0.11093954E+05</totfact>
</mgrwt>
</event>
<event>
 5    1  0.1247456E+001  0.7447818E+02  0.7546771E-02  0.1345495E+00
         -2   -1    0    0    0  501 -0.00000000000E+00  0.00000000000E+00  0.12555755366E+03  0.12555755366E+03  0.00000000000E+00 0.  1.
          2   -1    0    0  501    0  0.00000000000E+00 -0.00000000000E+00 -0.11044734228E+02  0.11044734228E+02  0.00000000000E+00 0. -1.
         23    2    1    2    0    0  0.00000000000E+00  0.00000000000E+00  0.11451281943E+03  0.13660228788E+03  0.74478179635E+02 0.  0.
        -13    1    3    3    0    0  0.23992280697E+02 -0.28473079996E+02  0.58422187652E+02  0.69278408090E+02  0.00000000000E+00 0. -1.
         13    1    3    3    0    0 -0.23992280697E+02  0.28473079996E+02  0.56090631776E+02  0.67323879793E+02  0.00000000000E+00 0.  1.
<mgrwt>
<rscale>  0 0.74478180E+02</rscale>
<asrwt>0</asrwt>
<pdfrwt beam="2">  1        2 0.16991900E-02 0.74478180E+02</pdfrwt>
<pdfrwt beam="1">  1       -2 0.19316546E-01 0.74478180E+02</pdfrwt>
<totfact> 0.12349126E+05</totfact>
</mgrwt>
</event>
<event>
 5    1  0.1247456E+001  0.9211233E+02  0.7546771E-02  0.1297816E+00
         -1   -1    0    0    0  501 -0.00000000000E+00  0.00000000000E+00  0.36461948050E+02  0.36461948050E+02  0.00000000000E+00 0.  1.
          1   -1    0    0  501    0  0.00000000000E+00 -0.00000000000E+00 -0.58174907230E+02  0.58174907230E+02  0.00000000000E+00 0. -1.
         23    2    1    2    0    0  0.00000000000E+00  0.00000000000E+00 -0.21712959180E+02  0.94636855279E+02  0.92112332404E+02 0.  0.
        -11    1    3    3    0    0  0.27237891238E+02 -0.26276136755E+02 -0.37821409320E+02  0.53505112698E+02  0.00000000000E+00 0. -1.
         11    1    3    3    0    0 -0.27237891238E+02  0.26276136755E+02  0.16108450140E+02  0.41131742581E+02  0.00000000000E+00 0.  1.
<mgrwt>
<rscale>  0 0.92112332E+02</rscale>
<asrwt>0</asrwt>
<pdfrwt beam="2">  1        1 0.89499856E-02 0.92112332E+02</pdfrwt>
<pdfrwt beam="1">  1       -1 0.56095305E-02 0.92112332E+02</pdfrwt>
<totfact> 0.93236615E+04</totfact>
</mgrwt>
</event>
<event>
 5    1  0.1247456E+001  0.9000119E+02  0.7546771E-02  0.1302849E+00
          2   -1    0    0  501    0  0.00000000000E+00  0.00000000000E+00  0.37127820021E+02  0.37127820021E+02  0.00000000000E+00 0. -1.
         -2   -1    0    0    0  501 -0.00000000000E+00 -0.00000000000E+00 -0.54542750615E+02  0.54542750615E+02  0.00000000000E+00 0.  1.
         23    2    1    2    0    0  0.00000000000E+00  0.00000000000E+00 -0.17414930594E+02  0.91670570636E+02  0.90001187287E+02 0.  0.
        -13    1    3    3    0    0  0.23666855217E+02  0.36355266424E+02  0.34823086875E+01  0.43519557747E+02  0.00000000000E+00 0.  1.
         13    1    3    3    0    0 -0.23666855217E+02 -0.36355266424E+02 -0.20897239281E+02  0.48151012889E+02  0.00000000000E+00 0. -1.
<mgrwt>
<rscale>  0 0.90001187E+02</rscale>
<asrwt>0</asrwt>
<pdfrwt beam="1">  1        2 0.57119723E-02 0.90001187E+02</pdfrwt>
<pdfrwt beam="2">  1       -2 0.83911925E-02 0.90001187E+02</pdfrwt>
<totfact> 0.97161500E+04</totfact>
</mgrwt>
</event>
<event>
 5    1  0.1247456E+001  0.9069980E+02  0.7546771E-02  0.1301166E+00
         -4   -1    0    0    0  501 -0.00000000000E+00  0.00000000000E+00  0.29618066657E+03  0.29618066657E+03  0.00000000000E+00 0. -1.
          4   -1    0    0  501    0  0.00000000000E+00 -0.00000000000E+00 -0.69437809035E+01  0.69437809035E+01  0.00000000000E+00 0.  1.
         23    2    1    2    0    0  0.00000000000E+00  0.00000000000E+00  0.28923688566E+03  0.30312444747E+03  0.90699804994E+02 0.  0.
        -11    1    3    3    0    0 -0.20164958134E+02 -0.36977927407E+02  0.88433902911E+02  0.97951762801E+02  0.00000000000E+00 0. -1.
         11    1    3    3    0    0  0.20164958134E+02  0.36977927407E+02  0.20080298275E+03  0.20517268467E+03  0.00000000000E+00 0.  1.
<mgrwt>
<rscale>  0 0.90699805E+02</rscale>
<asrwt>0</asrwt>
<pdfrwt beam="2">  1        4 0.10682742E-02 0.90699805E+02</pdfrwt>
<pdfrwt beam="1">  1       -4 0.45566247E-01 0.90699805E+02</pdfrwt>
<totfact> 0.17973818E+04</totfact>
</mgrwt>
</event>
<event>
 5    1  0.1247456E+001  0.9112834E+02  0.7546771E-02  0.1300142E+00
          2   -1    0    0  501    0  0.00000000000E+00  0.00000000000E+00  0.12761569527E+03  0.12761569527E+03  0.00000000000E+00 0. -1.
         -2   -1    0    0    0  501 -0.00000000000E+00 -0.00000000000E+00 -0.16268326301E+02  0.16268326301E+02  0.00000000000E+00 0.  1.
         23    2    1    2    0    0  0.00000000000E+00  0.00000000000E+00  0.11134736897E+03  0.14388402157E+03  0.91128344037E+02 0.  0.
        -11    1    3    3    0    0 -0.34515659772E+01  0.40541211301E+02  0.23292785898E+02  0.46883440534E+02  0.00000000000E+00 0.  1.
         11    1    3    3    0    0  0.34515659772E+01 -0.40541211301E+02  0.88054583073E+02  0.97000581037E+02  0.00000000000E+00 0. -1.
<mgrwt>
<rscale>  0 0.91128344E+02</rscale>
<asrwt>0</asrwt>
<pdfrwt beam="1">  1        2 0.19633183E-01 0.91128344E+02</pdfrwt>
<pdfrwt beam="2">  1       -2 0.25028195E-02 0.91128344E+02</pdfrwt>
<totfact> 0.13266816E+05</totfact>
</mgrwt>
</event>
<event>
 5    1  0.1247456E+001  0.9251984E+02  0.7546771E-02  0.1296862E+00
         -3   -1    0    0    0  501 -0.00000000000E+00  0.00000000000E+00  0.14590838126E+03  0.14590838126E+03  0.00000000000E+00 0.  1.
          3   -1    0    0  501    0  0.00000000000E+00 -0.00000000000E+00 -0.14666602844E+02  0.14666602844E+02  0.00000000000E+00 0. -1.
         23    2    1    2    0    0  0.00000000000E+00  0.00000000000E+00  0.13124177841E+03  0.16057498410E+03  0.92519841754E+02 0.  0.
        -11    1    3    3    0    0  0.76576354837E+01 -0.30209000511E+02  0.62866806847E+01  0.31792223060E+02  0.00000000000E+00 0. -1.
         11    1    3    3    0    0 -0.76576354837E+01  0.30209000511E+02  0.12495509773E+03  0.12878276104E+03  0.00000000000E+00 0.  1.
<mgrwt>
<rscale>  0 0.92519842E+02</rscale>
<asrwt>0</asrwt>
<pdfrwt beam="2">  1        3 0.22564005E-02 0.92519842E+02</pdfrwt>
<pdfrwt beam="1">  1       -3 0.22447442E-01 0.92519842E+02</pdfrwt>
<totfact> 0.29480367E+04</totfact>
</mgrwt>
</event>
<event>
 5    1  0.1247456E+001  0.9080857E+02  0.7546771E-02  0.1300905E+00
          2   -1    0    0  501    0  0.00000000000E+00  0.00000000000E+00  0.54865305194E+02  0.54865305194E+02  0.00000000000E+00 0. -1.
         -2   -1    0    0    0  501 -0.00000000000E+00 -0.00000000000E+00 -0.37574731449E+02  0.37574731449E+02  0.00000000000E+00 0.  1.
         23    2    1    2    0    0  0.00000000000E+00  0.00000000000E+00  0.17290573746E+02  0.92440036643E+02  0.90808570268E+02 0.  0.
        -11    1    3    3    0    0 -0.18750323362E+02 -0.20387601636E+02  0.45268305045E+02  0.53070221107E+02  0.00000000000E+00 0. -1.
         11    1    3    3    0    0  0.18750323362E+02  0.20387601636E+02 -0.27977731300E+02  0.39369815536E+02  0.00000000000E+00 0.  1.
<mgrwt>
<rscale>  0 0.90808570E+02</rscale>
<asrwt>0</asrwt>
<pdfrwt beam="1">  1        2 0.84408161E-02 0.90808570E+02</pdfrwt>
<pdfrwt beam="2">  1       -2 0.57807280E-02 0.90808570E+02</pdfrwt>
<totfact> 0.10476811E+05</totfact>
</mgrwt>
</event>
<event>
 5    1  0.1247456E+001  0.9052545E+02  0.7546771E-02  0.1301584E+00
          1   -1    0    0  501    0  0.00000000000E+00  0.00000000000E+00  0.27980757431E+02  0.27980757431E+02  0.00000000000E+00 0. -1.
         -1   -1    0    0    0  501 -0.00000000000E+00 -0.00000000000E+00 -0.73218686922E+02  0.73218686922E+02  0.00000000000E+00 0.  1.
         23    2    1    2    0    0  0.00000000000E+00  0.00000000000E+00 -0.45237929491E+02  0.10119944435E+03  0.90525450966E+02 0.  0.
        -13    1    3    3    0    0 -0.36726643506E+02 -0.20896755118E+02 -0.40755114517E+02  0.58706899739E+02  0.00000000000E+00 0.  1.
         13    1    3    3    0    0  0.36726643506E+02  0.20896755118E+02 -0.44828149742E+01  0.42492544614E+02  0.00000000000E+00 0. -1.
<mgrwt>
<rscale>  0 0.90525451E+02</rscale>
<asrwt>0</asrwt>
<pdfrwt beam="1">  1        1 0.43047320E-02 0.90525451E+02</pdfrwt>
<pdfrwt beam="2">  1       -1 0.11264413E-01 0.90525451E+02</pdfrwt>
<totfact> 0.87494035E+04</totfact>
</mgrwt>
</event>
<event>
 5    1  0.1247456E+001  0.9528564E+02  0.7546771E-02  0.1290534E+00
          4   -1    0    0  501    0  0.00000000000E+00  0.00000000000E+00  0.12225878058E+03  0.12225878058E+03  0.00000000000E+00 0.  1.
         -4   -1    0    0    0  501 -0.00000000000E+00 -0.00000000000E+00 -0.18565850388E+02  0.18565850388E+02  0.00000000000E+00 0. -1.
         23    2    1    2    0    0  0.00000000000E+00  0.00000000000E+00  0.10369293019E+03  0.14082463097E+03  0.95285638557E+02 0.  0.
        -11    1    3    3    0    0  0.14575477678E+02 -0.36246415935E+02  0.11545240886E+02  0.40737449660E+02  0.00000000000E+00 0. -1.
         11    1    3    3    0    0 -0.14575477678E+02  0.36246415935E+02  0.92147689306E+02  0.10008718131E+03  0.00000000000E+00 0.  1.
<mgrwt>
<rscale>  0 0.95285639E+02</rscale>
<asrwt>0</asrwt>
<pdfrwt beam="1">  1        4 0.18809043E-01 0.95285639E+02</pdfrwt>
<pdfrwt beam="2">  1       -4 0.28562847E-02 0.95285639E+02</pdfrwt>
<totfact> 0.21427531E+04</totfact>
</mgrwt>
</event>
<event>
 5    1  0.1247456E+001  0.9203186E+02  0.7546771E-02  0.1298005E+00
         -2   -1    0    0    0  501 -0.00000000000E+00  0.00000000000E+00  0.21065167453E+03  0.21065167453E+03  0.00000000000E+00 0.  1.
          2   -1    0    0  501    0  0.00000000000E+00 -0.00000000000E+00 -0.10051976590E+02  0.10051976590E+02  0.00000000000E+00 0. -1.
         23    2    1    2    0    0  0.00000000000E+00  0.00000000000E+00  0.20059969794E+03  0.22070365112E+03  0.92031857550E+02 0.  0.
        -13    1    3    3    0    0  0.41742881295E+02 -0.17947352946E+01  0.54060438339E+02  0.68324374911E+02  0.00000000000E+00 0. -1.
         13    1    3    3    0    0 -0.41742881295E+02  0.17947352946E+01  0.14653925960E+03  0.15237927621E+03  0.00000000000E+00 0.  1.
<mgrwt>
<rscale>  0 0.92031858E+02</rscale>
<asrwt>0</asrwt>
<pdfrwt beam="2">  1        2 0.15464581E-02 0.92031858E+02</pdfrwt>
<pdfrwt beam="1">  1       -2 0.32407947E-01 0.92031858E+02</pdfrwt>
<totfact> 0.59474318E+04</totfact>
</mgrwt>
</event>
<event>
 5    1  0.1247456E+001  0.6618435E+02  0.7546771E-02  0.1373571E+00
          1   -1    0    0  501    0  0.00000000000E+00  0.00000000000E+00  0.91171831645E+02  0.91171831645E+02  0.00000000000E+00 0. -1.
         -1   -1    0    0    0  501 -0.00000000000E+00 -0.00000000000E+00 -0.12011297383E+02  0.12011297383E+02  0.00000000000E+00 0.  1.
         23    2    1    2    0    0  0.00000000000E+00  0.00000000000E+00  0.79160534262E+02  0.10318312903E+03  0.66184348084E+02 0.  0.
        -11    1    3    3    0    0 -0.21061878690E+02  0.12334678606E+02  0.74418308494E+02  0.78318782354E+02  0.00000000000E+00 0. -1.
         11    1    3    3    0    0  0.21061878690E+02 -0.12334678606E+02  0.47422257678E+01  0.24864346674E+02  0.00000000000E+00 0.  1.
<mgrwt>
<rscale>  0 0.66184348E+02</rscale>
<asrwt>0</asrwt>
<pdfrwt beam="1">  1        1 0.14026435E-01 0.66184348E+02</pdfrwt>
<pdfrwt beam="2">  1       -1 0.18478920E-02 0.66184348E+02</pdfrwt>
<totfact> 0.24239852E+05</totfact>
</mgrwt>
</event>
<event>
 5    1  0.1247456E+001  0.9170348E+02  0.7546771E-02  0.1298778E+00
          4   -1    0    0  501    0  0.00000000000E+00  0.00000000000E+00  0.13326102296E+03  0.13326102296E+03  0.00000000000E+00 0. -1.
         -4   -1    0    0    0  501 -0.00000000000E+00 -0.00000000000E+00 -0.15776422121E+02  0.15776422121E+02  0.00000000000E+00 0.  1.
         23    2    1    2    0    0  0.00000000000E+00  0.00000000000E+00  0.11748460084E+03  0.14903744508E+03  0.91703481951E+02 0.  0.
        -13    1    3    3    0    0  0.26208609406E+01 -0.37959266699E+02  0.10032378553E+03  0.10729695607E+03  0.00000000000E+00 0. -1.
         13    1    3    3    0    0 -0.26208609406E+01  0.37959266699E+02  0.17160815315E+02  0.41740489009E+02  0.00000000000E+00 0.  1.
<mgrwt>
<rscale>  0 0.91703482E+02</rscale>
<asrwt>0</asrwt>
<pdfrwt beam="1">  1        4 0.20501695E-01 0.91703482E+02</pdfrwt>
<pdfrwt beam="2">  1       -4 0.24271420E-02 0.91703482E+02</pdfrwt>
<totfact> 0.23355859E+04</totfact>
</mgrwt>
</event>
<event>
 5    1  0.1247456E+001  0.9015782E+02  0.7546771E-02  0.1302470E+00
          1   -1    0    0  501    0  0.00000000000E+00  0.00000000000E+00  0.95493806017E+02  0.95493806017E+02  0.00000000000E+00 0. -1.
         -1   -1    0    0    0  501 -0.00000000000E+00 -0.00000000000E+00 -0.21279997493E+02  0.21279997493E+02  0.00000000000E+00 0.  1.
         23    2    1    2    0    0  0.00000000000E+00  0.00000000000E+00  0.74213808524E+02  0.11677380351E+03  0.90157816136E+02 0.  0.
        -11    1    3    3    0    0 -0.24654574546E+02  0.21062470111E+01 -0.11697525484E+02  0.27369991322E+02  0.00000000000E+00 0.  1.
         11    1    3    3    0    0  0.24654574546E+02 -0.21062470111E+01  0.85911334008E+02  0.89403812187E+02  0.00000000000E+00 0. -1.
<mgrwt>
<rscale>  0 0.90157816E+02</rscale>
<asrwt>0</asrwt>
<pdfrwt beam="1">  1        1 0.14691355E-01 0.90157816E+02</pdfrwt>
<pdfrwt beam="2">  1       -1 0.32738458E-02 0.90157816E+02</pdfrwt>
<totfact> 0.10688331E+05</totfact>
</mgrwt>
</event>
<event>
 5    1  0.1247456E+001  0.9592969E+02  0.7546771E-02  0.1289096E+00
          1   -1    0    0  501    0  0.00000000000E+00  0.00000000000E+00  0.79150892664E+01  0.79150892664E+01  0.00000000000E+00 0. -1.
         -1   -1    0    0    0  501 -0.00000000000E+00 -0.00000000000E+00 -0.29066335894E+03  0.29066335894E+03  0.00000000000E+00 0.  1.
         23    2    1    2    0    0  0.00000000000E+00  0.00000000000E+00 -0.28274826967E+03  0.29857844821E+03  0.95929691597E+02 0.  0.
        -11    1    3    3    0    0  0.41588782507E+02 -0.21409401245E+02 -0.10834127182E+03  0.11800771361E+03  0.00000000000E+00 0.  1.
         11    1    3    3    0    0 -0.41588782507E+02  0.21409401245E+02 -0.17440699785E+03  0.18057073459E+03  0.00000000000E+00 0. -1.
<mgrwt>
<rscale>  0 0.95929692E+02</rscale>
<asrwt>0</asrwt>
<pdfrwt beam="1">  1        1 0.12177059E-02 0.95929692E+02</pdfrwt>
<pdfrwt beam="2">  1       -1 0.44717444E-01 0.95929692E+02</pdfrwt>
<totfact> 0.53688421E+04</totfact>
</mgrwt>
</event>
<event>
 5    1  0.1247456E+001  0.8995597E+02  0.7546771E-02  0.1302958E+00
         -1   -1    0    0    0  501 -0.00000000000E+00  0.00000000000E+00  0.15956254810E+02  0.15956254810E+02  0.00000000000E+00 0.  1.
          1   -1    0    0  501    0  0.00000000000E+00 -0.00000000000E+00 -0.12678532570E+03  0.12678532570E+03  0.00000000000E+00 0. -1.
         23    2    1    2    0    0  0.00000000000E+00  0.00000000000E+00 -0.11082907089E+03  0.14274158051E+03  0.89955966182E+02 0.  0.
        -11    1    3    3    0    0  0.27751097920E+02 -0.22898445170E+02 -0.12584126839E+02  0.38115908427E+02  0.00000000000E+00 0. -1.
         11    1    3    3    0    0 -0.27751097920E+02  0.22898445170E+02 -0.98244944047E+02  0.10462567208E+03  0.00000000000E+00 0.  1.
<mgrwt>
<rscale>  0 0.89955966E+02</rscale>
<asrwt>0</asrwt>
<pdfrwt beam="2">  1        1 0.19505434E-01 0.89955966E+02</pdfrwt>
<pdfrwt beam="1">  1       -1 0.24548085E-02 0.89955966E+02</pdfrwt>
<totfact> 0.11282204E+05</totfact>
</mgrwt>
</event>
<event>
 5    1  0.1247456E+001  0.9042663E+02  0.7546771E-02  0.1301822E+00
          2   -1    0    0  501    0  0.00000000000E+00  0.00000000000E+00  0.11973184984E+02  0.11973184984E+02  0.00000000000E+00 0.  1.
         -2   -1    0    0    0  501 -0.00000000000E+00 -0.00000000000E+00 -0.17073516585E+03  0.17073516585E+03  0.00000000000E+00 0. -1.
         23    2    1    2    0    0  0.00000000000E+00  0.00000000000E+00 -0.15876198087E+03  0.18270835084E+03  0.90426627141E+02 0.  0.
        -13    1    3    3    0    0  0.71425803099E+01 -0.44487829950E+02 -0.71804663757E+02  0.84770827555E+02  0.00000000000E+00 0.  1.
         13    1    3    3    0    0 -0.71425803099E+01  0.44487829950E+02 -0.86957317111E+02  0.97937523281E+02  0.00000000000E+00 0. -1.
<mgrwt>
<rscale>  0 0.90426627E+02</rscale>
<asrwt>0</asrwt>
<pdfrwt beam="1">  1        2 0.18420286E-02 0.90426627E+02</pdfrwt>
<pdfrwt beam="2">  1       -2 0.26266946E-01 0.90426627E+02</pdfrwt>
<totfact> 0.67932039E+04</totfact>
</mgrwt>
</event>
<event>
 5    1  0.1247456E+001  0.9482334E+02  0.7546771E-02  0.1291574E+00
          2   -1    0    0  501    0  0.00000000000E+00  0.00000000000E+00  0.22817037182E+02  0.22817037182E+02  0.00000000000E+00 0.  1.
         -2   -1    0    0    0  501 -0.00000000000E+00 -0.00000000000E+00 -0.98517022939E+02  0.98517022939E+02  0.00000000000E+00 0. -1.
         23    2    1    2    0    0  0.00000000000E+00  0.00000000000E+00 -0.75699985757E+02  0.12133406012E+03  0.94823342599E+02 0.  0.
        -13    1    3    3    0    0 -0.26777107349E+02  0.35308916852E+02 -0.59418926872E+02  0.74123828543E+02  0.00000000000E+00 0.  1.
         13    1    3    3    0    0  0.26777107349E+02 -0.35308916852E+02 -0.16281058885E+02  0.47210231578E+02  0.00000000000E+00 0. -1.
<mgrwt>
<rscale>  0 0.94823343E+02</rscale>
<asrwt>0</asrwt>
<pdfrwt beam="1">  1        2 0.35103134E-02 0.94823343E+02</pdfrwt>
<pdfrwt beam="2">  1       -2 0.15156465E-01 0.94823343E+02</pdfrwt>
<totfact> 0.72711684E+04</totfact>
</mgrwt>
</event>
<event>
 5    1  0.1247456E+001  0.8944145E+02  0.7546771E-02  0.1304210E+00
         -1   -1    0    0    0  501 -0.00000000000E+00  0.00000000000E+00  0.60213653359E+02  0.60213653359E+02  0.00000000000E+00 0.  1.
          1   -1    0    0  501    0  0.00000000000E+00 -0.00000000000E+00 -0.33214115720E+02  0.33214115720E+02  0.00000000000E+00 0. -1.
         23    2    1    2    0    0  0.00000000000E+00  0.00000000000E+00  0.26999537638E+02  0.93427769079E+02  0.89441450136E+02 0.  0.
        -11    1    3    3    0    0 -0.34091457076E+02 -0.97705061125E+00  0.43715833942E+02  0.55445975604E+02  0.00000000000E+00 0.  1.
         11    1    3    3    0    0  0.34091457076E+02  0.97705061125E+00 -0.16716296304E+02  0.37981793475E+02  0.00000000000E+00 0. -1.
<mgrwt>
<rscale>  0 0.89441450E+02</rscale>
<asrwt>0</asrwt>
<pdfrwt beam="2">  1        1 0.51098640E-02 0.89441450E+02</pdfrwt>
<pdfrwt beam="1">  1       -1 0.92636389E-02 0.89441450E+02</pdfrwt>
<totfact> 0.93052869E+04</totfact>
</mgrwt>
</event>
<event>
 5    1  0.1247456E+001  0.9306128E+02  0.7546771E-02  0.1295603E+00
         -3   -1    0    0    0  501 -0.00000000000E+00  0.00000000000E+00  0.12307609423E+02  0.12307609423E+02  0.00000000000E+00 0.  1.
          3   -1    0    0  501    0  0.00000000000E+00 -0.00000000000E+00 -0.17591558553E+03  0.17591558553E+03  0.00000000000E+00 0. -1.
         23    2    1    2    0    0  0.00000000000E+00  0.00000000000E+00 -0.16360797611E+03  0.18822319495E+03  0.93061276975E+02 0.  0.
        -13    1    3    3    0    0 -0.35119293742E+02  0.30432150653E+02 -0.77009282678E+02  0.89943928116E+02  0.00000000000E+00 0.  1.
         13    1    3    3    0    0  0.35119293742E+02 -0.30432150653E+02 -0.86598693432E+02  0.98279266839E+02  0.00000000000E+00 0. -1.
<mgrwt>
<rscale>  0 0.93061277E+02</rscale>
<asrwt>0</asrwt>
<pdfrwt beam="2">  1        3 0.27063935E-01 0.93061277E+02</pdfrwt>
<pdfrwt beam="1">  1       -3 0.18934784E-02 0.93061277E+02</pdfrwt>
<totfact> 0.27550352E+04</totfact>
</mgrwt>
</event>
<event>
 5    1  0.1247456E+001  0.9134487E+02  0.7546771E-02  0.1299627E+00
          1   -1    0    0  501    0  0.00000000000E+00  0.00000000000E+00  0.12071970003E+03  0.12071970003E+03  0.00000000000E+00 0. -1.
         -1   -1    0    0    0  501 -0.00000000000E+00 -0.00000000000E+00 -0.17279459080E+02  0.17279459080E+02  0.00000000000E+00 0.  1.
         23    2    1    2    0    0  0.00000000000E+00  0.00000000000E+00  0.10344024095E+03  0.13799915911E+03  0.91344865577E+02 0.  0.
        -13    1    3    3    0    0 -0.11761826090E+01  0.43619540749E+02  0.31343293742E+02  0.53725690347E+02  0.00000000000E+00 0.  1.
         13    1    3    3    0    0  0.11761826090E+01 -0.43619540749E+02  0.72096947207E+02  0.84273468762E+02  0.00000000000E+00 0. -1.
<mgrwt>
<rscale>  0 0.91344866E+02</rscale>
<asrwt>0</asrwt>
<pdfrwt beam="1">  1        1 0.18572261E-01 0.91344866E+02</pdfrwt>
<pdfrwt beam="2">  1       -1 0.26583784E-02 0.91344866E+02</pdfrwt>
<totfact> 0.10731315E+05</totfact>
</mgrwt>
</event>
<event>
 5    1  0.1247456E+001  0.9120274E+02  0.7546771E-02  0.1299965E+00
         -2   -1    0    0    0  501 -0.00000000000E+00  0.00000000000E+00  0.21370153067E+02  0.21370153067E+02  0.00000000000E+00 0.  1.
          2   -1    0    0  501    0  0.00000000000E+00 -0.00000000000E+00 -0.97307909231E+02  0.97307909231E+02  0.00000000000E+00 0. -1.
         23    2    1    2    0    0  0.00000000000E+00  0.00000000000E+00 -0.75937756164E+02  0.11867806230E+03  0.91202739320E+02 0.  0.
        -13    1    3    3    0    0 -0.11862209537E+02 -0.28397164844E+02  0.58193624381E+01  0.31320535842E+02  0.00000000000E+00 0.  1.
         13    1    3    3    0    0  0.11862209537E+02  0.28397164844E+02 -0.81757118602E+02  0.87357526455E+02  0.00000000000E+00 0. -1.
<mgrwt>
<rscale>  0 0.91202739E+02</rscale>
<asrwt>0</asrwt>
<pdfrwt beam="2">  1        2 0.14970447E-01 0.91202739E+02</pdfrwt>
<pdfrwt beam="1">  1       -2 0.32877159E-02 0.91202739E+02</pdfrwt>
<totfact> 0.12156953E+05</totfact>
</mgrwt>
</event>
<event>
 5    1  0.1247456E+001  0.8755493E+02  0.7546771E-02  0.1308883E+00
          4   -1    0    0  501    0  0.00000000000E+00  0.00000000000E+00  0.75268773735E+01  0.75268773735E+01  0.00000000000E+00 0. -1.
         -4   -1    0    0    0  501 -0.00000000000E+00 -0.00000000000E+00 -0.25461641321E+03  0.25461641321E+03  0.00000000000E+00 0.  1.
         23    2    1    2    0    0  0.00000000000E+00  0.00000000000E+00 -0.24708953583E+03  0.26214329058E+03  0.87554931774E+02 0.  0.
        -11    1    3    3    0    0 -0.34596268824E+02 -0.18068939704E+02 -0.64184265466E+02  0.75119959611E+02  0.00000000000E+00 0.  1.
         11    1    3    3    0    0  0.34596268824E+02  0.18068939704E+02 -0.18290527037E+03  0.18702333097E+03  0.00000000000E+00 0. -1.
<mgrwt>
<rscale>  0 0.87554932E+02</rscale>
<asrwt>0</asrwt>
<pdfrwt beam="1">  1        4 0.11579811E-02 0.87554932E+02</pdfrwt>
<pdfrwt beam="2">  1       -4 0.39171758E-01 0.87554932E+02</pdfrwt>
<totfact> 0.21203033E+04</totfact>
</mgrwt>
</event>
<event>
 5    1  0.1247456E+001  0.9181704E+02  0.7546771E-02  0.1298510E+00
         -2   -1    0    0    0  501 -0.00000000000E+00  0.00000000000E+00  0.24570678854E+02  0.24570678854E+02  0.00000000000E+00 0.  1.
          2   -1    0    0  501    0  0.00000000000E+00 -0.00000000000E+00 -0.85776721651E+02  0.85776721651E+02  0.00000000000E+00 0. -1.
         23    2    1    2    0    0  0.00000000000E+00  0.00000000000E+00 -0.61206042798E+02  0.11034740050E+03  0.91817041573E+02 0.  0.
        -11    1    3    3    0    0 -0.40602369949E+02 -0.12843080502E+02 -0.51213245762E+02  0.66605508058E+02  0.00000000000E+00 0.  1.
         11    1    3    3    0    0  0.40602369949E+02  0.12843080502E+02 -0.99927970354E+01  0.43741892446E+02  0.00000000000E+00 0. -1.
<mgrwt>
<rscale>  0 0.91817042E+02</rscale>
<asrwt>0</asrwt>
<pdfrwt beam="2">  1        2 0.13196419E-01 0.91817042E+02</pdfrwt>
<pdfrwt beam="1">  1       -2 0.37801044E-02 0.91817042E+02</pdfrwt>
<totfact> 0.11493874E+05</totfact>
</mgrwt>
</event>
<event>
 5    1  0.1247456E+001  0.7412124E+02  0.7546771E-02  0.1346614E+00
          4   -1    0    0  501    0  0.00000000000E+00  0.00000000000E+00  0.11430018320E+02  0.11430018320E+02  0.00000000000E+00 0. -1.
         -4   -1    0    0    0  501 -0.00000000000E+00 -0.00000000000E+00 -0.12016513059E+03  0.12016513059E+03  0.00000000000E+00 0.  1.
         23    2    1    2    0    0  0.00000000000E+00  0.00000000000E+00 -0.10873511226E+03  0.13159514891E+03  0.74121242409E+02 0.  0.
        -11    1    3    3    0    0 -0.19758579652E+02 -0.30594434919E+02 -0.42187103917E+02  0.55733048138E+02  0.00000000000E+00 0. -1.
         11    1    3    3    0    0  0.19758579652E+02  0.30594434919E+02 -0.66548008348E+02  0.75862100768E+02  0.00000000000E+00 0.  1.
<mgrwt>
<rscale>  0 0.74121242E+02</rscale>
<asrwt>0</asrwt>
<pdfrwt beam="1">  1        4 0.17584643E-02 0.74121242E+02</pdfrwt>
<pdfrwt beam="2">  1       -4 0.18486944E-01 0.74121242E+02</pdfrwt>
<totfact> 0.42690528E+04</totfact>
</mgrwt>
</event>
<event>
 5    1  0.1247456E+001  0.9145227E+02  0.7546771E-02  0.1299372E+00
          2   -1    0    0  501    0  0.00000000000E+00  0.00000000000E+00  0.13683448393E+02  0.13683448393E+02  0.00000000000E+00 0. -1.
         -2   -1    0    0    0  501 -0.00000000000E+00 -0.00000000000E+00 -0.15280354004E+03  0.15280354004E+03  0.00000000000E+00 0.  1.
         23    2    1    2    0    0  0.00000000000E+00  0.00000000000E+00 -0.13912009165E+03  0.16648698843E+03  0.91452268521E+02 0.  0.
        -13    1    3    3    0    0  0.24608262575E+02 -0.15587672429E+02 -0.53939573548E+01  0.29624937040E+02  0.00000000000E+00 0. -1.
         13    1    3    3    0    0 -0.24608262575E+02  0.15587672429E+02 -0.13372613429E+03  0.13686205139E+03  0.00000000000E+00 0.  1.
<mgrwt>
<rscale>  0 0.91452269E+02</rscale>
<asrwt>0</asrwt>
<pdfrwt beam="1">  1        2 0.21051459E-02 0.91452269E+02</pdfrwt>
<pdfrwt beam="2">  1       -2 0.23508237E-01 0.91452269E+02</pdfrwt>
<totfact> 0.68856128E+04</totfact>
</mgrwt>
</event>
<event>
 5    1  0.1247456E+001  0.9955828E+02  0.7546771E-02  0.1281228E+00
          4   -1    0    0  501    0  0.00000000000E+00  0.00000000000E+00  0.29383858192E+02  0.29383858192E+02  0.00000000000E+00 0. -1.
         -4   -1    0    0    0  501 -0.00000000000E+00 -0.00000000000E+00 -0.84330744997E+02  0.84330744997E+02  0.00000000000E+00 0.  1.
         23    2    1    2    0    0  0.00000000000E+00  0.00000000000E+00 -0.54946886805E+02  0.11371460319E+03  0.99558277451E+02 0.  0.
        -11    1    3    3    0    0  0.82805248017E+00 -0.37656430393E+02  0.97008095771E+01  0.38894705646E+02  0.00000000000E+00 0. -1.
         11    1    3    3    0    0 -0.82805248017E+00  0.37656430393E+02 -0.64647696382E+02  0.74819897543E+02  0.00000000000E+00 0.  1.
<mgrwt>
<rscale>  0 0.99558277E+02</rscale>
<asrwt>0</asrwt>
<pdfrwt beam="1">  1        4 0.45205937E-02 0.99558277E+02</pdfrwt>
<pdfrwt beam="2">  1       -4 0.12973960E-01 0.99558277E+02</pdfrwt>
<totfact> 0.20173211E+04</totfact>
</mgrwt>
</event>
<event>
 5    1  0.1247456E+001  0.9202746E+02  0.7546771E-02  0.1298015E+00
         -2   -1    0    0    0  501 -0.00000000000E+00  0.00000000000E+00  0.45084911882E+02  0.45084911882E+02  0.00000000000E+00 0.  1.
          2   -1    0    0  501    0  0.00000000000E+00 -0.00000000000E+00 -0.46961682485E+02  0.46961682485E+02  0.00000000000E+00 0. -1.
         23    2    1    2    0    0  0.00000000000E+00  0.00000000000E+00 -0.18767706028E+01  0.92046594366E+02  0.92027459307E+02 0.  0.
        -11    1    3    3    0    0 -0.20130113537E+02  0.41354868272E+02 -0.22865215526E+01  0.46050784810E+02  0.00000000000E+00 0. -1.
         11    1    3    3    0    0  0.20130113537E+02 -0.41354868272E+02  0.40975094981E+00  0.45995809556E+02  0.00000000000E+00 0.  1.
<mgrwt>
<rscale>  0 0.92027459E+02</rscale>
<asrwt>0</asrwt>
<pdfrwt beam="2">  1        2 0.72248742E-02 0.92027459E+02</pdfrwt>
<pdfrwt beam="1">  1       -2 0.69361403E-02 0.92027459E+02</pdfrwt>
<totfact> 0.96823741E+04</totfact>
</mgrwt>
</event>
<event>
 5    1  0.1247456E+001  0.9250425E+02  0.7546771E-02  0.1296898E+00
          2   -1    0    0  501    0  0.00000000000E+00  0.00000000000E+00  0.12543603753E+03  0.12543603753E+03  0.00000000000E+00 0. -1.
         -2   -1    0    0    0  501 -0.00000000000E+00 -0.00000000000E+00 -0.17054580981E+02  0.17054580981E+02  0.00000000000E+00 0.  1.
         23    2    1    2    0    0  0.00000000000E+00  0.00000000000E+00  0.10838145655E+03  0.14249061851E+03  0.92504249849E+02 0.  0.
        -13    1    3    3    0    0 -0.26782464850E+02 -0.36961492117E+02  0.65697881647E+02  0.79997899821E+02  0.00000000000E+00 0.  1.
         13    1    3    3    0    0  0.26782464850E+02  0.36961492117E+02  0.42683574905E+02  0.62492718692E+02  0.00000000000E+00 0. -1.
<mgrwt>
<rscale>  0 0.92504250E+02</rscale>
<asrwt>0</asrwt>
<pdfrwt beam="1">  1        2 0.19297851E-01 0.92504250E+02</pdfrwt>
<pdfrwt beam="2">  1       -2 0.26237818E-02 0.92504250E+02</pdfrwt>
<totfact> 0.12662858E+05</totfact>
</mgrwt>
</event>
<event>
 5    1  0.1247456E+001  0.9237217E+02  0.7546771E-02  0.1297207E+00
          2   -1    0    0  501    0  0.00000000000E+00  0.00000000000E+00  0.80141355310E+02  0.80141355310E+02  0.00000000000E+00 0. -1.
         -2   -1    0    0    0  501 -0.00000000000E+00 -0.00000000000E+00 -0.26617396397E+02  0.26617396397E+02  0.00000000000E+00 0.  1.
         23    2    1    2    0    0  0.00000000000E+00  0.00000000000E+00  0.53523958913E+02  0.10675875171E+03  0.92372165117E+02 0.  0.
        -13    1    3    3    0    0 -0.38017986464E+02 -0.91481374132E+01  0.55168382574E+02  0.67621048120E+02  0.00000000000E+00 0.  1.
         13    1    3    3    0    0  0.38017986464E+02  0.91481374132E+01 -0.16444236612E+01  0.39137703588E+02  0.00000000000E+00 0. -1.
<mgrwt>
<rscale>  0 0.92372165E+02</rscale>
<asrwt>0</asrwt>
<pdfrwt beam="1">  1        2 0.12329439E-01 0.92372165E+02</pdfrwt>
<pdfrwt beam="2">  1       -2 0.40949841E-02 0.92372165E+02</pdfrwt>
<totfact> 0.11082075E+05</totfact>
</mgrwt>
</event>
<event>
 5    1  0.1247456E+001  0.9022001E+02  0.7546771E-02  0.1302320E+00
         -2   -1    0    0    0  501 -0.00000000000E+00  0.00000000000E+00  0.10636798409E+02  0.10636798409E+02  0.00000000000E+00 0.  1.
          2   -1    0    0  501    0  0.00000000000E+00 -0.00000000000E+00 -0.19130874227E+03  0.19130874227E+03  0.00000000000E+00 0. -1.
         23    2    1    2    0    0  0.00000000000E+00  0.00000000000E+00 -0.18067194386E+03  0.20194554067E+03  0.90220009431E+02 0.  0.
        -13    1    3    3    0    0  0.20436076780E+02 -0.26923852729E+02 -0.23469618627E+02  0.41150335095E+02  0.00000000000E+00 0.  1.
         13    1    3    3    0    0 -0.20436076780E+02  0.26923852729E+02 -0.15720232523E+03  0.16079520558E+03  0.00000000000E+00 0. -1.
<mgrwt>
<rscale>  0 0.90220009E+02</rscale>
<asrwt>0</asrwt>
<pdfrwt beam="2">  1        2 0.29432112E-01 0.90220009E+02</pdfrwt>
<pdfrwt beam="1">  1       -2 0.16364307E-02 0.90220009E+02</pdfrwt>
<totfact> 0.15660827E+05</totfact>
</mgrwt>
</event>
<event>
 5    1  0.1247456E+001  0.8952315E+02  0.7546771E-02  0.1304011E+00
          1   -1    0    0  501    0  0.00000000000E+00  0.00000000000E+00  0.14117483427E+03  0.14117483427E+03  0.00000000000E+00 0. -1.
         -1   -1    0    0    0  501 -0.00000000000E+00 -0.00000000000E+00 -0.14192322010E+02  0.14192322010E+02  0.00000000000E+00 0.  1.
         23    2    1    2    0    0  0.00000000000E+00  0.00000000000E+00  0.12698251226E+03  0.15536715628E+03  0.89523152482E+02 0.  0.
        -11    1    3    3    0    0 -0.19102994770E+02  0.37873767778E+02  0.88294416543E+02  0.97955350479E+02  0.00000000000E+00 0. -1.
         11    1    3    3    0    0  0.19102994770E+02 -0.37873767778E+02  0.38688095714E+02  0.57411805797E+02  0.00000000000E+00 0.  1.
<mgrwt>
<rscale>  0 0.89523152E+02</rscale>
<asrwt>0</asrwt>
<pdfrwt beam="1">  1        1 0.21719204E-01 0.89523152E+02</pdfrwt>
<pdfrwt beam="2">  1       -1 0.21834342E-02 0.89523152E+02</pdfrwt>
<totfact> 0.11650885E+05</totfact>
</mgrwt>
</event>
<event>
 5    1  0.1247456E+001  0.8966599E+02  0.7546771E-02  0.1303663E+00
          1   -1    0    0  501    0  0.00000000000E+00  0.00000000000E+00  0.25851263260E+02  0.25851263260E+02  0.00000000000E+00 0. -1.
         -1   -1    0    0    0  501 -0.00000000000E+00 -0.00000000000E+00 -0.77752382618E+02  0.77752382618E+02  0.00000000000E+00 0.  1.
         23    2    1    2    0    0  0.00000000000E+00  0.00000000000E+00 -0.51901119358E+02  0.10360364588E+03  0.89665987133E+02 0.  0.
        -13    1    3    3    0    0  0.28114734831E+02  0.10322563583E+02 -0.64498005317E+02  0.71112490629E+02  0.00000000000E+00 0.  1.
         13    1    3    3    0    0 -0.28114734831E+02 -0.10322563583E+02  0.12596885959E+02  0.32491155249E+02  0.00000000000E+00 0. -1.
<mgrwt>
<rscale>  0 0.89665987E+02</rscale>
<asrwt>0</asrwt>
<pdfrwt beam="1">  1        1 0.39771175E-02 0.89665987E+02</pdfrwt>
<pdfrwt beam="2">  1       -1 0.11961905E-01 0.89665987E+02</pdfrwt>
<totfact> 0.88767332E+04</totfact>
</mgrwt>
</event>
<event>
 5    1  0.1247456E+001  0.9055420E+02  0.7546771E-02  0.1301515E+00
          2   -1    0    0  501    0  0.00000000000E+00  0.00000000000E+00  0.44672899171E+03  0.44672899171E+03  0.00000000000E+00 0. -1.
         -2   -1    0    0    0  501 -0.00000000000E+00 -0.00000000000E+00 -0.45889471306E+01  0.45889471306E+01  0.00000000000E+00 0.  1.
         23    2    1    2    0    0  0.00000000000E+00  0.00000000000E+00  0.44214004458E+03  0.45131793884E+03  0.90554198680E+02 0.  0.
        -11    1    3    3    0    0 -0.52637168359E+01 -0.44818207726E+02  0.20266494442E+03  0.20762817284E+03  0.00000000000E+00 0. -1.
         11    1    3    3    0    0  0.52637168359E+01  0.44818207726E+02  0.23947510015E+03  0.24368976600E+03  0.00000000000E+00 0.  1.
<mgrwt>
<rscale>  0 0.90554199E+02</rscale>
<asrwt>0</asrwt>
<pdfrwt beam="1">  1        2 0.68727502E-01 0.90554199E+02</pdfrwt>
<pdfrwt beam="2">  1       -2 0.70599222E-03 0.90554199E+02</pdfrwt>
<totfact> 0.21132089E+05</totfact>
</mgrwt>
</event>
<event>
 5    1  0.1247456E+001  0.9074880E+02  0.7546771E-02  0.1301048E+00
         -2   -1    0    0    0  501 -0.00000000000E+00  0.00000000000E+00  0.61741922932E+01  0.61741922932E+01  0.00000000000E+00 0.  1.
          2   -1    0    0  501    0  0.00000000000E+00 -0.00000000000E+00 -0.33345840289E+03  0.33345840289E+03  0.00000000000E+00 0. -1.
         23    2    1    2    0    0  0.00000000000E+00  0.00000000000E+00 -0.32728421060E+03  0.33963259519E+03  0.90748802774E+02 0.  0.
        -11    1    3    3    0    0 -0.44119006823E+02  0.66658010186E+01 -0.19448510002E+03  0.19953790065E+03  0.00000000000E+00 0. -1.
         11    1    3    3    0    0  0.44119006823E+02 -0.66658010186E+01 -0.13279911058E+03  0.14009469454E+03  0.00000000000E+00 0.  1.
<mgrwt>
<rscale>  0 0.90748803E+02</rscale>
<asrwt>0</asrwt>
<pdfrwt beam="2">  1        2 0.51301311E-01 0.90748803E+02</pdfrwt>
<pdfrwt beam="1">  1       -2 0.94987540E-03 0.90748803E+02</pdfrwt>
<totfact> 0.18919880E+05</totfact>
</mgrwt>
</event>
<event>
 5    1  0.1247456E+001  0.8999886E+02  0.7546771E-02  0.1302854E+00
          2   -1    0    0  501    0  0.00000000000E+00  0.00000000000E+00  0.18490841875E+03  0.18490841875E+03  0.00000000000E+00 0. -1.
         -2   -1    0    0    0  501 -0.00000000000E+00 -0.00000000000E+00 -0.10951088979E+02  0.10951088979E+02  0.00000000000E+00 0.  1.
         23    2    1    2    0    0  0.00000000000E+00  0.00000000000E+00  0.17395732977E+03  0.19585950772E+03  0.89998856586E+02 0.  0.
        -13    1    3    3    0    0 -0.30400679350E+02 -0.65697589369E+00  0.15916688048E+03  0.16204545277E+03  0.00000000000E+00 0. -1.
         13    1    3    3    0    0  0.30400679350E+02  0.65697589369E+00  0.14790449286E+02  0.33814054953E+02  0.00000000000E+00 0.  1.
<mgrwt>
<rscale>  0 0.89998857E+02</rscale>
<asrwt>0</asrwt>
<pdfrwt beam="1">  1        2 0.28447447E-01 0.89998857E+02</pdfrwt>
<pdfrwt beam="2">  1       -2 0.16847831E-02 0.89998857E+02</pdfrwt>
<totfact> 0.15574150E+05</totfact>
</mgrwt>
</event>
<event>
 5    1  0.1247456E+001  0.8460776E+02  0.7546771E-02  0.1316461E+00
          2   -1    0    0  501    0  0.00000000000E+00  0.00000000000E+00  0.20013247327E+02  0.20013247327E+02  0.00000000000E+00 0. -1.
         -2   -1    0    0    0  501 -0.00000000000E+00 -0.00000000000E+00 -0.89421685561E+02  0.89421685561E+02  0.00000000000E+00 0.  1.
         23    2    1    2    0    0  0.00000000000E+00  0.00000000000E+00 -0.69408438234E+02  0.10943493289E+03  0.84607761099E+02 0.  0.
        -11    1    3    3    0    0  0.38267050777E+02  0.12859909869E+01 -0.57971640708E+02  0.69474686572E+02  0.00000000000E+00 0.  1.
         11    1    3    3    0    0 -0.38267050777E+02 -0.12859909869E+01 -0.11436797526E+02  0.39960246316E+02  0.00000000000E+00 0. -1.
<mgrwt>
<rscale>  0 0.84607761E+02</rscale>
<asrwt>0</asrwt>
<pdfrwt beam="1">  1        2 0.30789612E-02 0.84607761E+02</pdfrwt>
<pdfrwt beam="2">  1       -2 0.13757182E-01 0.84607761E+02</pdfrwt>
<totfact> 0.99211002E+04</totfact>
</mgrwt>
</event>
<event>
 5    1  0.1247456E+001  0.9124557E+02  0.7546771E-02  0.1299863E+00
         -1   -1    0    0    0  501 -0.00000000000E+00  0.00000000000E+00  0.27119631899E+02  0.27119631899E+02  0.00000000000E+00 0.  1.
          1   -1    0    0  501    0  0.00000000000E+00 -0.00000000000E+00 -0.76750257432E+02  0.76750257432E+02  0.00000000000E+00 0. -1.
         23    2    1    2    0    0  0.00000000000E+00  0.00000000000E+00 -0.49630625532E+02  0.10386988933E+03  0.91245574791E+02 0.  0.
        -11    1    3    3    0    0 -0.37431324488E+01  0.32789999503E+02  0.11042765891E+02  0.34801404950E+02  0.00000000000E+00 0.  1.
         11    1    3    3    0    0  0.37431324488E+01 -0.32789999503E+02 -0.60673391423E+02  0.69068484381E+02  0.00000000000E+00 0. -1.
<mgrwt>
<rscale>  0 0.91245575E+02</rscale>
<asrwt>0</asrwt>
<pdfrwt beam="2">  1        1 0.11807732E-01 0.91245575E+02</pdfrwt>
<pdfrwt beam="1">  1       -1 0.41722511E-02 0.91245575E+02</pdfrwt>
<totfact> 0.99882244E+04</totfact>
</mgrwt>
</event>
<event>
 5    1  0.1247456E+001  0.8724421E+02  0.7546771E-02  0.1309666E+00
         -2   -1    0    0    0  501 -0.00000000000E+00  0.00000000000E+00  0.26676656937E+03  0.26676656937E+03  0.00000000000E+00 0.  1.
          2   -1    0    0  501    0  0.00000000000E+00 -0.00000000000E+00 -0.71331581588E+01  0.71331581588E+01  0.00000000000E+00 0. -1.
         23    2    1    2    0    0  0.00000000000E+00  0.00000000000E+00  0.25963341121E+03  0.27389972753E+03  0.87244211975E+02 0.  0.
        -13    1    3    3    0    0  0.37439697750E+02  0.22310422747E+02  0.13560745672E+03  0.14243899834E+03  0.00000000000E+00 0. -1.
         13    1    3    3    0    0 -0.37439697750E+02 -0.22310422747E+02  0.12402595449E+03  0.13146072918E+03  0.00000000000E+00 0.  1.
<mgrwt>
<rscale>  0 0.87244212E+02</rscale>
<asrwt>0</asrwt>
<pdfrwt beam="2">  1        2 0.10974092E-02 0.87244212E+02</pdfrwt>
<pdfrwt beam="1">  1       -2 0.41041003E-01 0.87244212E+02</pdfrwt>
<totfact> 0.60857091E+04</totfact>
</mgrwt>
</event>
<event>
 5    1  0.1247456E+001  0.8878586E+02  0.7546771E-02  0.1305819E+00
         -3   -1    0    0    0  501 -0.00000000000E+00  0.00000000000E+00  0.12452083657E+02  0.12452083657E+02  0.00000000000E+00 0.  1.
          3   -1    0    0  501    0  0.00000000000E+00 -0.00000000000E+00 -0.15826524574E+03  0.15826524574E+03  0.00000000000E+00 0. -1.
         23    2    1    2    0    0  0.00000000000E+00  0.00000000000E+00 -0.14581316208E+03  0.17071732940E+03  0.88785856532E+02 0.  0.
        -13    1    3    3    0    0  0.25225734290E+02 -0.14705288664E+01 -0.27249038581E+01  0.25415059053E+02  0.00000000000E+00 0.  1.
         13    1    3    3    0    0 -0.25225734290E+02  0.14705288664E+01 -0.14308825823E+03  0.14530227035E+03  0.00000000000E+00 0. -1.
<mgrwt>
<rscale>  0 0.88785857E+02</rscale>
<asrwt>0</asrwt>
<pdfrwt beam="2">  1        3 0.24348498E-01 0.88785857E+02</pdfrwt>
<pdfrwt beam="1">  1       -3 0.19157053E-02 0.88785857E+02</pdfrwt>
<totfact> 0.32319631E+04</totfact>
</mgrwt>
</event>
<event>
 5    1  0.1247456E+001  0.9873482E+02  0.7546771E-02  0.1282979E+00
         -2   -1    0    0    0  501 -0.00000000000E+00  0.00000000000E+00  0.12431610198E+03  0.12431610198E+03  0.00000000000E+00 0.  1.
          2   -1    0    0  501    0  0.00000000000E+00 -0.00000000000E+00 -0.19604387933E+02  0.19604387933E+02  0.00000000000E+00 0. -1.
         23    2    1    2    0    0  0.00000000000E+00  0.00000000000E+00  0.10471171405E+03  0.14392048991E+03  0.98734818370E+02 0.  0.
        -13    1    3    3    0    0  0.72764080422E+01  0.46268734601E+02  0.29614737163E+02  0.55414570040E+02  0.00000000000E+00 0.  1.
         13    1    3    3    0    0 -0.72764080422E+01 -0.46268734601E+02  0.75096976885E+02  0.88505919875E+02  0.00000000000E+00 0. -1.
<mgrwt>
<rscale>  0 0.98734818E+02</rscale>
<asrwt>0</asrwt>
<pdfrwt beam="2">  1        2 0.30160598E-02 0.98734818E+02</pdfrwt>
<pdfrwt beam="1">  1       -2 0.19125554E-01 0.98734818E+02</pdfrwt>
<totfact> 0.61022725E+04</totfact>
</mgrwt>
</event>
<event>
 5    1  0.1247456E+001  0.9467458E+02  0.7546771E-02  0.1291911E+00
          1   -1    0    0  501    0  0.00000000000E+00  0.00000000000E+00  0.19022703461E+03  0.19022703461E+03  0.00000000000E+00 0. -1.
         -1   -1    0    0    0  501 -0.00000000000E+00 -0.00000000000E+00 -0.11779707398E+02  0.11779707398E+02  0.00000000000E+00 0.  1.
         23    2    1    2    0    0  0.00000000000E+00  0.00000000000E+00  0.17844732721E+03  0.20200674201E+03  0.94674575403E+02 0.  0.
        -13    1    3    3    0    0 -0.41963864904E+01  0.44262161185E+02  0.12389672782E+03  0.13163262414E+03  0.00000000000E+00 0. -1.
         13    1    3    3    0    0  0.41963864904E+01 -0.44262161185E+02  0.54550599391E+02  0.70374117872E+02  0.00000000000E+00 0.  1.
<mgrwt>
<rscale>  0 0.94674575E+02</rscale>
<asrwt>0</asrwt>
<pdfrwt beam="1">  1        1 0.29265695E-01 0.94674575E+02</pdfrwt>
<pdfrwt beam="2">  1       -1 0.18122628E-02 0.94674575E+02</pdfrwt>
<totfact> 0.10596357E+05</totfact>
</mgrwt>
</event>
<event>
 5    1  0.1247456E+001  0.9207604E+02  0.7546771E-02  0.1297901E+00
         -4   -1    0    0    0  501 -0.00000000000E+00  0.00000000000E+00  0.14547627583E+02  0.14547627583E+02  0.00000000000E+00 0.  1.
          4   -1    0    0  501    0  0.00000000000E+00 -0.00000000000E+00 -0.14569382250E+03  0.14569382250E+03  0.00000000000E+00 0. -1.
         23    2    1    2    0    0  0.00000000000E+00  0.00000000000E+00 -0.13114619491E+03  0.16024145008E+03  0.92076044024E+02 0.  0.
        -13    1    3    3    0    0  0.20092106172E+01  0.41709703801E+02 -0.31837740504E+02  0.52510742128E+02  0.00000000000E+00 0.  1.
         13    1    3    3    0    0 -0.20092106172E+01 -0.41709703801E+02 -0.99308454409E+02  0.10773070795E+03  0.00000000000E+00 0. -1.
<mgrwt>
<rscale>  0 0.92076044E+02</rscale>
<asrwt>0</asrwt>
<pdfrwt beam="2">  1        4 0.22414433E-01 0.92076044E+02</pdfrwt>
<pdfrwt beam="1">  1       -4 0.22380967E-02 0.92076044E+02</pdfrwt>
<totfact> 0.22564670E+04</totfact>
</mgrwt>
</event>
<event>
 5    1  0.1247456E+001  0.9110791E+02  0.7546771E-02  0.1300191E+00
         -3   -1    0    0    0  501 -0.00000000000E+00  0.00000000000E+00  0.12169719712E+02  0.12169719712E+02  0.00000000000E+00 0.  1.
          3   -1    0    0  501    0  0.00000000000E+00 -0.00000000000E+00 -0.17051853957E+03  0.17051853957E+03  0.00000000000E+00 0. -1.
         23    2    1    2    0    0  0.00000000000E+00  0.00000000000E+00 -0.15834881986E+03  0.18268825929E+03  0.91107910356E+02 0.  0.
        -13    1    3    3    0    0 -0.43115865282E+02 -0.47147100582E+01 -0.51248539165E+02  0.67138804700E+02  0.00000000000E+00 0.  1.
         13    1    3    3    0    0  0.43115865282E+02  0.47147100582E+01 -0.10710028070E+03  0.11554945459E+03  0.00000000000E+00 0. -1.
<mgrwt>
<rscale>  0 0.91107910E+02</rscale>
<asrwt>0</asrwt>
<pdfrwt beam="2">  1        3 0.26233623E-01 0.91107910E+02</pdfrwt>
<pdfrwt beam="1">  1       -3 0.18722645E-02 0.91107910E+02</pdfrwt>
<totfact> 0.29478874E+04</totfact>
</mgrwt>
</event>
<event>
 5    1  0.1247456E+001  0.9054289E+02  0.7546771E-02  0.1301542E+00
         -1   -1    0    0    0  501 -0.00000000000E+00  0.00000000000E+00  0.59347094250E+02  0.59347094250E+02  0.00000000000E+00 0.  1.
          1   -1    0    0  501    0  0.00000000000E+00 -0.00000000000E+00 -0.34534189577E+02  0.34534189577E+02  0.00000000000E+00 0. -1.
         23    2    1    2    0    0  0.00000000000E+00  0.00000000000E+00  0.24812904673E+02  0.93881283827E+02  0.90542891574E+02 0.  0.
        -11    1    3    3    0    0  0.26913869785E+02 -0.36393121305E+02  0.13266579362E+02  0.47167974232E+02  0.00000000000E+00 0.  1.
         11    1    3    3    0    0 -0.26913869785E+02  0.36393121305E+02  0.11546325311E+02  0.46713309595E+02  0.00000000000E+00 0. -1.
<mgrwt>
<rscale>  0 0.90542892E+02</rscale>
<asrwt>0</asrwt>
<pdfrwt beam="2">  1        1 0.53129522E-02 0.90542892E+02</pdfrwt>
<pdfrwt beam="1">  1       -1 0.91303222E-02 0.90542892E+02</pdfrwt>
<totfact> 0.90415358E+04</totfact>
</mgrwt>
</event>
<event>
 5    1  0.1247456E+001  0.9279597E+02  0.7546771E-02  0.1296219E+00
          1   -1    0    0  501    0  0.00000000000E+00  0.00000000000E+00  0.11389079548E+03  0.11389079548E+03  0.00000000000E+00 0. -1.
         -1   -1    0    0    0  501 -0.00000000000E+00 -0.00000000000E+00 -0.18902080701E+02  0.18902080701E+02  0.00000000000E+00 0.  1.
         23    2    1    2    0    0  0.00000000000E+00  0.00000000000E+00  0.94988714776E+02  0.13279287618E+03  0.92795969897E+02 0.  0.
        -11    1    3    3    0    0 -0.86869901489E+01  0.23497392442E+02 -0.83920848672E+01  0.26420036674E+02  0.00000000000E+00 0.  1.
         11    1    3    3    0    0  0.86869901489E+01 -0.23497392442E+02  0.10338079964E+03  0.10637283950E+03  0.00000000000E+00 0. -1.
<mgrwt>
<rscale>  0 0.92795970E+02</rscale>
<asrwt>0</asrwt>
<pdfrwt beam="1">  1        1 0.17521660E-01 0.92795970E+02</pdfrwt>
<pdfrwt beam="2">  1       -1 0.29080125E-02 0.92795970E+02</pdfrwt>
<totfact> 0.10177771E+05</totfact>
</mgrwt>
</event>
<event>
 5    1  0.1247456E+001  0.9374630E+02  0.7546771E-02  0.1294025E+00
          1   -1    0    0  501    0  0.00000000000E+00  0.00000000000E+00  0.30063318922E+02  0.30063318922E+02  0.00000000000E+00 0. -1.
         -1   -1    0    0    0  501 -0.00000000000E+00 -0.00000000000E+00 -0.73082152738E+02  0.73082152738E+02  0.00000000000E+00 0.  1.
         23    2    1    2    0    0  0.00000000000E+00  0.00000000000E+00 -0.43018833816E+02  0.10314547166E+03  0.93746297319E+02 0.  0.
        -13    1    3    3    0    0  0.16658300517E+02 -0.20576885227E+02 -0.64068148308E+02  0.69322686109E+02  0.00000000000E+00 0.  1.
         13    1    3    3    0    0 -0.16658300517E+02  0.20576885227E+02  0.21049314493E+02  0.33822785550E+02  0.00000000000E+00 0. -1.
<mgrwt>
<rscale>  0 0.93746297E+02</rscale>
<asrwt>0</asrwt>
<pdfrwt beam="1">  1        1 0.46251261E-02 0.93746297E+02</pdfrwt>
<pdfrwt beam="2">  1       -1 0.11243408E-01 0.93746297E+02</pdfrwt>
<totfact> 0.80041872E+04</totfact>
</mgrwt>
</event>
<event>
 5    1  0.1247456E+001  0.8953696E+02  0.7546771E-02  0.1303977E+00
         -2   -1    0    0    0  501 -0.00000000000E+00  0.00000000000E+00  0.48089611581E+02  0.48089611581E+02  0.00000000000E+00 0.  1.
          2   -1    0    0  501    0  0.00000000000E+00 -0.00000000000E+00 -0.41676714299E+02  0.41676714299E+02  0.00000000000E+00 0. -1.
         23    2    1    2    0    0  0.00000000000E+00  0.00000000000E+00  0.64128972816E+01  0.89766325881E+02  0.89536964493E+02 0.  0.
        -11    1    3    3    0    0 -0.66260542020E+01  0.21650692597E+02 -0.35513202473E+02  0.42117034964E+02  0.00000000000E+00 0. -1.
         11    1    3    3    0    0  0.66260542020E+01 -0.21650692597E+02  0.41926099755E+02  0.47649290917E+02  0.00000000000E+00 0.  1.
<mgrwt>
<rscale>  0 0.89536964E+02</rscale>
<asrwt>0</asrwt>
<pdfrwt beam="2">  1        2 0.64118022E-02 0.89536964E+02</pdfrwt>
<pdfrwt beam="1">  1       -2 0.73984018E-02 0.89536964E+02</pdfrwt>
<totfact> 0.10158096E+05</totfact>
</mgrwt>
</event>
<event>
 5    1  0.1247456E+001  0.9483133E+02  0.7546771E-02  0.1291556E+00
          1   -1    0    0  501    0  0.00000000000E+00  0.00000000000E+00  0.33232726771E+03  0.33232726771E+03  0.00000000000E+00 0. -1.
         -1   -1    0    0    0  501 -0.00000000000E+00 -0.00000000000E+00 -0.67651548658E+01  0.67651548658E+01  0.00000000000E+00 0.  1.
         23    2    1    2    0    0  0.00000000000E+00  0.00000000000E+00  0.32556211284E+03  0.33909242257E+03  0.94831333053E+02 0.  0.
        -13    1    3    3    0    0 -0.65695669937E+01  0.42983782138E+02  0.23038819050E+03  0.23445571663E+03  0.00000000000E+00 0.  1.
         13    1    3    3    0    0  0.65695669937E+01 -0.42983782138E+02  0.95173922342E+02  0.10463670595E+03  0.00000000000E+00 0. -1.
<mgrwt>
<rscale>  0 0.94831333E+02</rscale>
<asrwt>0</asrwt>
<pdfrwt beam="1">  1        1 0.51127259E-01 0.94831333E+02</pdfrwt>
<pdfrwt beam="2">  1       -1 0.10407933E-02 0.94831333E+02</pdfrwt>
<totfact> 0.11760252E+05</totfact>
</mgrwt>
</event>
<event>
 5    1  0.1247456E+001  0.9188041E+02  0.7546771E-02  0.1298361E+00
         -3   -1    0    0    0  501 -0.00000000000E+00  0.00000000000E+00  0.15648353037E+02  0.15648353037E+02  0.00000000000E+00 0.  1.
          3   -1    0    0  501    0  0.00000000000E+00 -0.00000000000E+00 -0.13487057037E+03  0.13487057037E+03  0.00000000000E+00 0. -1.
         23    2    1    2    0    0  0.00000000000E+00  0.00000000000E+00 -0.11922221734E+03  0.15051892341E+03  0.91880407040E+02 0.  0.
        -11    1    3    3    0    0  0.35062092821E+00  0.45797471222E+02 -0.53711070471E+02  0.70586191260E+02  0.00000000000E+00 0.  1.
         11    1    3    3    0    0 -0.35062092821E+00 -0.45797471222E+02 -0.65511146866E+02  0.79932732150E+02  0.00000000000E+00 0. -1.
<mgrwt>
<rscale>  0 0.91880407E+02</rscale>
<asrwt>0</asrwt>
<pdfrwt beam="2">  1        3 0.20749318E-01 0.91880407E+02</pdfrwt>
<pdfrwt beam="1">  1       -3 0.24074390E-02 0.91880407E+02</pdfrwt>
<totfact> 0.30629710E+04</totfact>
</mgrwt>
</event>
<event>
 5    1  0.1247456E+001  0.9143491E+02  0.7546771E-02  0.1299414E+00
          2   -1    0    0  501    0  0.00000000000E+00  0.00000000000E+00  0.87772787246E+02  0.87772787246E+02  0.00000000000E+00 0. -1.
         -2   -1    0    0    0  501 -0.00000000000E+00 -0.00000000000E+00 -0.23812456980E+02  0.23812456980E+02  0.00000000000E+00 0.  1.
         23    2    1    2    0    0  0.00000000000E+00  0.00000000000E+00  0.63960330266E+02  0.11158524423E+03  0.91434910627E+02 0.  0.
        -13    1    3    3    0    0  0.32472014395E+01 -0.21955001124E+02  0.80757468216E+02  0.83751627234E+02  0.00000000000E+00 0. -1.
         13    1    3    3    0    0 -0.32472014395E+01  0.21955001124E+02 -0.16797137951E+02  0.27833616993E+02  0.00000000000E+00 0.  1.
<mgrwt>
<rscale>  0 0.91434911E+02</rscale>
<asrwt>0</asrwt>
<pdfrwt beam="1">  1        2 0.13503506E-01 0.91434911E+02</pdfrwt>
<pdfrwt beam="2">  1       -2 0.36634550E-02 0.91434911E+02</pdfrwt>
<totfact> 0.11706344E+05</totfact>
</mgrwt>
</event>
<event>
 5    1  0.1247456E+001  0.9312547E+02  0.7546771E-02  0.1295455E+00
         -1   -1    0    0    0  501 -0.00000000000E+00  0.00000000000E+00  0.11390712731E+03  0.11390712731E+03  0.00000000000E+00 0.  1.
          1   -1    0    0  501    0  0.00000000000E+00 -0.00000000000E+00 -0.19033825040E+02  0.19033825040E+02  0.00000000000E+00 0. -1.
         23    2    1    2    0    0  0.00000000000E+00  0.00000000000E+00  0.94873302275E+02  0.13294095235E+03  0.93125470889E+02 0.  0.
        -13    1    3    3    0    0 -0.21737246972E+02 -0.21964367104E+02  0.97158471344E+02  0.10195445004E+03  0.00000000000E+00 0.  1.
         13    1    3    3    0    0  0.21737246972E+02  0.21964367104E+02 -0.22851690699E+01  0.30986502317E+02  0.00000000000E+00 0. -1.
<mgrwt>
<rscale>  0 0.93125471E+02</rscale>
<asrwt>0</asrwt>
<pdfrwt beam="2">  1        1 0.29282808E-02 0.93125471E+02</pdfrwt>
<pdfrwt beam="1">  1       -1 0.17524173E-01 0.93125471E+02</pdfrwt>
<totfact> 0.75136831E+04</totfact>
</mgrwt>
</event>
<event>
 5    1  0.1247456E+001  0.9104213E+02  0.7546771E-02  0.1300347E+00
          3   -1    0    0  501    0  0.00000000000E+00  0.00000000000E+00  0.95852909548E+02  0.95852909548E+02  0.00000000000E+00 0. -1.
         -3   -1    0    0    0  501 -0.00000000000E+00 -0.00000000000E+00 -0.21618199037E+02  0.21618199037E+02  0.00000000000E+00 0.  1.
         23    2    1    2    0    0  0.00000000000E+00  0.00000000000E+00  0.74234710510E+02  0.11747110858E+03  0.91042128202E+02 0.  0.
        -11    1    3    3    0    0 -0.17314748302E+01  0.42381711466E+02  0.58434940859E+02  0.72206992632E+02  0.00000000000E+00 0.  1.
         11    1    3    3    0    0  0.17314748302E+01 -0.42381711466E+02  0.15799769652E+02  0.45264115952E+02  0.00000000000E+00 0. -1.
<mgrwt>
<rscale>  0 0.91042128E+02</rscale>
<asrwt>0</asrwt>
<pdfrwt beam="1">  1        3 0.14746601E-01 0.91042128E+02</pdfrwt>
<pdfrwt beam="2">  1       -3 0.33258768E-02 0.91042128E+02</pdfrwt>
<totfact> 0.33554849E+04</totfact>
</mgrwt>
</event>
<event>
 5    1  0.1247456E+001  0.9476637E+02  0.7546771E-02  0.1291703E+00
         -2   -1    0    0    0  501 -0.00000000000E+00  0.00000000000E+00  0.12190462032E+02  0.12190462032E+02  0.00000000000E+00 0.  1.
          2   -1    0    0  501    0  0.00000000000E+00 -0.00000000000E+00 -0.18417399679E+03  0.18417399679E+03  0.00000000000E+00 0. -1.
         23    2    1    2    0    0  0.00000000000E+00  0.00000000000E+00 -0.17198353475E+03  0.19636445882E+03  0.94766367773E+02 0.  0.
        -11    1    3    3    0    0  0.42652392547E+02 -0.14021119653E+02 -0.54611555488E+02  0.70698234625E+02  0.00000000000E+00 0.  1.
         11    1    3    3    0    0 -0.42652392547E+02  0.14021119653E+02 -0.11737197927E+03  0.12566622419E+03  0.00000000000E+00 0. -1.
<mgrwt>
<rscale>  0 0.94766368E+02</rscale>
<asrwt>0</asrwt>
<pdfrwt beam="2">  1        2 0.28334458E-01 0.94766368E+02</pdfrwt>
<pdfrwt beam="1">  1       -2 0.18754559E-02 0.94766368E+02</pdfrwt>
<totfact> 0.13526562E+05</totfact>
</mgrwt>
</event>
<event>
 5    1  0.1247456E+001  0.9422141E+02  0.7546771E-02  0.1292939E+00
         -1   -1    0    0    0  501 -0.00000000000E+00  0.00000000000E+00  0.49764846849E+02  0.49764846849E+02  0.00000000000E+00 0.  1.
          1   -1    0    0  501    0  0.00000000000E+00 -0.00000000000E+00 -0.44598121111E+02  0.44598121111E+02  0.00000000000E+00 0. -1.
         23    2    1    2    0    0  0.00000000000E+00  0.00000000000E+00  0.51667257379E+01  0.94362967960E+02  0.94221412998E+02 0.  0.
        -11    1    3    3    0    0 -0.45532025293E+02 -0.10952195261E+02 -0.25529636997E+01  0.46900250873E+02  0.00000000000E+00 0. -1.
         11    1    3    3    0    0  0.45532025293E+02  0.10952195261E+02  0.77196894377E+01  0.47462717087E+02  0.00000000000E+00 0.  1.
<mgrwt>
<rscale>  0 0.94221413E+02</rscale>
<asrwt>0</asrwt>
<pdfrwt beam="2">  1        1 0.68612494E-02 0.94221413E+02</pdfrwt>
<pdfrwt beam="1">  1       -1 0.76561303E-02 0.94221413E+02</pdfrwt>
<totfact> 0.84013431E+04</totfact>
</mgrwt>
</event>
<event>
 5    1  0.1247456E+001  0.9088489E+02  0.7546771E-02  0.1300723E+00
         -1   -1    0    0    0  501 -0.00000000000E+00  0.00000000000E+00  0.12313259138E+03  0.12313259138E+03  0.00000000000E+00 0.  1.
          1   -1    0    0  501    0  0.00000000000E+00 -0.00000000000E+00 -0.16770666902E+02  0.16770666902E+02  0.00000000000E+00 0. -1.
         23    2    1    2    0    0  0.00000000000E+00  0.00000000000E+00  0.10636192448E+03  0.13990325829E+03  0.90884887079E+02 0.  0.
        -11    1    3    3    0    0 -0.19644306183E+02  0.39666279801E+02  0.69007289237E+02  0.81983647677E+02  0.00000000000E+00 0. -1.
         11    1    3    3    0    0  0.19644306183E+02 -0.39666279801E+02  0.37354635246E+02  0.57919610608E+02  0.00000000000E+00 0.  1.
<mgrwt>
<rscale>  0 0.90884887E+02</rscale>
<asrwt>0</asrwt>
<pdfrwt beam="2">  1        1 0.25801027E-02 0.90884887E+02</pdfrwt>
<pdfrwt beam="1">  1       -1 0.18943475E-01 0.90884887E+02</pdfrwt>
<totfact> 0.78765299E+04</totfact>
</mgrwt>
</event>
<event>
 4    1  0.1247456E+001  0.1995746E+03  0.7546771E-02  0.1150098E+00
         -3   -1    0    0    0  501 -0.00000000000E+00  0.00000000000E+00  0.91446616856E+02  0.91446616856E+02  0.00000000000E+00 0.  1.
          3   -1    0    0  501    0  0.00000000000E+00 -0.00000000000E+00 -0.10888867250E+03  0.10888867250E+03  0.00000000000E+00 0. -1.
        -13    1    1    2    0    0  0.22009636056E+02  0.40281213469E+02  0.80219757741E+02  0.92424075705E+02  0.00000000000E+00 0.  1.
         13    1    1    2    0    0 -0.22009636056E+02 -0.40281213469E+02 -0.97661813384E+02  0.10791121365E+03  0.00000000000E+00 0. -1.
<mgrwt>
<rscale>  0 0.19957455E+03</rscale>
<asrwt>0</asrwt>
<pdfrwt beam="2">  1        3 0.16752103E-01 0.19957455E+03</pdfrwt>
<pdfrwt beam="1">  1       -3 0.14068710E-01 0.19957455E+03</pdfrwt>
<totfact> 0.30996226E+03</totfact>
</mgrwt>
</event>
<event>
 5    1  0.1247456E+001  0.9063646E+02  0.7546771E-02  0.1301318E+00
         -2   -1    0    0    0  501 -0.00000000000E+00  0.00000000000E+00  0.78008558069E+02  0.78008558069E+02  0.00000000000E+00 0.  1.
          2   -1    0    0  501    0  0.00000000000E+00 -0.00000000000E+00 -0.26327138912E+02  0.26327138912E+02  0.00000000000E+00 0. -1.
         23    2    1    2    0    0  0.00000000000E+00  0.00000000000E+00  0.51681419157E+02  0.10433569698E+03  0.90636463846E+02 0.  0.
        -13    1    3    3    0    0 -0.33942090046E+02 -0.25574342264E+01  0.60281612461E+02  0.69227731057E+02  0.00000000000E+00 0.  1.
         13    1    3    3    0    0  0.33942090046E+02  0.25574342264E+01 -0.86001933035E+01  0.35107965924E+02  0.00000000000E+00 0. -1.
<mgrwt>
<rscale>  0 0.90636464E+02</rscale>
<asrwt>0</asrwt>
<pdfrwt beam="2">  1        2 0.40503291E-02 0.90636464E+02</pdfrwt>
<pdfrwt beam="1">  1       -2 0.12001316E-01 0.90636464E+02</pdfrwt>
<totfact> 0.86928908E+04</totfact>
</mgrwt>
</event>
<event>
 5    1  0.1247456E+001  0.8975902E+02  0.7546771E-02  0.1303436E+00
          1   -1    0    0  501    0  0.00000000000E+00  0.00000000000E+00  0.15355067937E+02  0.15355067937E+02  0.00000000000E+00 0. -1.
         -1   -1    0    0    0  501 -0.00000000000E+00 -0.00000000000E+00 -0.13117301591E+03  0.13117301591E+03  0.00000000000E+00 0.  1.
         23    2    1    2    0    0  0.00000000000E+00  0.00000000000E+00 -0.11581794797E+03  0.14652808384E+03  0.89759023407E+02 0.  0.
        -13    1    3    3    0    0 -0.23673313353E+02 -0.48171738783E+01 -0.11965268095E+03  0.12206717408E+03  0.00000000000E+00 0.  1.
         13    1    3    3    0    0  0.23673313353E+02  0.48171738783E+01  0.38347329834E+01  0.24460909761E+02  0.00000000000E+00 0. -1.
<mgrwt>
<rscale>  0 0.89759023E+02</rscale>
<asrwt>0</asrwt>
<pdfrwt beam="1">  1        1 0.23623180E-02 0.89759023E+02</pdfrwt>
<pdfrwt beam="2">  1       -1 0.20180465E-01 0.89759023E+02</pdfrwt>
<totfact> 0.80264585E+04</totfact>
</mgrwt>
</event>
<event>
 5    1  0.1247456E+001  0.9115589E+02  0.7546771E-02  0.1300076E+00
          2   -1    0    0  501    0  0.00000000000E+00  0.00000000000E+00  0.15667562935E+03  0.15667562935E+03  0.00000000000E+00 0. -1.
         -2   -1    0    0    0  501 -0.00000000000E+00 -0.00000000000E+00 -0.13258915065E+02  0.13258915065E+02  0.00000000000E+00 0.  1.
         23    2    1    2    0    0  0.00000000000E+00  0.00000000000E+00  0.14341671429E+03  0.16993454442E+03  0.91155885435E+02 0.  0.
        -13    1    3    3    0    0  0.24381223272E+02  0.13383336632E+02  0.43950441241E+01  0.28158021246E+02  0.00000000000E+00 0.  1.
         13    1    3    3    0    0 -0.24381223272E+02 -0.13383336632E+02  0.13902167016E+03  0.14177652317E+03  0.00000000000E+00 0. -1.
<mgrwt>
<rscale>  0 0.91155885E+02</rscale>
<asrwt>0</asrwt>
<pdfrwt beam="1">  1        2 0.24103942E-01 0.91155885E+02</pdfrwt>
<pdfrwt beam="2">  1       -2 0.20398332E-02 0.91155885E+02</pdfrwt>
<totfact> 0.14199506E+05</totfact>
</mgrwt>
</event>
<event>
 5    1  0.1247456E+001  0.9162905E+02  0.7546771E-02  0.1298954E+00
          2   -1    0    0  501    0  0.00000000000E+00  0.00000000000E+00  0.70580557454E+02  0.70580557454E+02  0.00000000000E+00 0. -1.
         -2   -1    0    0    0  501 -0.00000000000E+00 -0.00000000000E+00 -0.29738652233E+02  0.29738652233E+02  0.00000000000E+00 0.  1.
         23    2    1    2    0    0  0.00000000000E+00  0.00000000000E+00  0.40841905221E+02  0.10031920969E+03  0.91629048943E+02 0.  0.
        -11    1    3    3    0    0 -0.14700077693E+02  0.42010514304E+02  0.32313717386E+02  0.55001381142E+02  0.00000000000E+00 0.  1.
         11    1    3    3    0    0  0.14700077693E+02 -0.42010514304E+02  0.85281878353E+01  0.45317828545E+02  0.00000000000E+00 0. -1.
<mgrwt>
<rscale>  0 0.91629049E+02</rscale>
<asrwt>0</asrwt>
<pdfrwt beam="1">  1        2 0.10858547E-01 0.91629049E+02</pdfrwt>
<pdfrwt beam="2">  1       -2 0.45751773E-02 0.91629049E+02</pdfrwt>
<totfact> 0.10934763E+05</totfact>
</mgrwt>
</event>
<event>
 5    1  0.1247456E+001  0.8227103E+02  0.7546771E-02  0.1322727E+00
          2   -1    0    0  501    0  0.00000000000E+00  0.00000000000E+00  0.69404401248E+02  0.69404401248E+02  0.00000000000E+00 0.  1.
         -2   -1    0    0    0  501 -0.00000000000E+00 -0.00000000000E+00 -0.24380739614E+02  0.24380739614E+02  0.00000000000E+00 0. -1.
         23    2    1    2    0    0  0.00000000000E+00  0.00000000000E+00  0.45023661634E+02  0.93785140861E+02  0.82271030986E+02 0.  0.
        -13    1    3    3    0    0 -0.30188012615E+02 -0.17713939500E+02  0.47147246361E+02  0.58719354540E+02  0.00000000000E+00 0.  1.
         13    1    3    3    0    0  0.30188012615E+02  0.17713939500E+02 -0.21235847269E+01  0.35065786321E+02  0.00000000000E+00 0. -1.
<mgrwt>
<rscale>  0 0.82271031E+02</rscale>
<asrwt>0</asrwt>
<pdfrwt beam="1">  1        2 0.10677600E-01 0.82271031E+02</pdfrwt>
<pdfrwt beam="2">  1       -2 0.37508830E-02 0.82271031E+02</pdfrwt>
<totfact> 0.14675212E+05</totfact>
</mgrwt>
</event>
<event>
 5    1  0.1247456E+001  0.8759570E+02  0.7546771E-02  0.1308781E+00
          3   -1    0    0  501    0  0.00000000000E+00  0.00000000000E+00  0.45804644351E+02  0.45804644351E+02  0.00000000000E+00 0. -1.
         -3   -1    0    0    0  501 -0.00000000000E+00 -0.00000000000E+00 -0.41878978511E+02  0.41878978511E+02  0.00000000000E+00 0.  1.
         23    2    1    2    0    0  0.00000000000E+00  0.00000000000E+00  0.39256658401E+01  0.87683622862E+02  0.87595701184E+02 0.  0.
        -11    1    3    3    0    0 -0.89053440554E+01  0.27573356623E+02 -0.30913039636E+02  0.42369932355E+02  0.00000000000E+00 0.  1.
         11    1    3    3    0    0  0.89053440554E+01 -0.27573356623E+02  0.34838705476E+02  0.45313690508E+02  0.00000000000E+00 0. -1.
<mgrwt>
<rscale>  0 0.87595701E+02</rscale>
<asrwt>0</asrwt>
<pdfrwt beam="1">  1        3 0.70468684E-02 0.87595701E+02</pdfrwt>
<pdfrwt beam="2">  1       -3 0.64429197E-02 0.87595701E+02</pdfrwt>
<totfact> 0.39702715E+04</totfact>
</mgrwt>
</event>
<event>
 5    1  0.1247456E+001  0.8933780E+02  0.7546771E-02  0.1304463E+00
         -3   -1    0    0    0  501 -0.00000000000E+00  0.00000000000E+00  0.43959596292E+01  0.43959596292E+01  0.00000000000E+00 0.  1.
          3   -1    0    0  501    0  0.00000000000E+00 -0.00000000000E+00 -0.45389648159E+03  0.45389648159E+03  0.00000000000E+00 0. -1.
         23    2    1    2    0    0  0.00000000000E+00  0.00000000000E+00 -0.44950052196E+03  0.45829244122E+03  0.89337799590E+02 0.  0.
        -11    1    3    3    0    0 -0.42005026772E+01 -0.44466917810E+02 -0.22167401323E+03  0.22612898784E+03  0.00000000000E+00 0.  1.
         11    1    3    3    0    0  0.42005026772E+01  0.44466917810E+02 -0.22782650873E+03  0.23216345337E+03  0.00000000000E+00 0. -1.
<mgrwt>
<rscale>  0 0.89337800E+02</rscale>
<asrwt>0</asrwt>
<pdfrwt beam="2">  1        3 0.69830200E-01 0.89337800E+02</pdfrwt>
<pdfrwt beam="1">  1       -3 0.67630175E-03 0.89337800E+02</pdfrwt>
<totfact> 0.20025697E+04</totfact>
</mgrwt>
</event>
<event>
 5    1  0.1247456E+001  0.9146994E+02  0.7546771E-02  0.1299331E+00
         -1   -1    0    0    0  501 -0.00000000000E+00  0.00000000000E+00  0.96720683258E+01  0.96720683258E+01  0.00000000000E+00 0. -1.
          1   -1    0    0  501    0  0.00000000000E+00 -0.00000000000E+00 -0.21626060561E+03  0.21626060561E+03  0.00000000000E+00 0.  1.
         23    2    1    2    0    0  0.00000000000E+00  0.00000000000E+00 -0.20658853729E+03  0.22593267394E+03  0.91469937218E+02 0.  0.
        -11    1    3    3    0    0  0.31916544443E+02 -0.28460721085E+02 -0.14335195701E+03  0.14959432487E+03  0.00000000000E+00 0.  1.
         11    1    3    3    0    0 -0.31916544443E+02  0.28460721085E+02 -0.63236580278E+02  0.76338349073E+02  0.00000000000E+00 0. -1.
<mgrwt>
<rscale>  0 0.91469937E+02</rscale>
<asrwt>0</asrwt>
<pdfrwt beam="2">  1        1 0.33270860E-01 0.91469937E+02</pdfrwt>
<pdfrwt beam="1">  1       -1 0.14880106E-02 0.91469937E+02</pdfrwt>
<totfact> 0.11919061E+05</totfact>
</mgrwt>
</event>
<event>
 5    1  0.1247456E+001  0.8718222E+02  0.7546771E-02  0.1309822E+00
          1   -1    0    0  501    0  0.00000000000E+00  0.00000000000E+00  0.21749336572E+03  0.21749336572E+03  0.00000000000E+00 0. -1.
         -1   -1    0    0    0  501 -0.00000000000E+00 -0.00000000000E+00 -0.87367495026E+01  0.87367495026E+01  0.00000000000E+00 0.  1.
         23    2    1    2    0    0  0.00000000000E+00  0.00000000000E+00  0.20875661622E+03  0.22623011523E+03  0.87182224216E+02 0.  0.
        -11    1    3    3    0    0 -0.20400918740E+01 -0.40225395193E+02  0.14763950348E+03  0.15303485676E+03  0.00000000000E+00 0. -1.
         11    1    3    3    0    0  0.20400918740E+01  0.40225395193E+02  0.61117112737E+02  0.73195258471E+02  0.00000000000E+00 0.  1.
<mgrwt>
<rscale>  0 0.87182224E+02</rscale>
<asrwt>0</asrwt>
<pdfrwt beam="1">  1        1 0.33460514E-01 0.87182224E+02</pdfrwt>
<pdfrwt beam="2">  1       -1 0.13441155E-02 0.87182224E+02</pdfrwt>
<totfact> 0.13564441E+05</totfact>
</mgrwt>
</event>
<event>
 5    1  0.1247456E+001  0.9376829E+02  0.7546771E-02  0.1293975E+00
         -1   -1    0    0    0  501 -0.00000000000E+00  0.00000000000E+00  0.55934584817E+01  0.55934584817E+01  0.00000000000E+00 0.  1.
          1   -1    0    0  501    0  0.00000000000E+00 -0.00000000000E+00 -0.39298103994E+03  0.39298103994E+03  0.00000000000E+00 0. -1.
         23    2    1    2    0    0  0.00000000000E+00  0.00000000000E+00 -0.38738758146E+03  0.39857449843E+03  0.93768291677E+02 0.  0.
        -11    1    3    3    0    0 -0.15433665105E+02 -0.44269869151E+02 -0.19506324520E+03  0.20061826677E+03  0.00000000000E+00 0.  1.
         11    1    3    3    0    0  0.15433665105E+02  0.44269869151E+02 -0.19232433626E+03  0.19795623166E+03  0.00000000000E+00 0. -1.
<mgrwt>
<rscale>  0 0.93768292E+02</rscale>
<asrwt>0</asrwt>
<pdfrwt beam="2">  1        1 0.60458633E-01 0.93768292E+02</pdfrwt>
<pdfrwt beam="1">  1       -1 0.86053191E-03 0.93768292E+02</pdfrwt>
<totfact> 0.12483323E+05</totfact>
</mgrwt>
</event>
<event>
 5    1  0.1247456E+001  0.9127955E+02  0.7546771E-02  0.1299782E+00
          4   -1    0    0  501    0  0.00000000000E+00  0.00000000000E+00  0.12247837400E+03  0.12247837400E+03  0.00000000000E+00 0. -1.
         -4   -1    0    0    0  501 -0.00000000000E+00 -0.00000000000E+00 -0.17006993384E+02  0.17006993384E+02  0.00000000000E+00 0.  1.
         23    2    1    2    0    0  0.00000000000E+00  0.00000000000E+00  0.10547138062E+03  0.13948536739E+03  0.91279546370E+02 0.  0.
        -13    1    3    3    0    0 -0.37820766277E+02 -0.22704618601E+02  0.34844453252E+02  0.56214286351E+02  0.00000000000E+00 0.  1.
         13    1    3    3    0    0  0.37820766277E+02  0.22704618601E+02  0.70626927367E+02  0.83271081036E+02  0.00000000000E+00 0. -1.
<mgrwt>
<rscale>  0 0.91279546E+02</rscale>
<asrwt>0</asrwt>
<pdfrwt beam="1">  1        4 0.18842826E-01 0.91279546E+02</pdfrwt>
<pdfrwt beam="2">  1       -4 0.26164606E-02 0.91279546E+02</pdfrwt>
<totfact> 0.24138731E+04</totfact>
</mgrwt>
</event>
<event>
 5    1  0.1247456E+001  0.9228173E+02  0.7546771E-02  0.1297418E+00
         -1   -1    0    0    0  501 -0.00000000000E+00  0.00000000000E+00  0.28943041912E+02  0.28943041912E+02  0.00000000000E+00 0. -1.
          1   -1    0    0  501    0  0.00000000000E+00 -0.00000000000E+00 -0.73557548457E+02  0.73557548457E+02  0.00000000000E+00 0.  1.
         23    2    1    2    0    0  0.00000000000E+00  0.00000000000E+00 -0.44614506545E+02  0.10250059037E+03  0.92281725339E+02 0.  0.
        -13    1    3    3    0    0 -0.26768420502E+02  0.37890198315E+01 -0.63838576832E+02  0.69327259425E+02  0.00000000000E+00 0.  1.
         13    1    3    3    0    0  0.26768420502E+02 -0.37890198315E+01  0.19224070287E+02  0.33173330943E+02  0.00000000000E+00 0. -1.
<mgrwt>
<rscale>  0 0.92281725E+02</rscale>
<asrwt>0</asrwt>
<pdfrwt beam="2">  1        1 0.11316546E-01 0.92281725E+02</pdfrwt>
<pdfrwt beam="1">  1       -1 0.44527758E-02 0.92281725E+02</pdfrwt>
<totfact> 0.96178979E+04</totfact>
</mgrwt>
</event>
<event>
 5    1  0.1247456E+001  0.9134403E+02  0.7546771E-02  0.1299629E+00
         -1   -1    0    0    0  501 -0.00000000000E+00  0.00000000000E+00  0.55763781065E+02  0.55763781065E+02  0.00000000000E+00 0.  1.
          1   -1    0    0  501    0  0.00000000000E+00 -0.00000000000E+00 -0.37406587623E+02  0.37406587623E+02  0.00000000000E+00 0. -1.
         23    2    1    2    0    0  0.00000000000E+00  0.00000000000E+00  0.18357193442E+02  0.93170368688E+02  0.91344025806E+02 0.  0.
        -13    1    3    3    0    0  0.10424849311E+02 -0.21338396835E+02 -0.30613308503E+02  0.38745055429E+02  0.00000000000E+00 0. -1.
         13    1    3    3    0    0 -0.10424849311E+02  0.21338396835E+02  0.48970501945E+02  0.54425313260E+02  0.00000000000E+00 0.  1.
<mgrwt>
<rscale>  0 0.91344026E+02</rscale>
<asrwt>0</asrwt>
<pdfrwt beam="2">  1        1 0.57548597E-02 0.91344026E+02</pdfrwt>
<pdfrwt beam="1">  1       -1 0.85790432E-02 0.91344026E+02</pdfrwt>
<totfact> 0.89275158E+04</totfact>
</mgrwt>
</event>
<event>
 5    1  0.1247456E+001  0.9333875E+02  0.7546771E-02  0.1294962E+00
         -1   -1    0    0    0  501 -0.00000000000E+00  0.00000000000E+00  0.11596617409E+03  0.11596617409E+03  0.00000000000E+00 0.  1.
          1   -1    0    0  501    0  0.00000000000E+00 -0.00000000000E+00 -0.18781600917E+02  0.18781600917E+02  0.00000000000E+00 0. -1.
         23    2    1    2    0    0  0.00000000000E+00  0.00000000000E+00  0.97184573178E+02  0.13474777501E+03  0.93338746545E+02 0.  0.
        -11    1    3    3    0    0 -0.37433449466E+02 -0.22236817023E+02  0.72847680522E+02  0.84867683647E+02  0.00000000000E+00 0.  1.
         11    1    3    3    0    0  0.37433449466E+02  0.22236817023E+02  0.24336892656E+02  0.49880091363E+02  0.00000000000E+00 0. -1.
<mgrwt>
<rscale>  0 0.93338747E+02</rscale>
<asrwt>0</asrwt>
<pdfrwt beam="2">  1        1 0.28894771E-02 0.93338747E+02</pdfrwt>
<pdfrwt beam="1">  1       -1 0.17840949E-01 0.93338747E+02</pdfrwt>
<totfact> 0.74425095E+04</totfact>
</mgrwt>
</event>
<event>
 5    1  0.1247456E+001  0.9020769E+02  0.7546771E-02  0.1302350E+00
          3   -1    0    0  501    0  0.00000000000E+00  0.00000000000E+00  0.28446886610E+02  0.28446886610E+02  0.00000000000E+00 0. -1.
         -3   -1    0    0    0  501 -0.00000000000E+00 -0.00000000000E+00 -0.71514214828E+02  0.71514214828E+02  0.00000000000E+00 0.  1.
         23    2    1    2    0    0  0.00000000000E+00  0.00000000000E+00 -0.43067328219E+02  0.99961101438E+02  0.90207688368E+02 0.  0.
        -11    1    3    3    0    0 -0.29866917609E+02 -0.19929851620E+02 -0.51782039106E+02  0.63012787012E+02  0.00000000000E+00 0.  1.
         11    1    3    3    0    0  0.29866917609E+02  0.19929851620E+02  0.87147108871E+01  0.36948314426E+02  0.00000000000E+00 0. -1.
<mgrwt>
<rscale>  0 0.90207688E+02</rscale>
<asrwt>0</asrwt>
<pdfrwt beam="1">  1        3 0.43764441E-02 0.90207688E+02</pdfrwt>
<pdfrwt beam="2">  1       -3 0.11002187E-01 0.90207688E+02</pdfrwt>
<totfact> 0.35696821E+04</totfact>
</mgrwt>
</event>
<event>
 5    1  0.1247456E+001  0.9251786E+02  0.7546771E-02  0.1296866E+00
          2   -1    0    0  501    0  0.00000000000E+00  0.00000000000E+00  0.29184429867E+02  0.29184429867E+02  0.00000000000E+00 0. -1.
         -2   -1    0    0    0  501 -0.00000000000E+00 -0.00000000000E+00 -0.73322959959E+02  0.73322959959E+02  0.00000000000E+00 0.  1.
         23    2    1    2    0    0  0.00000000000E+00  0.00000000000E+00 -0.44138530092E+02  0.10250738983E+03  0.92517863844E+02 0.  0.
        -11    1    3    3    0    0  0.37519495931E+00  0.39193022404E+02  0.51529826703E+01  0.39532100967E+02  0.00000000000E+00 0. -1.
         11    1    3    3    0    0 -0.37519495931E+00 -0.39193022404E+02 -0.49291512763E+02  0.62975288859E+02  0.00000000000E+00 0.  1.
<mgrwt>
<rscale>  0 0.92517864E+02</rscale>
<asrwt>0</asrwt>
<pdfrwt beam="1">  1        2 0.44899124E-02 0.92517864E+02</pdfrwt>
<pdfrwt beam="2">  1       -2 0.11280455E-01 0.92517864E+02</pdfrwt>
<totfact> 0.84072314E+04</totfact>
</mgrwt>
</event>
<event>
 5    1  0.1247456E+001  0.9009717E+02  0.7546771E-02  0.1302617E+00
          4   -1    0    0  501    0  0.00000000000E+00  0.00000000000E+00  0.53573227832E+02  0.53573227832E+02  0.00000000000E+00 0. -1.
         -4   -1    0    0    0  501 -0.00000000000E+00 -0.00000000000E+00 -0.37880397769E+02  0.37880397769E+02  0.00000000000E+00 0.  1.
         23    2    1    2    0    0  0.00000000000E+00  0.00000000000E+00  0.15692830063E+02  0.91453625601E+02  0.90097173764E+02 0.  0.
        -13    1    3    3    0    0 -0.31387625106E+02  0.31164559917E+02 -0.82398712828E+00  0.44239029820E+02  0.00000000000E+00 0.  1.
         13    1    3    3    0    0  0.31387625106E+02 -0.31164559917E+02  0.16516817191E+02  0.47214595781E+02  0.00000000000E+00 0. -1.
<mgrwt>
<rscale>  0 0.90097174E+02</rscale>
<asrwt>0</asrwt>
<pdfrwt beam="1">  1        4 0.82420351E-02 0.90097174E+02</pdfrwt>
<pdfrwt beam="2">  1       -4 0.58277535E-02 0.90097174E+02</pdfrwt>
<totfact> 0.27883733E+04</totfact>
</mgrwt>
</event>
<event>
 5    1  0.1247456E+001  0.9111469E+02  0.7546771E-02  0.1300175E+00
          1   -1    0    0  501    0  0.00000000000E+00  0.00000000000E+00  0.29614048455E+02  0.29614048455E+02  0.00000000000E+00 0. -1.
         -1   -1    0    0    0  501 -0.00000000000E+00 -0.00000000000E+00 -0.70084018536E+02  0.70084018536E+02  0.00000000000E+00 0.  1.
         23    2    1    2    0    0  0.00000000000E+00  0.00000000000E+00 -0.40469970081E+02  0.99698066991E+02  0.91114686430E+02 0.  0.
        -13    1    3    3    0    0 -0.39215469636E+02  0.22899078028E+02 -0.16251918520E+02  0.48232205930E+02  0.00000000000E+00 0.  1.
         13    1    3    3    0    0  0.39215469636E+02 -0.22899078028E+02 -0.24218051562E+02  0.51465861061E+02  0.00000000000E+00 0. -1.
<mgrwt>
<rscale>  0 0.91114686E+02</rscale>
<asrwt>0</asrwt>
<pdfrwt beam="1">  1        1 0.45560074E-02 0.91114686E+02</pdfrwt>
<pdfrwt beam="2">  1       -1 0.10782157E-01 0.91114686E+02</pdfrwt>
<totfact> 0.86673213E+04</totfact>
</mgrwt>
</event>
<event>
 5    1  0.1247456E+001  0.8902213E+02  0.7546771E-02  0.1305237E+00
         -2   -1    0    0    0  501 -0.00000000000E+00  0.00000000000E+00  0.56812092234E+01  0.56812092234E+01  0.00000000000E+00 0.  1.
          2   -1    0    0  501    0  0.00000000000E+00 -0.00000000000E+00 -0.34873468605E+03  0.34873468605E+03  0.00000000000E+00 0. -1.
         23    2    1    2    0    0  0.00000000000E+00  0.00000000000E+00 -0.34305347682E+03  0.35441589527E+03  0.89022125675E+02 0.  0.
        -11    1    3    3    0    0  0.36036240088E+02  0.26127029402E+02 -0.17172379115E+03  0.17739868295E+03  0.00000000000E+00 0. -1.
         11    1    3    3    0    0 -0.36036240088E+02 -0.26127029402E+02 -0.17132968567E+03  0.17701721232E+03  0.00000000000E+00 0.  1.
<mgrwt>
<rscale>  0 0.89022126E+02</rscale>
<asrwt>0</asrwt>
<pdfrwt beam="2">  1        2 0.53651493E-01 0.89022126E+02</pdfrwt>
<pdfrwt beam="1">  1       -2 0.87403214E-03 0.89022126E+02</pdfrwt>
<totfact> 0.20240142E+05</totfact>
</mgrwt>
</event>
<event>
 5    1  0.1247456E+001  0.9004408E+02  0.7546771E-02  0.1302745E+00
         -1   -1    0    0    0  501 -0.00000000000E+00  0.00000000000E+00  0.25487292900E+03  0.25487292900E+03  0.00000000000E+00 0.  1.
          1   -1    0    0  501    0  0.00000000000E+00 -0.00000000000E+00 -0.79529210811E+01  0.79529210811E+01  0.00000000000E+00 0. -1.
         23    2    1    2    0    0  0.00000000000E+00  0.00000000000E+00  0.24692000792E+03  0.26282585008E+03  0.90044084538E+02 0.  0.
        -13    1    3    3    0    0 -0.37936002494E+02  0.24170874606E+02  0.12900800319E+03  0.13662516734E+03  0.00000000000E+00 0.  1.
         13    1    3    3    0    0  0.37936002494E+02 -0.24170874606E+02  0.11791200473E+03  0.12620068274E+03  0.00000000000E+00 0. -1.
<mgrwt>
<rscale>  0 0.90044085E+02</rscale>
<asrwt>0</asrwt>
<pdfrwt beam="2">  1        1 0.12235265E-02 0.90044085E+02</pdfrwt>
<pdfrwt beam="1">  1       -1 0.39211214E-01 0.90044085E+02</pdfrwt>
<totfact> 0.66472751E+04</totfact>
</mgrwt>
</event>
<event>
 5    1  0.1247456E+001  0.9055852E+02  0.7546771E-02  0.1301505E+00
         -1   -1    0    0    0  501 -0.00000000000E+00  0.00000000000E+00  0.92252063225E+01  0.92252063225E+01  0.00000000000E+00 0.  1.
          1   -1    0    0  501    0  0.00000000000E+00 -0.00000000000E+00 -0.22224015908E+03  0.22224015908E+03  0.00000000000E+00 0. -1.
         23    2    1    2    0    0  0.00000000000E+00  0.00000000000E+00 -0.21301495275E+03  0.23146536540E+03  0.90558518553E+02 0.  0.
        -13    1    3    3    0    0  0.19142685550E+02  0.30393127917E+02 -0.36042854244E+02  0.50884889473E+02  0.00000000000E+00 0.  1.
         13    1    3    3    0    0 -0.19142685550E+02 -0.30393127917E+02 -0.17697209851E+03  0.18058047593E+03  0.00000000000E+00 0. -1.
<mgrwt>
<rscale>  0 0.90558519E+02</rscale>
<asrwt>0</asrwt>
<pdfrwt beam="2">  1        1 0.34190791E-01 0.90558519E+02</pdfrwt>
<pdfrwt beam="1">  1       -1 0.14192626E-02 0.90558519E+02</pdfrwt>
<totfact> 0.12308207E+05</totfact>
</mgrwt>
</event>
<event>
 5    1  0.1247456E+001  0.9055753E+02  0.7546771E-02  0.1301507E+00
         -3   -1    0    0    0  501 -0.00000000000E+00  0.00000000000E+00  0.93648623713E+02  0.93648623713E+02  0.00000000000E+00 0.  1.
          3   -1    0    0  501    0  0.00000000000E+00 -0.00000000000E+00 -0.21892116182E+02  0.21892116182E+02  0.00000000000E+00 0. -1.
         23    2    1    2    0    0  0.00000000000E+00  0.00000000000E+00  0.71756507531E+02  0.11554073989E+03  0.90557529794E+02 0.  0.
        -13    1    3    3    0    0  0.19569090511E+02 -0.40798942749E+02  0.37960530139E+02  0.59063566446E+02  0.00000000000E+00 0.  1.
         13    1    3    3    0    0 -0.19569090511E+02  0.40798942749E+02  0.33795977392E+02  0.56477173449E+02  0.00000000000E+00 0. -1.
<mgrwt>
<rscale>  0 0.90557530E+02</rscale>
<asrwt>0</asrwt>
<pdfrwt beam="2">  1        3 0.33680179E-02 0.90557530E+02</pdfrwt>
<pdfrwt beam="1">  1       -3 0.14407480E-01 0.90557530E+02</pdfrwt>
<totfact> 0.34182141E+04</totfact>
</mgrwt>
</event>
<event>
 5    1  0.1247456E+001  0.9268170E+02  0.7546771E-02  0.1296485E+00
         -1   -1    0    0    0  501 -0.00000000000E+00  0.00000000000E+00  0.98004781812E+01  0.98004781812E+01  0.00000000000E+00 0.  1.
          1   -1    0    0  501    0  0.00000000000E+00 -0.00000000000E+00 -0.21911933584E+03  0.21911933584E+03  0.00000000000E+00 0. -1.
         23    2    1    2    0    0  0.00000000000E+00  0.00000000000E+00 -0.20931885765E+03  0.22891981402E+03  0.92681697652E+02 0.  0.
        -13    1    3    3    0    0  0.33392996660E+02 -0.32083443857E+02 -0.10896217223E+03  0.11839423370E+03  0.00000000000E+00 0.  1.
         13    1    3    3    0    0 -0.33392996660E+02  0.32083443857E+02 -0.10035668542E+03  0.11052558032E+03  0.00000000000E+00 0. -1.
<mgrwt>
<rscale>  0 0.92681698E+02</rscale>
<asrwt>0</asrwt>
<pdfrwt beam="2">  1        1 0.33710665E-01 0.92681698E+02</pdfrwt>
<pdfrwt beam="1">  1       -1 0.15077660E-02 0.92681698E+02</pdfrwt>
<totfact> 0.11535185E+05</totfact>
</mgrwt>
</event>
<event>
 5    1  0.1247456E+001  0.9111328E+02  0.7546771E-02  0.1300178E+00
          2   -1    0    0  501    0  0.00000000000E+00  0.00000000000E+00  0.22275741289E+02  0.22275741289E+02  0.00000000000E+00 0. -1.
         -2   -1    0    0    0  501 -0.00000000000E+00 -0.00000000000E+00 -0.93168944560E+02  0.93168944560E+02  0.00000000000E+00 0.  1.
         23    2    1    2    0    0  0.00000000000E+00  0.00000000000E+00 -0.70893203271E+02  0.11544468585E+03  0.91113276863E+02 0.  0.
        -13    1    3    3    0    0  0.41133842978E+02  0.12092949365E+02 -0.15933487238E+02  0.45739572342E+02  0.00000000000E+00 0.  1.
         13    1    3    3    0    0 -0.41133842978E+02 -0.12092949365E+02 -0.54959716034E+02  0.69705113507E+02  0.00000000000E+00 0. -1.
<mgrwt>
<rscale>  0 0.91113277E+02</rscale>
<asrwt>0</asrwt>
<pdfrwt beam="1">  1        2 0.34270371E-02 0.91113277E+02</pdfrwt>
<pdfrwt beam="2">  1       -2 0.14333684E-01 0.91113277E+02</pdfrwt>
<totfact> 0.81627181E+04</totfact>
</mgrwt>
</event>
<event>
 5    1  0.1247456E+001  0.9278592E+02  0.7546771E-02  0.1296242E+00
          2   -1    0    0  501    0  0.00000000000E+00  0.00000000000E+00  0.10777144123E+03  0.10777144123E+03  0.00000000000E+00 0. -1.
         -2   -1    0    0    0  501 -0.00000000000E+00 -0.00000000000E+00 -0.19971030542E+02  0.19971030542E+02  0.00000000000E+00 0.  1.
         23    2    1    2    0    0  0.00000000000E+00  0.00000000000E+00  0.87800410690E+02  0.12774247177E+03  0.92785920148E+02 0.  0.
        -13    1    3    3    0    0  0.15435349627E+02  0.29685039830E+02 -0.34568546493E+00  0.33459992622E+02  0.00000000000E+00 0.  1.
         13    1    3    3    0    0 -0.15435349627E+02 -0.29685039830E+02  0.88146096155E+02  0.94282479152E+02  0.00000000000E+00 0. -1.
<mgrwt>
<rscale>  0 0.92785920E+02</rscale>
<asrwt>0</asrwt>
<pdfrwt beam="1">  1        2 0.16580221E-01 0.92785920E+02</pdfrwt>
<pdfrwt beam="2">  1       -2 0.30724663E-02 0.92785920E+02</pdfrwt>
<totfact> 0.11963602E+05</totfact>
</mgrwt>
</event>
<event>
 5    1  0.1247456E+001  0.9039604E+02  0.7546771E-02  0.1301895E+00
          2   -1    0    0  501    0  0.00000000000E+00  0.00000000000E+00  0.17774809305E+03  0.17774809305E+03  0.00000000000E+00 0.  1.
         -2   -1    0    0    0  501 -0.00000000000E+00 -0.00000000000E+00 -0.11493011266E+02  0.11493011266E+02  0.00000000000E+00 0. -1.
         23    2    1    2    0    0  0.00000000000E+00  0.00000000000E+00  0.16625508179E+03  0.18924110432E+03  0.90396036108E+02 0.  0.
        -13    1    3    3    0    0  0.28972078845E+02 -0.22419380840E+02  0.13854911897E+03  0.14331039166E+03  0.00000000000E+00 0.  1.
         13    1    3    3    0    0 -0.28972078845E+02  0.22419380840E+02  0.27705962816E+02  0.45930712660E+02  0.00000000000E+00 0. -1.
<mgrwt>
<rscale>  0 0.90396036E+02</rscale>
<asrwt>0</asrwt>
<pdfrwt beam="1">  1        2 0.27345858E-01 0.90396036E+02</pdfrwt>
<pdfrwt beam="2">  1       -2 0.17681557E-02 0.90396036E+02</pdfrwt>
<totfact> 0.15176372E+05</totfact>
</mgrwt>
</event>
<event>
 5    1  0.1247456E+001  0.9119340E+02  0.7546771E-02  0.1299987E+00
         -1   -1    0    0    0  501 -0.00000000000E+00  0.00000000000E+00  0.12344179449E+02  0.12344179449E+02  0.00000000000E+00 0.  1.
          1   -1    0    0  501    0  0.00000000000E+00 -0.00000000000E+00 -0.16842424911E+03  0.16842424911E+03  0.00000000000E+00 0. -1.
         23    2    1    2    0    0  0.00000000000E+00  0.00000000000E+00 -0.15608006966E+03  0.18076842856E+03  0.91193402274E+02 0.  0.
        -13    1    3    3    0    0  0.17067531593E+02 -0.39569133855E+02 -0.10757774952E+03  0.11588783017E+03  0.00000000000E+00 0. -1.
         13    1    3    3    0    0 -0.17067531593E+02  0.39569133855E+02 -0.48502320137E+02  0.64880598390E+02  0.00000000000E+00 0.  1.
<mgrwt>
<rscale>  0 0.91193402E+02</rscale>
<asrwt>0</asrwt>
<pdfrwt beam="2">  1        1 0.25911423E-01 0.91193402E+02</pdfrwt>
<pdfrwt beam="1">  1       -1 0.18991045E-02 0.91193402E+02</pdfrwt>
<totfact> 0.11451857E+05</totfact>
</mgrwt>
</event>
<event>
 5    1  0.1247456E+001  0.9141045E+02  0.7546771E-02  0.1299472E+00
          2   -1    0    0  501    0  0.00000000000E+00  0.00000000000E+00  0.53879433628E+02  0.53879433628E+02  0.00000000000E+00 0. -1.
         -2   -1    0    0    0  501 -0.00000000000E+00 -0.00000000000E+00 -0.38771149823E+02  0.38771149823E+02  0.00000000000E+00 0.  1.
         23    2    1    2    0    0  0.00000000000E+00  0.00000000000E+00  0.15108283805E+02  0.92650583452E+02  0.91410450029E+02 0.  0.
        -13    1    3    3    0    0  0.44743774629E+02  0.33625283152E+00 -0.18915792710E+01  0.44785003139E+02  0.00000000000E+00 0.  1.
         13    1    3    3    0    0 -0.44743774629E+02 -0.33625283152E+00  0.16999863076E+02  0.47865580313E+02  0.00000000000E+00 0. -1.
<mgrwt>
<rscale>  0 0.91410450E+02</rscale>
<asrwt>0</asrwt>
<pdfrwt beam="1">  1        2 0.82891436E-02 0.91410450E+02</pdfrwt>
<pdfrwt beam="2">  1       -2 0.59647923E-02 0.91410450E+02</pdfrwt>
<totfact> 0.10233222E+05</totfact>
</mgrwt>
</event>
<event>
 5    1  0.1247456E+001  0.9618916E+02  0.7546771E-02  0.1288520E+00
         -2   -1    0    0    0  501 -0.00000000000E+00  0.00000000000E+00  0.91364754018E+01  0.91364754018E+01  0.00000000000E+00 0. -1.
          2   -1    0    0  501    0  0.00000000000E+00 -0.00000000000E+00 -0.25317077192E+03  0.25317077192E+03  0.00000000000E+00 0.  1.
         23    2    1    2    0    0  0.00000000000E+00  0.00000000000E+00 -0.24403429652E+03  0.26230724732E+03  0.96189158019E+02 0.  0.
        -13    1    3    3    0    0  0.47757535320E+02  0.56512480244E+01 -0.12035895195E+03  0.12961094128E+03  0.00000000000E+00 0.  1.
         13    1    3    3    0    0 -0.47757535320E+02 -0.56512480244E+01 -0.12367534457E+03  0.13269630605E+03  0.00000000000E+00 0. -1.
<mgrwt>
<rscale>  0 0.96189158E+02</rscale>
<asrwt>0</asrwt>
<pdfrwt beam="2">  1        2 0.38949349E-01 0.96189158E+02</pdfrwt>
<pdfrwt beam="1">  1       -2 0.14056116E-02 0.96189158E+02</pdfrwt>
<totfact> 0.14605643E+05</totfact>
</mgrwt>
</event>
<event>
 4    1  0.1247456E+001  0.3333862E+02  0.7546771E-02  0.1563869E+00
          2   -1    0    0  501    0  0.00000000000E+00  0.00000000000E+00  0.23049528210E+02  0.23049528210E+02  0.00000000000E+00 0. -1.
         -2   -1    0    0    0  501 -0.00000000000E+00 -0.00000000000E+00 -0.12055168160E+02  0.12055168160E+02  0.00000000000E+00 0.  1.
        -11    1    1    2    0    0 -0.48700022550E+01 -0.93626338852E+01  0.19083811014E+02  0.21807514257E+02  0.00000000000E+00 0. -1.
         11    1    1    2    0    0  0.48700022550E+01  0.93626338852E+01 -0.80894509646E+01  0.13297182113E+02  0.00000000000E+00 0.  1.
<mgrwt>
<rscale>  0 0.33338623E+02</rscale>
<asrwt>0</asrwt>
<pdfrwt beam="1">  1        2 0.35460812E-02 0.33338623E+02</pdfrwt>
<pdfrwt beam="2">  1       -2 0.18546413E-02 0.33338623E+02</pdfrwt>
<totfact> 0.12666872E+06</totfact>
</mgrwt>
</event>
<event>
 5    1  0.1247456E+001  0.9604295E+02  0.7546771E-02  0.1288844E+00
          4   -1    0    0  501    0  0.00000000000E+00  0.00000000000E+00  0.47266438209E+02  0.47266438209E+02  0.00000000000E+00 0. -1.
         -4   -1    0    0    0  501 -0.00000000000E+00 -0.00000000000E+00 -0.48788575851E+02  0.48788575851E+02  0.00000000000E+00 0.  1.
         23    2    1    2    0    0  0.00000000000E+00  0.00000000000E+00 -0.15221376422E+01  0.96055014060E+02  0.96042953011E+02 0.  0.
        -11    1    3    3    0    0 -0.38501055041E+02  0.21312450558E+02 -0.19986136562E+02  0.48332157439E+02  0.00000000000E+00 0.  1.
         11    1    3    3    0    0  0.38501055041E+02 -0.21312450558E+02  0.18463998919E+02  0.47722856622E+02  0.00000000000E+00 0. -1.
<mgrwt>
<rscale>  0 0.96042953E+02</rscale>
<asrwt>0</asrwt>
<pdfrwt beam="1">  1        4 0.72717597E-02 0.96042953E+02</pdfrwt>
<pdfrwt beam="2">  1       -4 0.75059347E-02 0.96042953E+02</pdfrwt>
<totfact> 0.23175185E+04</totfact>
</mgrwt>
</event>
<event>
 5    1  0.1247456E+001  0.9022439E+02  0.7546771E-02  0.1302309E+00
         -1   -1    0    0    0  501 -0.00000000000E+00  0.00000000000E+00  0.24987642502E+03  0.24987642502E+03  0.00000000000E+00 0.  1.
          1   -1    0    0  501    0  0.00000000000E+00 -0.00000000000E+00 -0.81444659464E+01  0.81444659464E+01  0.00000000000E+00 0. -1.
         23    2    1    2    0    0  0.00000000000E+00  0.00000000000E+00  0.24173195907E+03  0.25802089096E+03  0.90224387709E+02 0.  0.
        -13    1    3    3    0    0  0.42984880782E+02 -0.14521777972E+01  0.81937262793E+02  0.92539309648E+02  0.00000000000E+00 0. -1.
         13    1    3    3    0    0 -0.42984880782E+02  0.14521777972E+01  0.15979469628E+03  0.16548158132E+03  0.00000000000E+00 0.  1.
<mgrwt>
<rscale>  0 0.90224388E+02</rscale>
<asrwt>0</asrwt>
<pdfrwt beam="2">  1        1 0.12529950E-02 0.90224388E+02</pdfrwt>
<pdfrwt beam="1">  1       -1 0.38442521E-01 0.90224388E+02</pdfrwt>
<totfact> 0.66574997E+04</totfact>
</mgrwt>
</event>
<event>
 5    1  0.1247456E+001  0.9142416E+02  0.7546771E-02  0.1299439E+00
         -2   -1    0    0    0  501 -0.00000000000E+00  0.00000000000E+00  0.64349673468E+01  0.64349673468E+01  0.00000000000E+00 0.  1.
          2   -1    0    0  501    0  0.00000000000E+00 -0.00000000000E+00 -0.32472489641E+03  0.32472489641E+03  0.00000000000E+00 0. -1.
         23    2    1    2    0    0  0.00000000000E+00  0.00000000000E+00 -0.31828992906E+03  0.33115986375E+03  0.91424156656E+02 0.  0.
        -11    1    3    3    0    0 -0.32731356415E+02 -0.25895781140E+02 -0.22668397246E+03  0.23049415729E+03  0.00000000000E+00 0. -1.
         11    1    3    3    0    0  0.32731356415E+02  0.25895781140E+02 -0.91605956600E+02  0.10066570647E+03  0.00000000000E+00 0.  1.
<mgrwt>
<rscale>  0 0.91424157E+02</rscale>
<asrwt>0</asrwt>
<pdfrwt beam="2">  1        2 0.49957675E-01 0.91424157E+02</pdfrwt>
<pdfrwt beam="1">  1       -2 0.98999500E-03 0.91424157E+02</pdfrwt>
<totfact> 0.18368979E+05</totfact>
</mgrwt>
</event>
<event>
 5    1  0.1247456E+001  0.9024402E+02  0.7546771E-02  0.1302262E+00
          1   -1    0    0  501    0  0.00000000000E+00  0.00000000000E+00  0.13636225622E+02  0.13636225622E+02  0.00000000000E+00 0. -1.
         -1   -1    0    0    0  501 -0.00000000000E+00 -0.00000000000E+00 -0.14930788387E+03  0.14930788387E+03  0.00000000000E+00 0.  1.
         23    2    1    2    0    0  0.00000000000E+00  0.00000000000E+00 -0.13567165825E+03  0.16294410950E+03  0.90244024548E+02 0.  0.
        -11    1    3    3    0    0  0.34613416709E+02  0.17823982590E+02 -0.26653508170E+02  0.47182544118E+02  0.00000000000E+00 0. -1.
         11    1    3    3    0    0 -0.34613416709E+02 -0.17823982590E+02 -0.10901815008E+03  0.11576156538E+03  0.00000000000E+00 0.  1.
<mgrwt>
<rscale>  0 0.90244025E+02</rscale>
<asrwt>0</asrwt>
<pdfrwt beam="1">  1        1 0.20978811E-02 0.90244025E+02</pdfrwt>
<pdfrwt beam="2">  1       -1 0.22970441E-01 0.90244025E+02</pdfrwt>
<totfact> 0.76892640E+04</totfact>
</mgrwt>
</event>
<event>
 5    1  0.1247456E+001  0.9245312E+02  0.7546771E-02  0.1297018E+00
          1   -1    0    0  501    0  0.00000000000E+00  0.00000000000E+00  0.26295445087E+02  0.26295445087E+02  0.00000000000E+00 0. -1.
         -1   -1    0    0    0  501 -0.00000000000E+00 -0.00000000000E+00 -0.81264829344E+02  0.81264829344E+02  0.00000000000E+00 0.  1.
         23    2    1    2    0    0  0.00000000000E+00  0.00000000000E+00 -0.54969384257E+02  0.10756027443E+03  0.92453120175E+02 0.  0.
        -11    1    3    3    0    0 -0.15678316929E+02  0.37456871767E+02 -0.53186903632E+02  0.66915421110E+02  0.00000000000E+00 0.  1.
         11    1    3    3    0    0  0.15678316929E+02 -0.37456871767E+02 -0.17824806255E+01  0.40644853321E+02  0.00000000000E+00 0. -1.
<mgrwt>
<rscale>  0 0.92453120E+02</rscale>
<asrwt>0</asrwt>
<pdfrwt beam="1">  1        1 0.40454532E-02 0.92453120E+02</pdfrwt>
<pdfrwt beam="2">  1       -1 0.12502281E-01 0.92453120E+02</pdfrwt>
<totfact> 0.81469646E+04</totfact>
</mgrwt>
</event>
<event>
 5    1  0.1247456E+001  0.9081864E+02  0.7546771E-02  0.1300881E+00
         -2   -1    0    0    0  501 -0.00000000000E+00  0.00000000000E+00  0.10625770736E+02  0.10625770736E+02  0.00000000000E+00 0.  1.
          2   -1    0    0  501    0  0.00000000000E+00 -0.00000000000E+00 -0.19405712533E+03  0.19405712533E+03  0.00000000000E+00 0. -1.
         23    2    1    2    0    0  0.00000000000E+00  0.00000000000E+00 -0.18343135459E+03  0.20468289606E+03  0.90818643976E+02 0.  0.
        -11    1    3    3    0    0 -0.42161433441E+02 -0.13811288241E+02 -0.69903298899E+02  0.82793776032E+02  0.00000000000E+00 0.  1.
         11    1    3    3    0    0  0.42161433441E+02  0.13811288241E+02 -0.11352805569E+03  0.12188912003E+03  0.00000000000E+00 0. -1.
<mgrwt>
<rscale>  0 0.90818644E+02</rscale>
<asrwt>0</asrwt>
<pdfrwt beam="2">  1        2 0.29854938E-01 0.90818644E+02</pdfrwt>
<pdfrwt beam="1">  1       -2 0.16347342E-02 0.90818644E+02</pdfrwt>
<totfact> 0.15463625E+05</totfact>
</mgrwt>
</event>
<event>
 5    1  0.1247456E+001  0.9143855E+02  0.7546771E-02  0.1299405E+00
         -2   -1    0    0    0  501 -0.00000000000E+00  0.00000000000E+00  0.10100919066E+02  0.10100919066E+02  0.00000000000E+00 0.  1.
          2   -1    0    0  501    0  0.00000000000E+00 -0.00000000000E+00 -0.20693681978E+03  0.20693681978E+03  0.00000000000E+00 0. -1.
         23    2    1    2    0    0  0.00000000000E+00  0.00000000000E+00 -0.19683590072E+03  0.21703773885E+03  0.91438549163E+02 0.  0.
        -13    1    3    3    0    0  0.15774977305E+02 -0.41521671195E+02 -0.72704936041E+02  0.85199218380E+02  0.00000000000E+00 0.  1.
         13    1    3    3    0    0 -0.15774977305E+02  0.41521671195E+02 -0.12413096467E+03  0.13183852047E+03  0.00000000000E+00 0. -1.
<mgrwt>
<rscale>  0 0.91438549E+02</rscale>
<asrwt>0</asrwt>
<pdfrwt beam="2">  1        2 0.31836435E-01 0.91438549E+02</pdfrwt>
<pdfrwt beam="1">  1       -2 0.15539875E-02 0.91438549E+02</pdfrwt>
<totfact> 0.15539944E+05</totfact>
</mgrwt>
</event>
<event>
 5    1  0.1247456E+001  0.9081017E+02  0.7546771E-02  0.1300902E+00
          3   -1    0    0  501    0  0.00000000000E+00  0.00000000000E+00  0.20698814156E+02  0.20698814156E+02  0.00000000000E+00 0. -1.
         -3   -1    0    0    0  501 -0.00000000000E+00 -0.00000000000E+00 -0.99600970030E+02  0.99600970030E+02  0.00000000000E+00 0.  1.
         23    2    1    2    0    0  0.00000000000E+00  0.00000000000E+00 -0.78902155874E+02  0.12029978419E+03  0.90810174945E+02 0.  0.
        -11    1    3    3    0    0  0.13513571274E+02 -0.38026244474E+02 -0.11884722945E+02  0.42069686437E+02  0.00000000000E+00 0. -1.
         11    1    3    3    0    0 -0.13513571274E+02  0.38026244474E+02 -0.67017432929E+02  0.78230097749E+02  0.00000000000E+00 0.  1.
<mgrwt>
<rscale>  0 0.90810175E+02</rscale>
<asrwt>0</asrwt>
<pdfrwt beam="1">  1        3 0.31844329E-02 0.90810175E+02</pdfrwt>
<pdfrwt beam="2">  1       -3 0.15323226E-01 0.90810175E+02</pdfrwt>
<totfact> 0.33592911E+04</totfact>
</mgrwt>
</event>
<event>
 5    1  0.1247456E+001  0.8833070E+02  0.7546771E-02  0.1306945E+00
          1   -1    0    0  501    0  0.00000000000E+00  0.00000000000E+00  0.33859850081E+02  0.33859850081E+02  0.00000000000E+00 0. -1.
         -1   -1    0    0    0  501 -0.00000000000E+00 -0.00000000000E+00 -0.57607408466E+02  0.57607408466E+02  0.00000000000E+00 0.  1.
         23    2    1    2    0    0  0.00000000000E+00  0.00000000000E+00 -0.23747558385E+02  0.91467258547E+02  0.88330701667E+02 0.  0.
        -13    1    3    3    0    0 -0.31267446285E+02  0.30367455536E+02 -0.19250113695E+02  0.47648740069E+02  0.00000000000E+00 0.  1.
         13    1    3    3    0    0  0.31267446285E+02 -0.30367455536E+02 -0.44974446898E+01  0.43818518478E+02  0.00000000000E+00 0. -1.
<mgrwt>
<rscale>  0 0.88330702E+02</rscale>
<asrwt>0</asrwt>
<pdfrwt beam="1">  1        1 0.52092077E-02 0.88330702E+02</pdfrwt>
<pdfrwt beam="2">  1       -1 0.88626781E-02 0.88330702E+02</pdfrwt>
<totfact> 0.96694011E+04</totfact>
</mgrwt>
</event>
<event>
 5    1  0.1247456E+001  0.8912191E+02  0.7546771E-02  0.1304992E+00
          3   -1    0    0  501    0  0.00000000000E+00  0.00000000000E+00  0.13124549117E+03  0.13124549117E+03  0.00000000000E+00 0. -1.
         -3   -1    0    0    0  501 -0.00000000000E+00 -0.00000000000E+00 -0.15129500414E+02  0.15129500414E+02  0.00000000000E+00 0.  1.
         23    2    1    2    0    0  0.00000000000E+00  0.00000000000E+00  0.11611599075E+03  0.14637499158E+03  0.89121910057E+02 0.  0.
        -13    1    3    3    0    0 -0.33623968745E+02 -0.20402129987E+02  0.23651086327E+02  0.45893268206E+02  0.00000000000E+00 0.  1.
         13    1    3    3    0    0  0.33623968745E+02  0.20402129987E+02  0.92464904428E+02  0.10048172338E+03  0.00000000000E+00 0. -1.
<mgrwt>
<rscale>  0 0.89121910E+02</rscale>
<asrwt>0</asrwt>
<pdfrwt beam="1">  1        3 0.20191613E-01 0.89121910E+02</pdfrwt>
<pdfrwt beam="2">  1       -3 0.23276155E-02 0.89121910E+02</pdfrwt>
<totfact> 0.33532883E+04</totfact>
</mgrwt>
</event>
<event>
 5    1  0.1247456E+001  0.9442614E+02  0.7546771E-02  0.1292474E+00
         -1   -1    0    0    0  501 -0.00000000000E+00  0.00000000000E+00  0.13873151944E+02  0.13873151944E+02  0.00000000000E+00 0.  1.
          1   -1    0    0  501    0  0.00000000000E+00 -0.00000000000E+00 -0.16067538134E+03  0.16067538134E+03  0.00000000000E+00 0. -1.
         23    2    1    2    0    0  0.00000000000E+00  0.00000000000E+00 -0.14680222939E+03  0.17454853328E+03  0.94426140001E+02 0.  0.
        -13    1    3    3    0    0 -0.23234521990E+02 -0.40334305359E+02 -0.88000295042E+02  0.99552755503E+02  0.00000000000E+00 0.  1.
         13    1    3    3    0    0  0.23234521990E+02  0.40334305359E+02 -0.58801934351E+02  0.74995777777E+02  0.00000000000E+00 0. -1.
<mgrwt>
<rscale>  0 0.94426140E+02</rscale>
<asrwt>0</asrwt>
<pdfrwt beam="2">  1        1 0.24719290E-01 0.94426140E+02</pdfrwt>
<pdfrwt beam="1">  1       -1 0.21343310E-02 0.94426140E+02</pdfrwt>
<totfact> 0.10331918E+05</totfact>
</mgrwt>
</event>
<event>
 5    1  0.1247456E+001  0.9180412E+02  0.7546771E-02  0.1298541E+00
         -2   -1    0    0    0  501 -0.00000000000E+00  0.00000000000E+00  0.13716668179E+03  0.13716668179E+03  0.00000000000E+00 0.  1.
          2   -1    0    0  501    0  0.00000000000E+00 -0.00000000000E+00 -0.15360865044E+02  0.15360865044E+02  0.00000000000E+00 0. -1.
         23    2    1    2    0    0  0.00000000000E+00  0.00000000000E+00  0.12180581674E+03  0.15252754683E+03  0.91804115105E+02 0.  0.
        -11    1    3    3    0    0  0.54596672707E+01 -0.27240269426E+02  0.19397924933E+00  0.27782690169E+02  0.00000000000E+00 0. -1.
         11    1    3    3    0    0 -0.54596672707E+01  0.27240269426E+02  0.12161183750E+03  0.12474485666E+03  0.00000000000E+00 0.  1.
<mgrwt>
<rscale>  0 0.91804115E+02</rscale>
<asrwt>0</asrwt>
<pdfrwt beam="2">  1        2 0.23632101E-02 0.91804115E+02</pdfrwt>
<pdfrwt beam="1">  1       -2 0.21102566E-01 0.91804115E+02</pdfrwt>
<totfact> 0.70874019E+04</totfact>
</mgrwt>
</event>
<event>
 5    1  0.1247456E+001  0.9277640E+02  0.7546771E-02  0.1296264E+00
          1   -1    0    0  501    0  0.00000000000E+00  0.00000000000E+00  0.11114911744E+03  0.11114911744E+03  0.00000000000E+00 0. -1.
         -1   -1    0    0    0  501 -0.00000000000E+00 -0.00000000000E+00 -0.19360162392E+02  0.19360162392E+02  0.00000000000E+00 0.  1.
         23    2    1    2    0    0  0.00000000000E+00  0.00000000000E+00  0.91788955046E+02  0.13050927983E+03  0.92776397069E+02 0.  0.
        -11    1    3    3    0    0  0.35651310383E+02 -0.36144664753E+01  0.44554194153E+01  0.36109985628E+02  0.00000000000E+00 0.  1.
         11    1    3    3    0    0 -0.35651310383E+02  0.36144664753E+01  0.87333535631E+02  0.94399294201E+02  0.00000000000E+00 0. -1.
<mgrwt>
<rscale>  0 0.92776397E+02</rscale>
<asrwt>0</asrwt>
<pdfrwt beam="1">  1        1 0.17099864E-01 0.92776397E+02</pdfrwt>
<pdfrwt beam="2">  1       -1 0.29784866E-02 0.92776397E+02</pdfrwt>
<totfact> 0.10140923E+05</totfact>
</mgrwt>
</event>
<event>
 5    1  0.1247456E+001  0.9200257E+02  0.7546771E-02  0.1298073E+00
         -4   -1    0    0    0  501 -0.00000000000E+00  0.00000000000E+00  0.42682784557E+02  0.42682784557E+02  0.00000000000E+00 0.  1.
          4   -1    0    0  501    0  0.00000000000E+00 -0.00000000000E+00 -0.49577791055E+02  0.49577791055E+02  0.00000000000E+00 0. -1.
         23    2    1    2    0    0  0.00000000000E+00  0.00000000000E+00 -0.68950064986E+01  0.92260575612E+02  0.92002568973E+02 0.  0.
        -11    1    3    3    0    0 -0.28950652398E+02 -0.35634086082E+02 -0.63173129406E+01  0.46344760308E+02  0.00000000000E+00 0. -1.
         11    1    3    3    0    0  0.28950652398E+02  0.35634086082E+02 -0.57769355797E+00  0.45915815304E+02  0.00000000000E+00 0.  1.
<mgrwt>
<rscale>  0 0.92002569E+02</rscale>
<asrwt>0</asrwt>
<pdfrwt beam="2">  1        4 0.76273525E-02 0.92002569E+02</pdfrwt>
<pdfrwt beam="1">  1       -4 0.65665822E-02 0.92002569E+02</pdfrwt>
<totfact> 0.26293552E+04</totfact>
</mgrwt>
</event>
<event>
 5    1  0.1247456E+001  0.8999241E+02  0.7546771E-02  0.1302870E+00
          1   -1    0    0  501    0  0.00000000000E+00  0.00000000000E+00  0.13143422952E+03  0.13143422952E+03  0.00000000000E+00 0. -1.
         -1   -1    0    0    0  501 -0.00000000000E+00 -0.00000000000E+00 -0.15404347942E+02  0.15404347942E+02  0.00000000000E+00 0.  1.
         23    2    1    2    0    0  0.00000000000E+00  0.00000000000E+00  0.11602988158E+03  0.14683857746E+03  0.89992413080E+02 0.  0.
        -13    1    3    3    0    0 -0.43396802465E+02  0.10829743379E+01  0.38694661618E+02  0.58152662323E+02  0.00000000000E+00 0.  1.
         13    1    3    3    0    0  0.43396802465E+02 -0.10829743379E+01  0.77335219963E+02  0.88685915141E+02  0.00000000000E+00 0. -1.
<mgrwt>
<rscale>  0 0.89992413E+02</rscale>
<asrwt>0</asrwt>
<pdfrwt beam="1">  1        1 0.20220650E-01 0.89992413E+02</pdfrwt>
<pdfrwt beam="2">  1       -1 0.23698998E-02 0.89992413E+02</pdfrwt>
<totfact> 0.11341806E+05</totfact>
</mgrwt>
</event>
<event>
 5    1  0.1247456E+001  0.9283442E+02  0.7546771E-02  0.1296129E+00
         -1   -1    0    0    0  501 -0.00000000000E+00  0.00000000000E+00  0.15970624117E+02  0.15970624117E+02  0.00000000000E+00 0.  1.
          1   -1    0    0  501    0  0.00000000000E+00 -0.00000000000E+00 -0.13490751257E+03  0.13490751257E+03  0.00000000000E+00 0. -1.
         23    2    1    2    0    0  0.00000000000E+00  0.00000000000E+00 -0.11893688845E+03  0.15087813669E+03  0.92834415469E+02 0.  0.
        -11    1    3    3    0    0 -0.41172428257E+01 -0.25895938073E+02  0.27806779602E+01  0.26368228364E+02  0.00000000000E+00 0.  1.
         11    1    3    3    0    0  0.41172428257E+01  0.25895938073E+02 -0.12171756641E+03  0.12450990832E+03  0.00000000000E+00 0. -1.
<mgrwt>
<rscale>  0 0.92834415E+02</rscale>
<asrwt>0</asrwt>
<pdfrwt beam="2">  1        1 0.20755002E-01 0.92834415E+02</pdfrwt>
<pdfrwt beam="1">  1       -1 0.24570190E-02 0.92834415E+02</pdfrwt>
<totfact> 0.10475235E+05</totfact>
</mgrwt>
</event>
<event>
 5    1  0.1247456E+001  0.8737273E+02  0.7546771E-02  0.1309342E+00
         -3   -1    0    0    0  501 -0.00000000000E+00  0.00000000000E+00  0.11859971081E+03  0.11859971081E+03  0.00000000000E+00 0.  1.
          3   -1    0    0  501    0  0.00000000000E+00 -0.00000000000E+00 -0.16091930921E+02  0.16091930921E+02  0.00000000000E+00 0. -1.
         23    2    1    2    0    0  0.00000000000E+00  0.00000000000E+00  0.10250777989E+03  0.13469164173E+03  0.87372726947E+02 0.  0.
        -13    1    3    3    0    0 -0.41256839640E+02  0.13737050257E+02  0.44774689537E+02  0.62414791436E+02  0.00000000000E+00 0. -1.
         13    1    3    3    0    0  0.41256839640E+02 -0.13737050257E+02  0.57733090350E+02  0.72276850293E+02  0.00000000000E+00 0.  1.
<mgrwt>
<rscale>  0 0.87372727E+02</rscale>
<asrwt>0</asrwt>
<pdfrwt beam="2">  1        3 0.24756818E-02 0.87372727E+02</pdfrwt>
<pdfrwt beam="1">  1       -3 0.18246109E-01 0.87372727E+02</pdfrwt>
<totfact> 0.36208558E+04</totfact>
</mgrwt>
</event>
<event>
 5    1  0.1247456E+001  0.9534848E+02  0.7546771E-02  0.1290393E+00
          2   -1    0    0  501    0  0.00000000000E+00  0.00000000000E+00  0.82120136703E+02  0.82120136703E+02  0.00000000000E+00 0. -1.
         -2   -1    0    0    0  501 -0.00000000000E+00 -0.00000000000E+00 -0.27676926053E+02  0.27676926053E+02  0.00000000000E+00 0.  1.
         23    2    1    2    0    0  0.00000000000E+00  0.00000000000E+00  0.54443210649E+02  0.10979706276E+03  0.95348475625E+02 0.  0.
        -13    1    3    3    0    0  0.78340956705E+01  0.44949654703E+02  0.11307563079E+02  0.47007504674E+02  0.00000000000E+00 0.  1.
         13    1    3    3    0    0 -0.78340956705E+01 -0.44949654703E+02  0.43135647570E+02  0.62789558082E+02  0.00000000000E+00 0. -1.
<mgrwt>
<rscale>  0 0.95348476E+02</rscale>
<asrwt>0</asrwt>
<pdfrwt beam="1">  1        2 0.12633867E-01 0.95348476E+02</pdfrwt>
<pdfrwt beam="2">  1       -2 0.42579887E-02 0.95348476E+02</pdfrwt>
<totfact> 0.10215044E+05</totfact>
</mgrwt>
</event>
<event>
 5    1  0.1247456E+001  0.8966244E+02  0.7546771E-02  0.1303671E+00
          1   -1    0    0  501    0  0.00000000000E+00  0.00000000000E+00  0.13368117034E+03  0.13368117034E+03  0.00000000000E+00 0. -1.
         -1   -1    0    0    0  501 -0.00000000000E+00 -0.00000000000E+00 -0.15034564410E+02  0.15034564410E+02  0.00000000000E+00 0.  1.
         23    2    1    2    0    0  0.00000000000E+00  0.00000000000E+00  0.11864660593E+03  0.14871573475E+03  0.89662437304E+02 0.  0.
        -11    1    3    3    0    0 -0.22950532533E+02 -0.38341942932E+02  0.65305061096E+02  0.79130161987E+02  0.00000000000E+00 0.  1.
         11    1    3    3    0    0  0.22950532533E+02  0.38341942932E+02  0.53341544832E+02  0.69585572760E+02  0.00000000000E+00 0. -1.
<mgrwt>
<rscale>  0 0.89662437E+02</rscale>
<asrwt>0</asrwt>
<pdfrwt beam="1">  1        1 0.20566333E-01 0.89662437E+02</pdfrwt>
<pdfrwt beam="2">  1       -1 0.23130100E-02 0.89662437E+02</pdfrwt>
<totfact> 0.11489354E+05</totfact>
</mgrwt>
</event>
<event>
 5    1  0.1247456E+001  0.8618373E+02  0.7546771E-02  0.1312366E+00
         -1   -1    0    0    0  501 -0.00000000000E+00  0.00000000000E+00  0.57782943953E+02  0.57782943953E+02  0.00000000000E+00 0.  1.
          1   -1    0    0  501    0  0.00000000000E+00 -0.00000000000E+00 -0.32135931767E+02  0.32135931767E+02  0.00000000000E+00 0. -1.
         23    2    1    2    0    0  0.00000000000E+00  0.00000000000E+00  0.25647012186E+02  0.89918875720E+02  0.86183728027E+02 0.  0.
        -11    1    3    3    0    0  0.16950978043E+02 -0.10153089168E+02 -0.27130913766E+02  0.33563482508E+02  0.00000000000E+00 0. -1.
         11    1    3    3    0    0 -0.16950978043E+02  0.10153089168E+02  0.52777925952E+02  0.56355393212E+02  0.00000000000E+00 0.  1.
<mgrwt>
<rscale>  0 0.86183728E+02</rscale>
<asrwt>0</asrwt>
<pdfrwt beam="2">  1        1 0.49439895E-02 0.86183728E+02</pdfrwt>
<pdfrwt beam="1">  1       -1 0.88896837E-02 0.86183728E+02</pdfrwt>
<totfact> 0.10285509E+05</totfact>
</mgrwt>
</event>
<event>
 5    1  0.1247456E+001  0.9291988E+02  0.7546771E-02  0.1295931E+00
          1   -1    0    0  501    0  0.00000000000E+00  0.00000000000E+00  0.16989577260E+02  0.16989577260E+02  0.00000000000E+00 0. -1.
         -1   -1    0    0    0  501 -0.00000000000E+00 -0.00000000000E+00 -0.12705000566E+03  0.12705000566E+03  0.00000000000E+00 0.  1.
         23    2    1    2    0    0  0.00000000000E+00  0.00000000000E+00 -0.11006042840E+03  0.14403958292E+03  0.92919877034E+02 0.  0.
        -11    1    3    3    0    0  0.71436669658E+01 -0.45482562461E+02 -0.45370611148E+02  0.64638903314E+02  0.00000000000E+00 0. -1.
         11    1    3    3    0    0 -0.71436669658E+01  0.45482562461E+02 -0.64689817252E+02  0.79400679605E+02  0.00000000000E+00 0.  1.
<mgrwt>
<rscale>  0 0.92919877E+02</rscale>
<asrwt>0</asrwt>
<pdfrwt beam="1">  1        1 0.26137812E-02 0.92919877E+02</pdfrwt>
<pdfrwt beam="2">  1       -1 0.19546154E-01 0.92919877E+02</pdfrwt>
<totfact> 0.73886940E+04</totfact>
</mgrwt>
</event>
<event>
 5    1  0.1247456E+001  0.9164466E+02  0.7546771E-02  0.1298917E+00
          3   -1    0    0  501    0  0.00000000000E+00  0.00000000000E+00  0.59167379644E+01  0.59167379644E+01  0.00000000000E+00 0. -1.
         -3   -1    0    0    0  501 -0.00000000000E+00 -0.00000000000E+00 -0.35487218748E+03  0.35487218748E+03  0.00000000000E+00 0.  1.
         23    2    1    2    0    0  0.00000000000E+00  0.00000000000E+00 -0.34895544951E+03  0.36078892544E+03  0.91644656018E+02 0.  0.
        -13    1    3    3    0    0  0.20462082973E+02 -0.40999858162E+02 -0.17456880678E+03  0.18048255736E+03  0.00000000000E+00 0.  1.
         13    1    3    3    0    0 -0.20462082973E+02  0.40999858162E+02 -0.17438664273E+03  0.18030636809E+03  0.00000000000E+00 0. -1.
<mgrwt>
<rscale>  0 0.91644656E+02</rscale>
<asrwt>0</asrwt>
<pdfrwt beam="1">  1        3 0.91026667E-03 0.91644656E+02</pdfrwt>
<pdfrwt beam="2">  1       -3 0.54595764E-01 0.91644656E+02</pdfrwt>
<totfact> 0.21545242E+04</totfact>
</mgrwt>
</event>
<event>
 5    1  0.1247456E+001  0.9381101E+02  0.7546771E-02  0.1293877E+00
         -1   -1    0    0    0  501 -0.00000000000E+00  0.00000000000E+00  0.17640672686E+03  0.17640672686E+03  0.00000000000E+00 0.  1.
          1   -1    0    0  501    0  0.00000000000E+00 -0.00000000000E+00 -0.12471894949E+02  0.12471894949E+02  0.00000000000E+00 0. -1.
         23    2    1    2    0    0  0.00000000000E+00  0.00000000000E+00  0.16393483191E+03  0.18887862181E+03  0.93811005021E+02 0.  0.
        -13    1    3    3    0    0  0.20466430088E+02  0.41699902113E+02  0.68861842187E+02  0.83064492451E+02  0.00000000000E+00 0. -1.
         13    1    3    3    0    0 -0.20466430088E+02 -0.41699902113E+02  0.95072989728E+02  0.10581412936E+03  0.00000000000E+00 0.  1.
<mgrwt>
<rscale>  0 0.93811005E+02</rscale>
<asrwt>0</asrwt>
<pdfrwt beam="2">  1        1 0.19187532E-02 0.93811005E+02</pdfrwt>
<pdfrwt beam="1">  1       -1 0.27139495E-01 0.93811005E+02</pdfrwt>
<totfact> 0.66711300E+04</totfact>
</mgrwt>
</event>
<event>
 5    1  0.1247456E+001  0.8835648E+02  0.7546771E-02  0.1306881E+00
          1   -1    0    0  501    0  0.00000000000E+00  0.00000000000E+00  0.25436893940E+02  0.25436893940E+02  0.00000000000E+00 0.  1.
         -1   -1    0    0    0  501 -0.00000000000E+00 -0.00000000000E+00 -0.76727802284E+02  0.76727802284E+02  0.00000000000E+00 0. -1.
         23    2    1    2    0    0  0.00000000000E+00  0.00000000000E+00 -0.51290908344E+02  0.10216469622E+03  0.88356481798E+02 0.  0.
        -13    1    3    3    0    0  0.42476558608E+00 -0.22773290400E+02 -0.69415042717E+02  0.73056494145E+02  0.00000000000E+00 0. -1.
         13    1    3    3    0    0 -0.42476558608E+00  0.22773290400E+02  0.18124134373E+02  0.29108202078E+02  0.00000000000E+00 0.  1.
<mgrwt>
<rscale>  0 0.88356482E+02</rscale>
<asrwt>0</asrwt>
<pdfrwt beam="1">  1        1 0.39133684E-02 0.88356482E+02</pdfrwt>
<pdfrwt beam="2">  1       -1 0.11804277E-01 0.88356482E+02</pdfrwt>
<totfact> 0.92367482E+04</totfact>
</mgrwt>
</event>
<event>
 5    1  0.1247456E+001  0.9069783E+02  0.7546771E-02  0.1301171E+00
         -1   -1    0    0    0  501 -0.00000000000E+00  0.00000000000E+00  0.15954730661E+02  0.15954730661E+02  0.00000000000E+00 0.  1.
          1   -1    0    0  501    0  0.00000000000E+00 -0.00000000000E+00 -0.12889745592E+03  0.12889745592E+03  0.00000000000E+00 0. -1.
         23    2    1    2    0    0  0.00000000000E+00  0.00000000000E+00 -0.11294272526E+03  0.14485218658E+03  0.90697832214E+02 0.  0.
        -13    1    3    3    0    0 -0.44686118455E+02 -0.42282525619E+01 -0.46146123196E+02  0.64375398937E+02  0.00000000000E+00 0.  1.
         13    1    3    3    0    0  0.44686118455E+02  0.42282525619E+01 -0.66796602066E+02  0.80476787646E+02  0.00000000000E+00 0. -1.
<mgrwt>
<rscale>  0 0.90697832E+02</rscale>
<asrwt>0</asrwt>
<pdfrwt beam="2">  1        1 0.19830378E-01 0.90697832E+02</pdfrwt>
<pdfrwt beam="1">  1       -1 0.24545740E-02 0.90697832E+02</pdfrwt>
<totfact> 0.11066784E+05</totfact>
</mgrwt>
</event>
<event>
 5    1  0.1247456E+001  0.9175158E+02  0.7546771E-02  0.1298665E+00
         -1   -1    0    0    0  501 -0.00000000000E+00  0.00000000000E+00  0.21884119616E+03  0.21884119616E+03  0.00000000000E+00 0.  1.
          1   -1    0    0  501    0  0.00000000000E+00 -0.00000000000E+00 -0.96169641148E+01  0.96169641148E+01  0.00000000000E+00 0. -1.
         23    2    1    2    0    0  0.00000000000E+00  0.00000000000E+00  0.20922423205E+03  0.22845816028E+03  0.91751576125E+02 0.  0.
        -13    1    3    3    0    0  0.13684583277E+02  0.43609722869E+02  0.11441896732E+03  0.12321029109E+03  0.00000000000E+00 0.  1.
         13    1    3    3    0    0 -0.13684583277E+02 -0.43609722869E+02  0.94805264734E+02  0.10524786919E+03  0.00000000000E+00 0. -1.
<mgrwt>
<rscale>  0 0.91751576E+02</rscale>
<asrwt>0</asrwt>
<pdfrwt beam="2">  1        1 0.14795331E-02 0.91751576E+02</pdfrwt>
<pdfrwt beam="1">  1       -1 0.33667873E-01 0.91751576E+02</pdfrwt>
<totfact> 0.66500559E+04</totfact>
</mgrwt>
</event>
<event>
 5    1  0.1247456E+001  0.9651807E+02  0.7546771E-02  0.1287793E+00
          4   -1    0    0  501    0  0.00000000000E+00  0.00000000000E+00  0.73032254058E+02  0.73032254058E+02  0.00000000000E+00 0. -1.
         -4   -1    0    0    0  501 -0.00000000000E+00 -0.00000000000E+00 -0.31889118731E+02  0.31889118731E+02  0.00000000000E+00 0.  1.
         23    2    1    2    0    0  0.00000000000E+00  0.00000000000E+00  0.41143135327E+02  0.10492137279E+03  0.96518065062E+02 0.  0.
        -13    1    3    3    0    0  0.20216355822E+02 -0.40900832584E+02  0.34747308122E+01  0.45756452037E+02  0.00000000000E+00 0.  1.
         13    1    3    3    0    0 -0.20216355822E+02  0.40900832584E+02  0.37668404515E+02  0.59164920751E+02  0.00000000000E+00 0. -1.
<mgrwt>
<rscale>  0 0.96518065E+02</rscale>
<asrwt>0</asrwt>
<pdfrwt beam="1">  1        4 0.11235731E-01 0.96518065E+02</pdfrwt>
<pdfrwt beam="2">  1       -4 0.49060183E-02 0.96518065E+02</pdfrwt>
<totfact> 0.22400348E+04</totfact>
</mgrwt>
</event>
<event>
 5    1  0.1247456E+001  0.7948024E+02  0.7546771E-02  0.1330533E+00
          1   -1    0    0  501    0  0.00000000000E+00  0.00000000000E+00  0.44402661735E+02  0.44402661735E+02  0.00000000000E+00 0. -1.
         -1   -1    0    0    0  501 -0.00000000000E+00 -0.00000000000E+00 -0.35567170786E+02  0.35567170786E+02  0.00000000000E+00 0.  1.
         23    2    1    2    0    0  0.00000000000E+00  0.00000000000E+00  0.88354909491E+01  0.79969832521E+02  0.79480237878E+02 0.  0.
        -11    1    3    3    0    0 -0.32444983403E+02  0.22890990605E+02  0.60409576007E+01  0.40164257339E+02  0.00000000000E+00 0.  1.
         11    1    3    3    0    0  0.32444983403E+02 -0.22890990605E+02  0.27945333485E+01  0.39805575181E+02  0.00000000000E+00 0. -1.
<mgrwt>
<rscale>  0 0.79480238E+02</rscale>
<asrwt>0</asrwt>
<pdfrwt beam="1">  1        1 0.68311787E-02 0.79480238E+02</pdfrwt>
<pdfrwt beam="2">  1       -1 0.54718724E-02 0.79480238E+02</pdfrwt>
<totfact> 0.13486626E+05</totfact>
</mgrwt>
</event>
<event>
 5    1  0.1247456E+001  0.8906939E+02  0.7546771E-02  0.1305121E+00
         -1   -1    0    0    0  501 -0.00000000000E+00  0.00000000000E+00  0.12205668407E+02  0.12205668407E+02  0.00000000000E+00 0.  1.
          1   -1    0    0  501    0  0.00000000000E+00 -0.00000000000E+00 -0.16249328093E+03  0.16249328093E+03  0.00000000000E+00 0. -1.
         23    2    1    2    0    0  0.00000000000E+00  0.00000000000E+00 -0.15028761252E+03  0.17469894933E+03  0.89069391046E+02 0.  0.
        -13    1    3    3    0    0  0.31694811862E+02  0.25526382566E+02 -0.39666030999E+02  0.56829141477E+02  0.00000000000E+00 0. -1.
         13    1    3    3    0    0 -0.31694811862E+02 -0.25526382566E+02 -0.11062158152E+03  0.11786980786E+03  0.00000000000E+00 0.  1.
<mgrwt>
<rscale>  0 0.89069391E+02</rscale>
<asrwt>0</asrwt>
<pdfrwt beam="2">  1        1 0.24998965E-01 0.89069391E+02</pdfrwt>
<pdfrwt beam="1">  1       -1 0.18777953E-02 0.89069391E+02</pdfrwt>
<totfact> 0.12118902E+05</totfact>
</mgrwt>
</event>
<event>
 5    1  0.1247456E+001  0.8014053E+02  0.7546771E-02  0.1328653E+00
         -4   -1    0    0    0  501 -0.00000000000E+00  0.00000000000E+00  0.23475752980E+03  0.23475752980E+03  0.00000000000E+00 0. -1.
          4   -1    0    0  501    0  0.00000000000E+00 -0.00000000000E+00 -0.68395082494E+01  0.68395082494E+01  0.00000000000E+00 0.  1.
         23    2    1    2    0    0  0.00000000000E+00  0.00000000000E+00  0.22791802155E+03  0.24159703805E+03  0.80140528116E+02 0.  0.
        -11    1    3    3    0    0 -0.21796825237E+01  0.38369610812E+02  0.14815230514E+03  0.15305581847E+03  0.00000000000E+00 0.  1.
         11    1    3    3    0    0  0.21796825237E+01 -0.38369610812E+02  0.79765716408E+02  0.88541219575E+02  0.00000000000E+00 0. -1.
<mgrwt>
<rscale>  0 0.80140528E+02</rscale>
<asrwt>0</asrwt>
<pdfrwt beam="2">  1        4 0.10522322E-02 0.80140528E+02</pdfrwt>
<pdfrwt beam="1">  1       -4 0.36116537E-01 0.80140528E+02</pdfrwt>
<totfact> 0.27792038E+04</totfact>
</mgrwt>
</event>
<event>
 5    1  0.1247456E+001  0.8819610E+02  0.7546771E-02  0.1307280E+00
         -2   -1    0    0    0  501 -0.00000000000E+00  0.00000000000E+00  0.39946481585E+02  0.39946481585E+02  0.00000000000E+00 0.  1.
          2   -1    0    0  501    0  0.00000000000E+00 -0.00000000000E+00 -0.48681081605E+02  0.48681081605E+02  0.00000000000E+00 0. -1.
         23    2    1    2    0    0  0.00000000000E+00  0.00000000000E+00 -0.87346000200E+01  0.88627563191E+02  0.88196098097E+02 0.  0.
        -13    1    3    3    0    0  0.40667041279E+02  0.17051955310E+02 -0.46144781594E+01  0.44338141988E+02  0.00000000000E+00 0.  1.
         13    1    3    3    0    0 -0.40667041279E+02 -0.17051955310E+02 -0.41201218606E+01  0.44289421202E+02  0.00000000000E+00 0. -1.
<mgrwt>
<rscale>  0 0.88196098E+02</rscale>
<asrwt>0</asrwt>
<pdfrwt beam="2">  1        2 0.74893972E-02 0.88196098E+02</pdfrwt>
<pdfrwt beam="1">  1       -2 0.61456126E-02 0.88196098E+02</pdfrwt>
<totfact> 0.11033077E+05</totfact>
</mgrwt>
</event>
<event>
 5    1  0.1247456E+001  0.9320106E+02  0.7546771E-02  0.1295280E+00
         -1   -1    0    0    0  501 -0.00000000000E+00  0.00000000000E+00  0.16817567792E+02  0.16817567792E+02  0.00000000000E+00 0. -1.
          1   -1    0    0  501    0  0.00000000000E+00 -0.00000000000E+00 -0.12912744186E+03  0.12912744186E+03  0.00000000000E+00 0.  1.
         23    2    1    2    0    0  0.00000000000E+00  0.00000000000E+00 -0.11230987407E+03  0.14594500965E+03  0.93201062384E+02 0.  0.
        -13    1    3    3    0    0  0.44212310472E+02 -0.14209675263E+02 -0.50097000410E+02  0.68310707202E+02  0.00000000000E+00 0.  1.
         13    1    3    3    0    0 -0.44212310472E+02  0.14209675263E+02 -0.62212873659E+02  0.77634302453E+02  0.00000000000E+00 0. -1.
<mgrwt>
<rscale>  0 0.93201062E+02</rscale>
<asrwt>0</asrwt>
<pdfrwt beam="2">  1        1 0.19865761E-01 0.93201062E+02</pdfrwt>
<pdfrwt beam="1">  1       -1 0.25873181E-02 0.93201062E+02</pdfrwt>
<totfact> 0.10282457E+05</totfact>
</mgrwt>
</event>
<event>
 5    1  0.1247456E+001  0.1016767E+03  0.7546771E-02  0.1276809E+00
         -1   -1    0    0    0  501 -0.00000000000E+00  0.00000000000E+00  0.22672440021E+02  0.22672440021E+02  0.00000000000E+00 0.  1.
          1   -1    0    0  501    0  0.00000000000E+00 -0.00000000000E+00 -0.11399473611E+03  0.11399473611E+03  0.00000000000E+00 0. -1.
         23    2    1    2    0    0  0.00000000000E+00  0.00000000000E+00 -0.91322296094E+02  0.13666717614E+03  0.10167671941E+03 0.  0.
        -13    1    3    3    0    0  0.13348992695E+01 -0.48424700906E+02 -0.66388955810E+02  0.82184104713E+02  0.00000000000E+00 0. -1.
         13    1    3    3    0    0 -0.13348992695E+01  0.48424700906E+02 -0.24933340284E+02  0.54483071423E+02  0.00000000000E+00 0.  1.
<mgrwt>
<rscale>  0 0.10167672E+03</rscale>
<asrwt>0</asrwt>
<pdfrwt beam="2">  1        1 0.17537652E-01 0.10167672E+03</pdfrwt>
<pdfrwt beam="1">  1       -1 0.34880676E-02 0.10167672E+03</pdfrwt>
<totfact> 0.79246753E+04</totfact>
</mgrwt>
</event>
<event>
 5    1  0.1247456E+001  0.8954646E+02  0.7546771E-02  0.1303954E+00
         -4   -1    0    0    0  501 -0.00000000000E+00  0.00000000000E+00  0.43674978595E+02  0.43674978595E+02  0.00000000000E+00 0.  1.
          4   -1    0    0  501    0  0.00000000000E+00 -0.00000000000E+00 -0.45899094899E+02  0.45899094899E+02  0.00000000000E+00 0. -1.
         23    2    1    2    0    0  0.00000000000E+00  0.00000000000E+00 -0.22241163049E+01  0.89574073494E+02  0.89546456931E+02 0.  0.
        -11    1    3    3    0    0 -0.30823961331E+02 -0.18440217827E+02  0.25626014516E+02  0.44123132773E+02  0.00000000000E+00 0.  1.
         11    1    3    3    0    0  0.30823961331E+02  0.18440217827E+02 -0.27850130821E+02  0.45450940721E+02  0.00000000000E+00 0. -1.
<mgrwt>
<rscale>  0 0.89546457E+02</rscale>
<asrwt>0</asrwt>
<pdfrwt beam="2">  1        4 0.70613993E-02 0.89546457E+02</pdfrwt>
<pdfrwt beam="1">  1       -4 0.67192274E-02 0.89546457E+02</pdfrwt>
<totfact> 0.28477739E+04</totfact>
</mgrwt>
</event>
<event>
 5    1  0.1247456E+001  0.9563295E+02  0.7546771E-02  0.1289757E+00
         -1   -1    0    0    0  501 -0.00000000000E+00  0.00000000000E+00  0.56784371336E+02  0.56784371336E+02  0.00000000000E+00 0.  1.
          1   -1    0    0  501    0  0.00000000000E+00 -0.00000000000E+00 -0.40264867951E+02  0.40264867951E+02  0.00000000000E+00 0. -1.
         23    2    1    2    0    0  0.00000000000E+00  0.00000000000E+00  0.16519503385E+02  0.97049239287E+02  0.95632948580E+02 0.  0.
        -11    1    3    3    0    0 -0.40054722118E+01  0.38060115951E+02  0.37351336997E+02  0.53476523908E+02  0.00000000000E+00 0. -1.
         11    1    3    3    0    0  0.40054722118E+01 -0.38060115951E+02 -0.20831833612E+02  0.43572715379E+02  0.00000000000E+00 0.  1.
<mgrwt>
<rscale>  0 0.95632949E+02</rscale>
<asrwt>0</asrwt>
<pdfrwt beam="2">  1        1 0.61945951E-02 0.95632949E+02</pdfrwt>
<pdfrwt beam="1">  1       -1 0.87360571E-02 0.95632949E+02</pdfrwt>
<totfact> 0.79260840E+04</totfact>
</mgrwt>
</event>
<event>
 5    1  0.1247456E+001  0.1003281E+03  0.7546771E-02  0.1279608E+00
         -3   -1    0    0    0  501 -0.00000000000E+00  0.00000000000E+00  0.10989643288E+02  0.10989643288E+02  0.00000000000E+00 0.  1.
          3   -1    0    0  501    0  0.00000000000E+00 -0.00000000000E+00 -0.22898190545E+03  0.22898190545E+03  0.00000000000E+00 0. -1.
         23    2    1    2    0    0  0.00000000000E+00  0.00000000000E+00 -0.21799226216E+03  0.23997154874E+03  0.10032805112E+03 0.  0.
        -11    1    3    3    0    0  0.36861938905E+02  0.92659481964E+01 -0.30691400593E+02  0.48853069567E+02  0.00000000000E+00 0.  1.
         11    1    3    3    0    0 -0.36861938905E+02 -0.92659481964E+01 -0.18730086157E+03  0.19111847917E+03  0.00000000000E+00 0. -1.
<mgrwt>
<rscale>  0 0.10032805E+03</rscale>
<asrwt>0</asrwt>
<pdfrwt beam="2">  1        3 0.35227985E-01 0.10032805E+03</pdfrwt>
<pdfrwt beam="1">  1       -3 0.16907144E-02 0.10032805E+03</pdfrwt>
<totfact> 0.20493488E+04</totfact>
</mgrwt>
</event>
<event>
 5    1  0.1247456E+001  0.9127802E+02  0.7546771E-02  0.1299786E+00
         -2   -1    0    0    0  501 -0.00000000000E+00  0.00000000000E+00  0.82387450650E+01  0.82387450650E+01  0.00000000000E+00 0.  1.
          2   -1    0    0  501    0  0.00000000000E+00 -0.00000000000E+00 -0.25281996752E+03  0.25281996752E+03  0.00000000000E+00 0. -1.
         23    2    1    2    0    0  0.00000000000E+00  0.00000000000E+00 -0.24458122246E+03  0.26105871259E+03  0.91278020569E+02 0.  0.
        -11    1    3    3    0    0 -0.44150529268E+02 -0.62860858013E+01 -0.94541575968E+02  0.10453178319E+03  0.00000000000E+00 0.  1.
         11    1    3    3    0    0  0.44150529268E+02  0.62860858013E+01 -0.15003964649E+03  0.15652692940E+03  0.00000000000E+00 0. -1.
<mgrwt>
<rscale>  0 0.91278021E+02</rscale>
<asrwt>0</asrwt>
<pdfrwt beam="2">  1        2 0.38895374E-01 0.91278021E+02</pdfrwt>
<pdfrwt beam="1">  1       -2 0.12674994E-02 0.91278021E+02</pdfrwt>
<totfact> 0.16805868E+05</totfact>
</mgrwt>
</event>
<event>
 5    1  0.1247456E+001  0.9314692E+02  0.7546771E-02  0.1295405E+00
          3   -1    0    0  501    0  0.00000000000E+00  0.00000000000E+00  0.22085291382E+03  0.22085291382E+03  0.00000000000E+00 0. -1.
         -3   -1    0    0    0  501 -0.00000000000E+00 -0.00000000000E+00 -0.98214110369E+01  0.98214110369E+01  0.00000000000E+00 0.  1.
         23    2    1    2    0    0  0.00000000000E+00  0.00000000000E+00  0.21103150278E+03  0.23067432486E+03  0.93146921481E+02 0.  0.
        -13    1    3    3    0    0  0.26057196467E+02 -0.28277855489E+02  0.17058922523E+03  0.17486937515E+03  0.00000000000E+00 0. -1.
         13    1    3    3    0    0 -0.26057196467E+02  0.28277855489E+02  0.40442277554E+02  0.55804949714E+02  0.00000000000E+00 0.  1.
<mgrwt>
<rscale>  0 0.93146921E+02</rscale>
<asrwt>0</asrwt>
<pdfrwt beam="1">  1        3 0.33977368E-01 0.93146921E+02</pdfrwt>
<pdfrwt beam="2">  1       -3 0.15109865E-02 0.93146921E+02</pdfrwt>
<totfact> 0.25473103E+04</totfact>
</mgrwt>
</event>
<event>
 5    1  0.1247456E+001  0.9404513E+02  0.7546771E-02  0.1293341E+00
         -1   -1    0    0    0  501 -0.00000000000E+00  0.00000000000E+00  0.17870678434E+02  0.17870678434E+02  0.00000000000E+00 0.  1.
          1   -1    0    0  501    0  0.00000000000E+00 -0.00000000000E+00 -0.12372901349E+03  0.12372901349E+03  0.00000000000E+00 0. -1.
         23    2    1    2    0    0  0.00000000000E+00  0.00000000000E+00 -0.10585833505E+03  0.14159969192E+03  0.94045125614E+02 0.  0.
        -11    1    3    3    0    0  0.24674260809E+02  0.37080539315E+02 -0.75630952254E+02  0.87771444566E+02  0.00000000000E+00 0.  1.
         11    1    3    3    0    0 -0.24674260809E+02 -0.37080539315E+02 -0.30227382799E+02  0.53828247354E+02  0.00000000000E+00 0. -1.
<mgrwt>
<rscale>  0 0.94045126E+02</rscale>
<asrwt>0</asrwt>
<pdfrwt beam="2">  1        1 0.19035233E-01 0.94045126E+02</pdfrwt>
<pdfrwt beam="1">  1       -1 0.27493351E-02 0.94045126E+02</pdfrwt>
<totfact> 0.99572570E+04</totfact>
</mgrwt>
</event>
<event>
 5    1  0.1247456E+001  0.9036791E+02  0.7546771E-02  0.1301963E+00
         -1   -1    0    0    0  501 -0.00000000000E+00  0.00000000000E+00  0.12843929686E+03  0.12843929686E+03  0.00000000000E+00 0.  1.
          1   -1    0    0  501    0  0.00000000000E+00 -0.00000000000E+00 -0.15895366814E+02  0.15895366814E+02  0.00000000000E+00 0. -1.
         23    2    1    2    0    0  0.00000000000E+00  0.00000000000E+00  0.11254393005E+03  0.14433466368E+03  0.90367908837E+02 0.  0.
        -11    1    3    3    0    0 -0.13144090496E+02 -0.29461574618E+02  0.57432379142E+01  0.32767915339E+02  0.00000000000E+00 0. -1.
         11    1    3    3    0    0  0.13144090496E+02  0.29461574618E+02  0.10680069213E+03  0.11156674834E+03  0.00000000000E+00 0.  1.
<mgrwt>
<rscale>  0 0.90367909E+02</rscale>
<asrwt>0</asrwt>
<pdfrwt beam="2">  1        1 0.24454411E-02 0.90367909E+02</pdfrwt>
<pdfrwt beam="1">  1       -1 0.19759891E-01 0.90367909E+02</pdfrwt>
<totfact> 0.79229676E+04</totfact>
</mgrwt>
</event>
<event>
 5    1  0.1247456E+001  0.8988164E+02  0.7546771E-02  0.1303139E+00
          1   -1    0    0  501    0  0.00000000000E+00  0.00000000000E+00  0.92947365905E+01  0.92947365905E+01  0.00000000000E+00 0.  1.
         -1   -1    0    0    0  501 -0.00000000000E+00 -0.00000000000E+00 -0.21729255784E+03  0.21729255784E+03  0.00000000000E+00 0. -1.
         23    2    1    2    0    0  0.00000000000E+00  0.00000000000E+00 -0.20799782125E+03  0.22658729443E+03  0.89881635237E+02 0.  0.
        -11    1    3    3    0    0 -0.28933878446E+02 -0.16859608038E+02 -0.17955438792E+03  0.18265046928E+03  0.00000000000E+00 0. -1.
         11    1    3    3    0    0  0.28933878446E+02  0.16859608038E+02 -0.28443433329E+02  0.43936825155E+02  0.00000000000E+00 0.  1.
<mgrwt>
<rscale>  0 0.89881635E+02</rscale>
<asrwt>0</asrwt>
<pdfrwt beam="1">  1        1 0.14299595E-02 0.89881635E+02</pdfrwt>
<pdfrwt beam="2">  1       -1 0.33429624E-01 0.89881635E+02</pdfrwt>
<totfact> 0.70319726E+04</totfact>
</mgrwt>
</event>
<event>
 5    1  0.1247456E+001  0.9904601E+02  0.7546771E-02  0.1282315E+00
          1   -1    0    0  501    0  0.00000000000E+00  0.00000000000E+00  0.59420715327E+02  0.59420715327E+02  0.00000000000E+00 0. -1.
         -1   -1    0    0    0  501 -0.00000000000E+00 -0.00000000000E+00 -0.41273954080E+02  0.41273954080E+02  0.00000000000E+00 0.  1.
         23    2    1    2    0    0  0.00000000000E+00  0.00000000000E+00  0.18146761247E+02  0.10069466941E+03  0.99046007003E+02 0.  0.
        -11    1    3    3    0    0  0.28903595820E+02  0.88543544612E+01 -0.30805958957E+02  0.43160451244E+02  0.00000000000E+00 0.  1.
         11    1    3    3    0    0 -0.28903595820E+02 -0.88543544612E+01  0.48952720204E+02  0.57534218164E+02  0.00000000000E+00 0. -1.
<mgrwt>
<rscale>  0 0.99046007E+02</rscale>
<asrwt>0</asrwt>
<pdfrwt beam="1">  1        1 0.91416486E-02 0.99046007E+02</pdfrwt>
<pdfrwt beam="2">  1       -1 0.63498390E-02 0.99046007E+02</pdfrwt>
<totfact> 0.76355674E+04</totfact>
</mgrwt>
</event>
<event>
 5    1  0.1247456E+001  0.9154897E+02  0.7546771E-02  0.1299143E+00
         -2   -1    0    0    0  501 -0.00000000000E+00  0.00000000000E+00  0.15615942571E+02  0.15615942571E+02  0.00000000000E+00 0.  1.
          2   -1    0    0  501    0  0.00000000000E+00 -0.00000000000E+00 -0.13417720857E+03  0.13417720857E+03  0.00000000000E+00 0. -1.
         23    2    1    2    0    0  0.00000000000E+00  0.00000000000E+00 -0.11856126599E+03  0.14979315114E+03  0.91548972322E+02 0.  0.
        -11    1    3    3    0    0 -0.32706016215E+02 -0.48570312973E+01 -0.11107454339E+03  0.11589145111E+03  0.00000000000E+00 0. -1.
         11    1    3    3    0    0  0.32706016215E+02  0.48570312973E+01 -0.74867226022E+01  0.33901700031E+02  0.00000000000E+00 0.  1.
<mgrwt>
<rscale>  0 0.91548972E+02</rscale>
<asrwt>0</asrwt>
<pdfrwt beam="2">  1        2 0.20642648E-01 0.91548972E+02</pdfrwt>
<pdfrwt beam="1">  1       -2 0.24024527E-02 0.91548972E+02</pdfrwt>
<totfact> 0.13318915E+05</totfact>
</mgrwt>
</event>
<event>
 5    1  0.1247456E+001  0.9049454E+02  0.7546771E-02  0.1301659E+00
          3   -1    0    0  501    0  0.00000000000E+00  0.00000000000E+00  0.92480088634E+01  0.92480088634E+01  0.00000000000E+00 0. -1.
         -3   -1    0    0    0  501 -0.00000000000E+00 -0.00000000000E+00 -0.22137904339E+03  0.22137904339E+03  0.00000000000E+00 0.  1.
         23    2    1    2    0    0  0.00000000000E+00  0.00000000000E+00 -0.21213103453E+03  0.23062705226E+03  0.90494538078E+02 0.  0.
        -13    1    3    3    0    0 -0.89800689702E+01 -0.37940782994E+02 -0.47551015190E+02  0.61491818143E+02  0.00000000000E+00 0. -1.
         13    1    3    3    0    0  0.89800689702E+01  0.37940782994E+02 -0.16458001934E+03  0.16913523411E+03  0.00000000000E+00 0.  1.
<mgrwt>
<rscale>  0 0.90494538E+02</rscale>
<asrwt>0</asrwt>
<pdfrwt beam="1">  1        3 0.14227709E-02 0.90494538E+02</pdfrwt>
<pdfrwt beam="2">  1       -3 0.34058308E-01 0.90494538E+02</pdfrwt>
<totfact> 0.27536580E+04</totfact>
</mgrwt>
</event>
<event>
 5    1  0.1247456E+001  0.9121336E+02  0.7546771E-02  0.1299940E+00
         -1   -1    0    0    0  501 -0.00000000000E+00  0.00000000000E+00  0.80713863338E+01  0.80713863338E+01  0.00000000000E+00 0.  1.
          1   -1    0    0  501    0  0.00000000000E+00 -0.00000000000E+00 -0.25769668272E+03  0.25769668272E+03  0.00000000000E+00 0. -1.
         23    2    1    2    0    0  0.00000000000E+00  0.00000000000E+00 -0.24962529638E+03  0.26576806905E+03  0.91213364879E+02 0.  0.
        -13    1    3    3    0    0 -0.16431361153E+02 -0.35288212923E+02 -0.55571919127E+02  0.67848992595E+02  0.00000000000E+00 0.  1.
         13    1    3    3    0    0  0.16431361153E+02  0.35288212923E+02 -0.19405337726E+03  0.19791907646E+03  0.00000000000E+00 0. -1.
<mgrwt>
<rscale>  0 0.91213365E+02</rscale>
<asrwt>0</asrwt>
<pdfrwt beam="2">  1        1 0.39645637E-01 0.91213365E+02</pdfrwt>
<pdfrwt beam="1">  1       -1 0.12417519E-02 0.91213365E+02</pdfrwt>
<totfact> 0.12426959E+05</totfact>
</mgrwt>
</event>
<event>
 5    1  0.1247456E+001  0.9152711E+02  0.7546771E-02  0.1299195E+00
          1   -1    0    0  501    0  0.00000000000E+00  0.00000000000E+00  0.89770170090E+02  0.89770170090E+02  0.00000000000E+00 0. -1.
         -1   -1    0    0    0  501 -0.00000000000E+00 -0.00000000000E+00 -0.23329608971E+02  0.23329608971E+02  0.00000000000E+00 0.  1.
         23    2    1    2    0    0  0.00000000000E+00  0.00000000000E+00  0.66440561119E+02  0.11309977906E+03  0.91527109983E+02 0.  0.
        -11    1    3    3    0    0  0.65420443394E+01  0.24322344318E+02 -0.13994475917E+02  0.28813540800E+02  0.00000000000E+00 0.  1.
         11    1    3    3    0    0 -0.65420443394E+01 -0.24322344318E+02  0.80435037036E+02  0.84286238262E+02  0.00000000000E+00 0. -1.
<mgrwt>
<rscale>  0 0.91527110E+02</rscale>
<asrwt>0</asrwt>
<pdfrwt beam="1">  1        1 0.13810795E-01 0.91527110E+02</pdfrwt>
<pdfrwt beam="2">  1       -1 0.35891707E-02 0.91527110E+02</pdfrwt>
<totfact> 0.10154610E+05</totfact>
</mgrwt>
</event>
<event>
 5    1  0.1247456E+001  0.9109560E+02  0.7546771E-02  0.1300220E+00
         -1   -1    0    0    0  501 -0.00000000000E+00  0.00000000000E+00  0.14972345843E+03  0.14972345843E+03  0.00000000000E+00 0.  1.
          1   -1    0    0  501    0  0.00000000000E+00 -0.00000000000E+00 -0.13856225828E+02  0.13856225828E+02  0.00000000000E+00 0. -1.
         23    2    1    2    0    0  0.00000000000E+00  0.00000000000E+00  0.13586723260E+03  0.16357968426E+03  0.91095599273E+02 0.  0.
        -13    1    3    3    0    0  0.43183722336E+02 -0.62040847184E+01  0.91434388804E+02  0.10130928880E+03  0.00000000000E+00 0.  1.
         13    1    3    3    0    0 -0.43183722336E+02  0.62040847184E+01  0.44432843798E+02  0.62270395453E+02  0.00000000000E+00 0. -1.
<mgrwt>
<rscale>  0 0.91095599E+02</rscale>
<asrwt>0</asrwt>
<pdfrwt beam="2">  1        1 0.21317271E-02 0.91095599E+02</pdfrwt>
<pdfrwt beam="1">  1       -1 0.23034377E-01 0.91095599E+02</pdfrwt>
<totfact> 0.74994275E+04</totfact>
</mgrwt>
</event>
<event>
 5    1  0.1247456E+001  0.9181872E+02  0.7546771E-02  0.1298506E+00
         -2   -1    0    0    0  501 -0.00000000000E+00  0.00000000000E+00  0.14048964412E+02  0.14048964412E+02  0.00000000000E+00 0.  1.
          2   -1    0    0  501    0  0.00000000000E+00 -0.00000000000E+00 -0.15002310290E+03  0.15002310290E+03  0.00000000000E+00 0. -1.
         23    2    1    2    0    0  0.00000000000E+00  0.00000000000E+00 -0.13597413849E+03  0.16407206731E+03  0.91818717780E+02 0.  0.
        -11    1    3    3    0    0  0.41776958323E+02  0.87253526681E+01 -0.37755837053E+02  0.56982008191E+02  0.00000000000E+00 0.  1.
         11    1    3    3    0    0 -0.41776958323E+02 -0.87253526681E+01 -0.98218301435E+02  0.10709005912E+03  0.00000000000E+00 0. -1.
<mgrwt>
<rscale>  0 0.91818718E+02</rscale>
<asrwt>0</asrwt>
<pdfrwt beam="2">  1        2 0.23080476E-01 0.91818718E+02</pdfrwt>
<pdfrwt beam="1">  1       -2 0.21613792E-02 0.91818718E+02</pdfrwt>
<totfact> 0.13717655E+05</totfact>
</mgrwt>
</event>
<event>
 5    1  0.1247456E+001  0.9168578E+02  0.7546771E-02  0.1298820E+00
          3   -1    0    0  501    0  0.00000000000E+00  0.00000000000E+00  0.11094854716E+03  0.11094854716E+03  0.00000000000E+00 0. -1.
         -3   -1    0    0    0  501 -0.00000000000E+00 -0.00000000000E+00 -0.18941848187E+02  0.18941848187E+02  0.00000000000E+00 0.  1.
         23    2    1    2    0    0  0.00000000000E+00  0.00000000000E+00  0.92006698974E+02  0.12989039535E+03  0.91685779417E+02 0.  0.
        -13    1    3    3    0    0 -0.33388018006E+02 -0.81613438958E+01  0.30282450984E+01  0.34504167124E+02  0.00000000000E+00 0.  1.
         13    1    3    3    0    0  0.33388018006E+02  0.81613438958E+01  0.88978453875E+02  0.95386228223E+02  0.00000000000E+00 0. -1.
<mgrwt>
<rscale>  0 0.91685779E+02</rscale>
<asrwt>0</asrwt>
<pdfrwt beam="1">  1        3 0.17069007E-01 0.91685779E+02</pdfrwt>
<pdfrwt beam="2">  1       -3 0.29141305E-02 0.91685779E+02</pdfrwt>
<totfact> 0.32093803E+04</totfact>
</mgrwt>
</event>
<event>
 5    1  0.1247456E+001  0.9181220E+02  0.7546771E-02  0.1298522E+00
         -1   -1    0    0    0  501 -0.00000000000E+00  0.00000000000E+00  0.80449179703E+01  0.80449179703E+01  0.00000000000E+00 0.  1.
          1   -1    0    0  501    0  0.00000000000E+00 -0.00000000000E+00 -0.26195047650E+03  0.26195047650E+03  0.00000000000E+00 0. -1.
         23    2    1    2    0    0  0.00000000000E+00  0.00000000000E+00 -0.25390555852E+03  0.26999539447E+03  0.91812201709E+02 0.  0.
        -13    1    3    3    0    0  0.44896939150E+02  0.50913677501E+01 -0.10311414594E+03  0.11257967962E+03  0.00000000000E+00 0.  1.
         13    1    3    3    0    0 -0.44896939150E+02 -0.50913677501E+01 -0.15079141259E+03  0.15741571485E+03  0.00000000000E+00 0. -1.
<mgrwt>
<rscale>  0 0.91812202E+02</rscale>
<asrwt>0</asrwt>
<pdfrwt beam="2">  1        1 0.40300073E-01 0.91812202E+02</pdfrwt>
<pdfrwt beam="1">  1       -1 0.12376797E-02 0.91812202E+02</pdfrwt>
<totfact> 0.12250749E+05</totfact>
</mgrwt>
</event>
<event>
 5    1  0.1247456E+001  0.9950437E+02  0.7546771E-02  0.1281342E+00
         -2   -1    0    0    0  501 -0.00000000000E+00  0.00000000000E+00  0.56727648035E+01  0.56727648035E+01  0.00000000000E+00 0.  1.
          2   -1    0    0  501    0  0.00000000000E+00 -0.00000000000E+00 -0.43634453046E+03  0.43634453046E+03  0.00000000000E+00 0. -1.
         23    2    1    2    0    0  0.00000000000E+00  0.00000000000E+00 -0.43067176565E+03  0.44201729526E+03  0.99504369644E+02 0.  0.
        -13    1    3    3    0    0  0.44356363962E+02 -0.21250449955E+02 -0.24864082786E+03  0.25345873417E+03  0.00000000000E+00 0.  1.
         13    1    3    3    0    0 -0.44356363962E+02  0.21250449955E+02 -0.18203093779E+03  0.18855856109E+03  0.00000000000E+00 0. -1.
<mgrwt>
<rscale>  0 0.99504370E+02</rscale>
<asrwt>0</asrwt>
<pdfrwt beam="2">  1        2 0.67129955E-01 0.99504370E+02</pdfrwt>
<pdfrwt beam="1">  1       -2 0.87273270E-03 0.99504370E+02</pdfrwt>
<totfact> 0.16307548E+05</totfact>
</mgrwt>
</event>
<event>
 5    1  0.1247456E+001  0.9489464E+02  0.7546771E-02  0.1291414E+00
          1   -1    0    0  501    0  0.00000000000E+00  0.00000000000E+00  0.15796933656E+03  0.15796933656E+03  0.00000000000E+00 0. -1.
         -1   -1    0    0    0  501 -0.00000000000E+00 -0.00000000000E+00 -0.14251172224E+02  0.14251172224E+02  0.00000000000E+00 0.  1.
         23    2    1    2    0    0  0.00000000000E+00  0.00000000000E+00  0.14371816434E+03  0.17222050879E+03  0.94894640975E+02 0.  0.
        -11    1    3    3    0    0  0.24880288434E+02  0.40065989142E+02  0.81278186241E+02  0.93970504932E+02  0.00000000000E+00 0. -1.
         11    1    3    3    0    0 -0.24880288434E+02 -0.40065989142E+02  0.62439978099E+02  0.78250003856E+02  0.00000000000E+00 0.  1.
<mgrwt>
<rscale>  0 0.94894641E+02</rscale>
<asrwt>0</asrwt>
<pdfrwt beam="1">  1        1 0.24302974E-01 0.94894641E+02</pdfrwt>
<pdfrwt beam="2">  1       -1 0.21924881E-02 0.94894641E+02</pdfrwt>
<totfact> 0.10161810E+05</totfact>
</mgrwt>
</event>
<event>
 5    1  0.1247456E+001  0.9063461E+02  0.7546771E-02  0.1301322E+00
         -2   -1    0    0    0  501 -0.00000000000E+00  0.00000000000E+00  0.27677161062E+02  0.27677161062E+02  0.00000000000E+00 0.  1.
          2   -1    0    0  501    0  0.00000000000E+00 -0.00000000000E+00 -0.74200456977E+02  0.74200456977E+02  0.00000000000E+00 0. -1.
         23    2    1    2    0    0  0.00000000000E+00  0.00000000000E+00 -0.46523295914E+02  0.10187761804E+03  0.90634607047E+02 0.  0.
        -13    1    3    3    0    0  0.12508157933E+02  0.38697035050E+02 -0.45735390997E+02  0.61201638264E+02  0.00000000000E+00 0. -1.
         13    1    3    3    0    0 -0.12508157933E+02 -0.38697035050E+02 -0.78790491705E+00  0.40675979775E+02  0.00000000000E+00 0.  1.
<mgrwt>
<rscale>  0 0.90634607E+02</rscale>
<asrwt>0</asrwt>
<pdfrwt beam="2">  1        2 0.11415455E-01 0.90634607E+02</pdfrwt>
<pdfrwt beam="1">  1       -2 0.42580248E-02 0.90634607E+02</pdfrwt>
<totfact> 0.11431699E+05</totfact>
</mgrwt>
</event>
<event>
 5    1  0.1247456E+001  0.9077884E+02  0.7546771E-02  0.1300977E+00
         -2   -1    0    0    0  501 -0.00000000000E+00  0.00000000000E+00  0.88639436699E+02  0.88639436699E+02  0.00000000000E+00 0.  1.
          2   -1    0    0  501    0  0.00000000000E+00 -0.00000000000E+00 -0.23242470482E+02  0.23242470482E+02  0.00000000000E+00 0. -1.
         23    2    1    2    0    0  0.00000000000E+00  0.00000000000E+00  0.65396966217E+02  0.11188190718E+03  0.90778840949E+02 0.  0.
        -11    1    3    3    0    0 -0.18137802368E+02  0.33977178121E+02  0.30994905751E+01  0.38639815600E+02  0.00000000000E+00 0. -1.
         11    1    3    3    0    0  0.18137802368E+02 -0.33977178121E+02  0.62297475642E+02  0.73242091581E+02  0.00000000000E+00 0.  1.
<mgrwt>
<rscale>  0 0.90778841E+02</rscale>
<asrwt>0</asrwt>
<pdfrwt beam="2">  1        2 0.35757647E-02 0.90778841E+02</pdfrwt>
<pdfrwt beam="1">  1       -2 0.13636836E-01 0.90778841E+02</pdfrwt>
<totfact> 0.83562785E+04</totfact>
</mgrwt>
</event>
<event>
 5    1  0.1247456E+001  0.8992110E+02  0.7546771E-02  0.1303043E+00
         -2   -1    0    0    0  501 -0.00000000000E+00  0.00000000000E+00  0.16842342409E+03  0.16842342409E+03  0.00000000000E+00 0.  1.
          2   -1    0    0  501    0  0.00000000000E+00 -0.00000000000E+00 -0.12002197794E+02  0.12002197794E+02  0.00000000000E+00 0. -1.
         23    2    1    2    0    0  0.00000000000E+00  0.00000000000E+00  0.15642122629E+03  0.18042562188E+03  0.89921104287E+02 0.  0.
        -13    1    3    3    0    0 -0.12308238061E+02  0.39275909781E+02  0.11451426699E+03  0.12168651182E+03  0.00000000000E+00 0.  1.
         13    1    3    3    0    0  0.12308238061E+02 -0.39275909781E+02  0.41906959298E+02  0.58739110063E+02  0.00000000000E+00 0. -1.
<mgrwt>
<rscale>  0 0.89921104E+02</rscale>
<asrwt>0</asrwt>
<pdfrwt beam="2">  1        2 0.18464921E-02 0.89921104E+02</pdfrwt>
<pdfrwt beam="1">  1       -2 0.25911294E-01 0.89921104E+02</pdfrwt>
<totfact> 0.69272956E+04</totfact>
</mgrwt>
</event>
<event>
 5    1  0.1247456E+001  0.9200749E+02  0.7546771E-02  0.1298062E+00
          1   -1    0    0  501    0  0.00000000000E+00  0.00000000000E+00  0.19569323246E+02  0.19569323246E+02  0.00000000000E+00 0. -1.
         -1   -1    0    0    0  501 -0.00000000000E+00 -0.00000000000E+00 -0.10814603385E+03  0.10814603385E+03  0.00000000000E+00 0.  1.
         23    2    1    2    0    0  0.00000000000E+00  0.00000000000E+00 -0.88576710604E+02  0.12771535710E+03  0.92007493046E+02 0.  0.
        -13    1    3    3    0    0 -0.38876444460E+02 -0.74389312239E+01 -0.11745566415E+02  0.41287697466E+02  0.00000000000E+00 0. -1.
         13    1    3    3    0    0  0.38876444460E+02  0.74389312239E+01 -0.76831144189E+02  0.86427659629E+02  0.00000000000E+00 0.  1.
<mgrwt>
<rscale>  0 0.92007493E+02</rscale>
<asrwt>0</asrwt>
<pdfrwt beam="1">  1        1 0.30106651E-02 0.92007493E+02</pdfrwt>
<pdfrwt beam="2">  1       -1 0.16637852E-01 0.92007493E+02</pdfrwt>
<totfact> 0.78315440E+04</totfact>
</mgrwt>
</event>
<event>
 5    1  0.1247456E+001  0.8389238E+02  0.7546771E-02  0.1318355E+00
         -1   -1    0    0    0  501 -0.00000000000E+00  0.00000000000E+00  0.11292321190E+02  0.11292321190E+02  0.00000000000E+00 0.  1.
          1   -1    0    0  501    0  0.00000000000E+00 -0.00000000000E+00 -0.15581231331E+03  0.15581231331E+03  0.00000000000E+00 0. -1.
         23    2    1    2    0    0  0.00000000000E+00  0.00000000000E+00 -0.14451999212E+03  0.16710463450E+03  0.83892375988E+02 0.  0.
        -13    1    3    3    0    0 -0.30962656532E+01  0.41360426345E+02 -0.59787030275E+02  0.72765106456E+02  0.00000000000E+00 0. -1.
         13    1    3    3    0    0  0.30962656532E+01 -0.41360426345E+02 -0.84732961841E+02  0.94339528040E+02  0.00000000000E+00 0.  1.
<mgrwt>
<rscale>  0 0.83892376E+02</rscale>
<asrwt>0</asrwt>
<pdfrwt beam="2">  1        1 0.23971124E-01 0.83892376E+02</pdfrwt>
<pdfrwt beam="1">  1       -1 0.17372803E-02 0.83892376E+02</pdfrwt>
<totfact> 0.14116160E+05</totfact>
</mgrwt>
</event>
<event>
 5    1  0.1247456E+001  0.9149526E+02  0.7546771E-02  0.1299271E+00
         -2   -1    0    0    0  501 -0.00000000000E+00  0.00000000000E+00  0.26714143464E+02  0.26714143464E+02  0.00000000000E+00 0.  1.
          2   -1    0    0  501    0  0.00000000000E+00 -0.00000000000E+00 -0.78342226982E+02  0.78342226982E+02  0.00000000000E+00 0. -1.
         23    2    1    2    0    0  0.00000000000E+00  0.00000000000E+00 -0.51628083518E+02  0.10505637045E+03  0.91495256509E+02 0.  0.
        -13    1    3    3    0    0 -0.16798580607E+02  0.28208014237E+02  0.10766363710E+02  0.34551395994E+02  0.00000000000E+00 0.  1.
         13    1    3    3    0    0  0.16798580607E+02 -0.28208014237E+02 -0.62394447228E+02  0.70504974452E+02  0.00000000000E+00 0. -1.
<mgrwt>
<rscale>  0 0.91495257E+02</rscale>
<asrwt>0</asrwt>
<pdfrwt beam="2">  1        2 0.12052650E-01 0.91495257E+02</pdfrwt>
<pdfrwt beam="1">  1       -2 0.41098682E-02 0.91495257E+02</pdfrwt>
<totfact> 0.11306837E+05</totfact>
</mgrwt>
</event>
<event>
 5    1  0.1247456E+001  0.9070348E+02  0.7546771E-02  0.1301157E+00
          2   -1    0    0  501    0  0.00000000000E+00  0.00000000000E+00  0.84486586493E+02  0.84486586493E+02  0.00000000000E+00 0. -1.
         -2   -1    0    0    0  501 -0.00000000000E+00 -0.00000000000E+00 -0.24344460503E+02  0.24344460503E+02  0.00000000000E+00 0.  1.
         23    2    1    2    0    0  0.00000000000E+00  0.00000000000E+00  0.60142125990E+02  0.10883104700E+03  0.90703481034E+02 0.  0.
        -11    1    3    3    0    0 -0.33580299588E+02 -0.31686629374E-01  0.66644863827E+02  0.74626908009E+02  0.00000000000E+00 0. -1.
         11    1    3    3    0    0  0.33580299588E+02  0.31686629374E-01 -0.65027378366E+01  0.34204138987E+02  0.00000000000E+00 0.  1.
<mgrwt>
<rscale>  0 0.90703481E+02</rscale>
<asrwt>0</asrwt>
<pdfrwt beam="1">  1        2 0.12997936E-01 0.90703481E+02</pdfrwt>
<pdfrwt beam="2">  1       -2 0.37453017E-02 0.90703481E+02</pdfrwt>
<totfact> 0.11837056E+05</totfact>
</mgrwt>
</event>
<event>
 5    1  0.1247456E+001  0.9736902E+02  0.7546771E-02  0.1285928E+00
          4   -1    0    0  501    0  0.00000000000E+00  0.00000000000E+00  0.16169466404E+02  0.16169466404E+02  0.00000000000E+00 0. -1.
         -4   -1    0    0    0  501 -0.00000000000E+00 -0.00000000000E+00 -0.14658379391E+03  0.14658379391E+03  0.00000000000E+00 0.  1.
         23    2    1    2    0    0  0.00000000000E+00  0.00000000000E+00 -0.13041432750E+03  0.16275326031E+03  0.97369024457E+02 0.  0.
        -13    1    3    3    0    0  0.12780469403E+02  0.38070370205E+02 -0.19203033194E+02  0.44513480762E+02  0.00000000000E+00 0. -1.
         13    1    3    3    0    0 -0.12780469403E+02 -0.38070370205E+02 -0.11121129431E+03  0.11823977955E+03  0.00000000000E+00 0.  1.
<mgrwt>
<rscale>  0 0.97369024E+02</rscale>
<asrwt>0</asrwt>
<pdfrwt beam="1">  1        4 0.24876102E-02 0.97369024E+02</pdfrwt>
<pdfrwt beam="2">  1       -4 0.22551353E-01 0.97369024E+02</pdfrwt>
<totfact> 0.19297933E+04</totfact>
</mgrwt>
</event>
<event>
 5    1  0.1247456E+001  0.8911636E+02  0.7546771E-02  0.1305006E+00
         -3   -1    0    0    0  501 -0.00000000000E+00  0.00000000000E+00  0.56440721516E+02  0.56440721516E+02  0.00000000000E+00 0.  1.
          3   -1    0    0  501    0  0.00000000000E+00 -0.00000000000E+00 -0.35177284955E+02  0.35177284955E+02  0.00000000000E+00 0. -1.
         23    2    1    2    0    0  0.00000000000E+00  0.00000000000E+00  0.21263436560E+02  0.91618006471E+02  0.89116358630E+02 0.  0.
        -13    1    3    3    0    0 -0.14123157698E+02  0.42073881944E+02  0.65508798061E+01  0.44861889744E+02  0.00000000000E+00 0.  1.
         13    1    3    3    0    0  0.14123157698E+02 -0.42073881944E+02  0.14712556754E+02  0.46756116727E+02  0.00000000000E+00 0. -1.
<mgrwt>
<rscale>  0 0.89116359E+02</rscale>
<asrwt>0</asrwt>
<pdfrwt beam="2">  1        3 0.54118900E-02 0.89116359E+02</pdfrwt>
<pdfrwt beam="1">  1       -3 0.86831879E-02 0.89116359E+02</pdfrwt>
<totfact> 0.37567485E+04</totfact>
</mgrwt>
</event>
<event>
 5    1  0.1247456E+001  0.9225089E+02  0.7546771E-02  0.1297491E+00
         -1   -1    0    0    0  501 -0.00000000000E+00  0.00000000000E+00  0.99346555306E+01  0.99346555306E+01  0.00000000000E+00 0.  1.
          1   -1    0    0  501    0  0.00000000000E+00 -0.00000000000E+00 -0.21415507065E+03  0.21415507065E+03  0.00000000000E+00 0. -1.
         23    2    1    2    0    0  0.00000000000E+00  0.00000000000E+00 -0.20422041512E+03  0.22408972618E+03  0.92250893915E+02 0.  0.
        -13    1    3    3    0    0  0.33455197939E+02  0.14472692419E+02 -0.33453436570E+02  0.49475665870E+02  0.00000000000E+00 0.  1.
         13    1    3    3    0    0 -0.33455197939E+02 -0.14472692419E+02 -0.17076697855E+03  0.17461406031E+03  0.00000000000E+00 0. -1.
<mgrwt>
<rscale>  0 0.92250894E+02</rscale>
<asrwt>0</asrwt>
<pdfrwt beam="2">  1        1 0.32946933E-01 0.92250894E+02</pdfrwt>
<pdfrwt beam="1">  1       -1 0.15284086E-02 0.92250894E+02</pdfrwt>
<totfact> 0.11628067E+05</totfact>
</mgrwt>
</event>
<event>
 5    1  0.1247456E+001  0.9112043E+02  0.7546771E-02  0.1300161E+00
          3   -1    0    0  501    0  0.00000000000E+00  0.00000000000E+00  0.58590690458E+02  0.58590690458E+02  0.00000000000E+00 0. -1.
         -3   -1    0    0    0  501 -0.00000000000E+00 -0.00000000000E+00 -0.35427695942E+02  0.35427695942E+02  0.00000000000E+00 0.  1.
         23    2    1    2    0    0  0.00000000000E+00  0.00000000000E+00  0.23162994517E+02  0.94018386400E+02  0.91120429467E+02 0.  0.
        -13    1    3    3    0    0 -0.20248968370E+02 -0.22559152288E+02  0.46674912071E+02  0.55655040103E+02  0.00000000000E+00 0. -1.
         13    1    3    3    0    0  0.20248968370E+02  0.22559152288E+02 -0.23511917555E+02  0.38363346297E+02  0.00000000000E+00 0.  1.
<mgrwt>
<rscale>  0 0.91120429E+02</rscale>
<asrwt>0</asrwt>
<pdfrwt beam="1">  1        3 0.90139524E-02 0.91120429E+02</pdfrwt>
<pdfrwt beam="2">  1       -3 0.54504148E-02 0.91120429E+02</pdfrwt>
<totfact> 0.35180651E+04</totfact>
</mgrwt>
</event>
<event>
 5    1  0.1247456E+001  0.9028664E+02  0.7546771E-02  0.1302159E+00
          2   -1    0    0  501    0  0.00000000000E+00  0.00000000000E+00  0.14467377270E+02  0.14467377270E+02  0.00000000000E+00 0.  1.
         -2   -1    0    0    0  501 -0.00000000000E+00 -0.00000000000E+00 -0.14086309129E+03  0.14086309129E+03  0.00000000000E+00 0. -1.
         23    2    1    2    0    0  0.00000000000E+00  0.00000000000E+00 -0.12639571402E+03  0.15533046856E+03  0.90286643201E+02 0.  0.
        -13    1    3    3    0    0  0.91645500348E+01 -0.27771658061E+02 -0.40329600104E+01  0.29521496155E+02  0.00000000000E+00 0.  1.
         13    1    3    3    0    0 -0.91645500348E+01  0.27771658061E+02 -0.12236275401E+03  0.12580897240E+03  0.00000000000E+00 0. -1.
<mgrwt>
<rscale>  0 0.90286643E+02</rscale>
<asrwt>0</asrwt>
<pdfrwt beam="1">  1        2 0.22257505E-02 0.90286643E+02</pdfrwt>
<pdfrwt beam="2">  1       -2 0.21671244E-01 0.90286643E+02</pdfrwt>
<totfact> 0.73236814E+04</totfact>
</mgrwt>
</event>
<event>
 5    1  0.1247456E+001  0.8964762E+02  0.7546771E-02  0.1303707E+00
         -1   -1    0    0    0  501 -0.00000000000E+00  0.00000000000E+00  0.26890648166E+02  0.26890648166E+02  0.00000000000E+00 0.  1.
          1   -1    0    0  501    0  0.00000000000E+00 -0.00000000000E+00 -0.74716460697E+02  0.74716460697E+02  0.00000000000E+00 0. -1.
         23    2    1    2    0    0  0.00000000000E+00  0.00000000000E+00 -0.47825812531E+02  0.10160710886E+03  0.89647622541E+02 0.  0.
        -13    1    3    3    0    0 -0.26936236914E+02  0.78757168889E+01 -0.63526787113E+02  0.69449553322E+02  0.00000000000E+00 0. -1.
         13    1    3    3    0    0  0.26936236914E+02 -0.78757168889E+01  0.15700974582E+02  0.32157555542E+02  0.00000000000E+00 0.  1.
<mgrwt>
<rscale>  0 0.89647623E+02</rscale>
<asrwt>0</asrwt>
<pdfrwt beam="2">  1        1 0.11494840E-01 0.89647623E+02</pdfrwt>
<pdfrwt beam="1">  1       -1 0.41370228E-02 0.89647623E+02</pdfrwt>
<totfact> 0.10440853E+05</totfact>
</mgrwt>
</event>
<event>
 5    1  0.1247456E+001  0.9019135E+02  0.7546771E-02  0.1302389E+00
         -1   -1    0    0    0  501 -0.00000000000E+00  0.00000000000E+00  0.81767791010E+02  0.81767791010E+02  0.00000000000E+00 0.  1.
          1   -1    0    0  501    0  0.00000000000E+00 -0.00000000000E+00 -0.24870673924E+02  0.24870673924E+02  0.00000000000E+00 0. -1.
         23    2    1    2    0    0  0.00000000000E+00  0.00000000000E+00  0.56897117086E+02  0.10663846493E+03  0.90191353636E+02 0.  0.
        -13    1    3    3    0    0 -0.28973751871E+02  0.34538412579E+02  0.27132032418E+02  0.52616797927E+02  0.00000000000E+00 0. -1.
         13    1    3    3    0    0  0.28973751871E+02 -0.34538412579E+02  0.29765084668E+02  0.54021667007E+02  0.00000000000E+00 0.  1.
<mgrwt>
<rscale>  0 0.90191354E+02</rscale>
<asrwt>0</asrwt>
<pdfrwt beam="2">  1        1 0.38262576E-02 0.90191354E+02</pdfrwt>
<pdfrwt beam="1">  1       -1 0.12579660E-01 0.90191354E+02</pdfrwt>
<totfact> 0.86715564E+04</totfact>
</mgrwt>
</event>
<event>
 5    1  0.1247456E+001  0.9154030E+02  0.7546771E-02  0.1299164E+00
          2   -1    0    0  501    0  0.00000000000E+00  0.00000000000E+00  0.16075921252E+03  0.16075921252E+03  0.00000000000E+00 0.  1.
         -2   -1    0    0    0  501 -0.00000000000E+00 -0.00000000000E+00 -0.13031331699E+02  0.13031331699E+02  0.00000000000E+00 0. -1.
         23    2    1    2    0    0  0.00000000000E+00  0.00000000000E+00  0.14772788082E+03  0.17379054422E+03  0.91540299803E+02 0.  0.
        -11    1    3    3    0    0  0.26479851969E+02  0.33791774080E+02  0.10399235127E+03  0.11250544733E+03  0.00000000000E+00 0. -1.
         11    1    3    3    0    0 -0.26479851969E+02 -0.33791774080E+02  0.43735529552E+02  0.61285096892E+02  0.00000000000E+00 0.  1.
<mgrwt>
<rscale>  0 0.91540300E+02</rscale>
<asrwt>0</asrwt>
<pdfrwt beam="1">  1        2 0.24732185E-01 0.91540300E+02</pdfrwt>
<pdfrwt beam="2">  1       -2 0.20048204E-02 0.91540300E+02</pdfrwt>
<totfact> 0.14163419E+05</totfact>
</mgrwt>
</event>
<event>
 5    1  0.1247456E+001  0.9003301E+02  0.7546771E-02  0.1302772E+00
          1   -1    0    0  501    0  0.00000000000E+00  0.00000000000E+00  0.13595901018E+02  0.13595901018E+02  0.00000000000E+00 0. -1.
         -1   -1    0    0    0  501 -0.00000000000E+00 -0.00000000000E+00 -0.14905122626E+03  0.14905122626E+03  0.00000000000E+00 0.  1.
         23    2    1    2    0    0  0.00000000000E+00  0.00000000000E+00 -0.13545532524E+03  0.16264712728E+03  0.90033009922E+02 0.  0.
        -11    1    3    3    0    0 -0.40947229659E+02  0.68195864040E+00 -0.33962261373E+02  0.53203156691E+02  0.00000000000E+00 0. -1.
         11    1    3    3    0    0  0.40947229659E+02 -0.68195864040E+00 -0.10149306387E+03  0.10944397059E+03  0.00000000000E+00 0.  1.
<mgrwt>
<rscale>  0 0.90033010E+02</rscale>
<asrwt>0</asrwt>
<pdfrwt beam="1">  1        1 0.20916771E-02 0.90033010E+02</pdfrwt>
<pdfrwt beam="2">  1       -1 0.22930957E-01 0.90033010E+02</pdfrwt>
<totfact> 0.77391526E+04</totfact>
</mgrwt>
</event>
<event>
 5    1  0.1247456E+001  0.9014982E+02  0.7546771E-02  0.1302489E+00
          1   -1    0    0  501    0  0.00000000000E+00  0.00000000000E+00  0.13352509809E+03  0.13352509809E+03  0.00000000000E+00 0. -1.
         -1   -1    0    0    0  501 -0.00000000000E+00 -0.00000000000E+00 -0.15216222853E+02  0.15216222853E+02  0.00000000000E+00 0.  1.
         23    2    1    2    0    0  0.00000000000E+00  0.00000000000E+00  0.11830887523E+03  0.14874132094E+03  0.90149823049E+02 0.  0.
        -13    1    3    3    0    0 -0.35123141316E+02 -0.25619914389E+02  0.78797156504E+02  0.89994482844E+02  0.00000000000E+00 0. -1.
         13    1    3    3    0    0  0.35123141316E+02  0.25619914389E+02  0.39511718728E+02  0.58746838094E+02  0.00000000000E+00 0.  1.
<mgrwt>
<rscale>  0 0.90149823E+02</rscale>
<asrwt>0</asrwt>
<pdfrwt beam="1">  1        1 0.20542322E-01 0.90149823E+02</pdfrwt>
<pdfrwt beam="2">  1       -1 0.23409574E-02 0.90149823E+02</pdfrwt>
<totfact> 0.11320172E+05</totfact>
</mgrwt>
</event>
<event>
 5    1  0.1247456E+001  0.9160023E+02  0.7546771E-02  0.1299022E+00
         -1   -1    0    0    0  501 -0.00000000000E+00  0.00000000000E+00  0.22302122958E+02  0.22302122958E+02  0.00000000000E+00 0.  1.
          1   -1    0    0  501    0  0.00000000000E+00 -0.00000000000E+00 -0.94056093194E+02  0.94056093194E+02  0.00000000000E+00 0. -1.
         23    2    1    2    0    0  0.00000000000E+00  0.00000000000E+00 -0.71753970235E+02  0.11635821615E+03  0.91600230466E+02 0.  0.
        -13    1    3    3    0    0 -0.18137610085E+02  0.29035382414E+02  0.27701979260E+01  0.34346765904E+02  0.00000000000E+00 0.  1.
         13    1    3    3    0    0  0.18137610085E+02 -0.29035382414E+02 -0.74524168161E+02  0.82011450247E+02  0.00000000000E+00 0. -1.
<mgrwt>
<rscale>  0 0.91600230E+02</rscale>
<asrwt>0</asrwt>
<pdfrwt beam="2">  1        1 0.14470168E-01 0.91600230E+02</pdfrwt>
<pdfrwt beam="1">  1       -1 0.34310958E-02 0.91600230E+02</pdfrwt>
<totfact> 0.10209905E+05</totfact>
</mgrwt>
</event>
<event>
 5    1  0.1247456E+001  0.9100856E+02  0.7546771E-02  0.1300428E+00
          4   -1    0    0  501    0  0.00000000000E+00  0.00000000000E+00  0.42669417119E+02  0.42669417119E+02  0.00000000000E+00 0.  1.
         -4   -1    0    0    0  501 -0.00000000000E+00 -0.00000000000E+00 -0.48527489733E+02  0.48527489733E+02  0.00000000000E+00 0. -1.
         23    2    1    2    0    0  0.00000000000E+00  0.00000000000E+00 -0.58580726149E+01  0.91196906852E+02  0.91008564457E+02 0.  0.
        -13    1    3    3    0    0  0.33654585687E+02 -0.27312701018E+02  0.10956947301E+02  0.44706481284E+02  0.00000000000E+00 0.  1.
         13    1    3    3    0    0 -0.33654585687E+02  0.27312701018E+02 -0.16815019916E+02  0.46490425567E+02  0.00000000000E+00 0. -1.
<mgrwt>
<rscale>  0 0.91008564E+02</rscale>
<asrwt>0</asrwt>
<pdfrwt beam="1">  1        4 0.65645257E-02 0.91008564E+02</pdfrwt>
<pdfrwt beam="2">  1       -4 0.74657676E-02 0.91008564E+02</pdfrwt>
<totfact> 0.27151012E+04</totfact>
</mgrwt>
</event>
<event>
 5    1  0.1247456E+001  0.8978776E+02  0.7546771E-02  0.1303366E+00
         -4   -1    0    0    0  501 -0.00000000000E+00  0.00000000000E+00  0.13081757047E+02  0.13081757047E+02  0.00000000000E+00 0.  1.
          4   -1    0    0  501    0  0.00000000000E+00 -0.00000000000E+00 -0.15406649259E+03  0.15406649259E+03  0.00000000000E+00 0. -1.
         23    2    1    2    0    0  0.00000000000E+00  0.00000000000E+00 -0.14098473554E+03  0.16714824963E+03  0.89787759192E+02 0.  0.
        -11    1    3    3    0    0 -0.17023795299E+02 -0.36017092277E+02 -0.31960549005E+02  0.51073645211E+02  0.00000000000E+00 0.  1.
         11    1    3    3    0    0  0.17023795299E+02  0.36017092277E+02 -0.10902418653E+03  0.11607460442E+03  0.00000000000E+00 0. -1.
<mgrwt>
<rscale>  0 0.89787759E+02</rscale>
<asrwt>0</asrwt>
<pdfrwt beam="2">  1        4 0.23702538E-01 0.89787759E+02</pdfrwt>
<pdfrwt beam="1">  1       -4 0.20125779E-02 0.89787759E+02</pdfrwt>
<totfact> 0.23799652E+04</totfact>
</mgrwt>
</event>
<event>
 5    1  0.1247456E+001  0.9113514E+02  0.7546771E-02  0.1300126E+00
         -1   -1    0    0    0  501 -0.00000000000E+00  0.00000000000E+00  0.15896280876E+02  0.15896280876E+02  0.00000000000E+00 0.  1.
          1   -1    0    0  501    0  0.00000000000E+00 -0.00000000000E+00 -0.13062196431E+03  0.13062196431E+03  0.00000000000E+00 0. -1.
         23    2    1    2    0    0  0.00000000000E+00  0.00000000000E+00 -0.11472568343E+03  0.14651824518E+03  0.91135139944E+02 0.  0.
        -11    1    3    3    0    0 -0.83979925839E+01 -0.43999434286E+02 -0.70806829037E+02  0.83785938767E+02  0.00000000000E+00 0.  1.
         11    1    3    3    0    0  0.83979925839E+01  0.43999434286E+02 -0.43918854397E+02  0.62732306417E+02  0.00000000000E+00 0. -1.
<mgrwt>
<rscale>  0 0.91135140E+02</rscale>
<asrwt>0</asrwt>
<pdfrwt beam="2">  1        1 0.20095687E-01 0.91135140E+02</pdfrwt>
<pdfrwt beam="1">  1       -1 0.24455817E-02 0.91135140E+02</pdfrwt>
<totfact> 0.10949560E+05</totfact>
</mgrwt>
</event>
<event>
 5    1  0.1247456E+001  0.8726859E+02  0.7546771E-02  0.1309604E+00
         -1   -1    0    0    0  501 -0.00000000000E+00  0.00000000000E+00  0.84442326835E+01  0.84442326835E+01  0.00000000000E+00 0.  1.
          1   -1    0    0  501    0  0.00000000000E+00 -0.00000000000E+00 -0.22547363870E+03  0.22547363870E+03  0.00000000000E+00 0. -1.
         23    2    1    2    0    0  0.00000000000E+00  0.00000000000E+00 -0.21702940602E+03  0.23391787139E+03  0.87268593874E+02 0.  0.
        -11    1    3    3    0    0 -0.36108161562E+02  0.23679901794E+02 -0.91686605227E+02  0.10134579744E+03  0.00000000000E+00 0.  1.
         11    1    3    3    0    0  0.36108161562E+02 -0.23679901794E+02 -0.12534280079E+03  0.13257207395E+03  0.00000000000E+00 0. -1.
<mgrwt>
<rscale>  0 0.87268594E+02</rscale>
<asrwt>0</asrwt>
<pdfrwt beam="2">  1        1 0.34688247E-01 0.87268594E+02</pdfrwt>
<pdfrwt beam="1">  1       -1 0.12991129E-02 0.87268594E+02</pdfrwt>
<totfact> 0.13623212E+05</totfact>
</mgrwt>
</event>
<event>
 5    1  0.1247456E+001  0.9068980E+02  0.7546771E-02  0.1301190E+00
         -1   -1    0    0    0  501 -0.00000000000E+00  0.00000000000E+00  0.23015639463E+02  0.23015639463E+02  0.00000000000E+00 0.  1.
          1   -1    0    0  501    0  0.00000000000E+00 -0.00000000000E+00 -0.89337518436E+02  0.89337518436E+02  0.00000000000E+00 0. -1.
         23    2    1    2    0    0  0.00000000000E+00  0.00000000000E+00 -0.66321878973E+02  0.11235315790E+03  0.90689803504E+02 0.  0.
        -11    1    3    3    0    0  0.57599512981E+01  0.44811296417E+02 -0.37947992173E+02  0.59002368050E+02  0.00000000000E+00 0.  1.
         11    1    3    3    0    0 -0.57599512981E+01 -0.44811296417E+02 -0.28373886800E+02  0.53350789850E+02  0.00000000000E+00 0. -1.
<mgrwt>
<rscale>  0 0.90689804E+02</rscale>
<asrwt>0</asrwt>
<pdfrwt beam="2">  1        1 0.13744233E-01 0.90689804E+02</pdfrwt>
<pdfrwt beam="1">  1       -1 0.35408677E-02 0.90689804E+02</pdfrwt>
<totfact> 0.10404959E+05</totfact>
</mgrwt>
</event>
<event>
 5    1  0.1247456E+001  0.8962014E+02  0.7546771E-02  0.1303774E+00
         -2   -1    0    0    0  501 -0.00000000000E+00  0.00000000000E+00  0.14767883656E+02  0.14767883656E+02  0.00000000000E+00 0.  1.
          2   -1    0    0  501    0  0.00000000000E+00 -0.00000000000E+00 -0.13596683915E+03  0.13596683915E+03  0.00000000000E+00 0. -1.
         23    2    1    2    0    0  0.00000000000E+00  0.00000000000E+00 -0.12119895549E+03  0.15073472281E+03  0.89620141968E+02 0.  0.
        -11    1    3    3    0    0  0.24109841659E+02  0.20954889268E+01 -0.12402999225E+03  0.12636896183E+03  0.00000000000E+00 0. -1.
         11    1    3    3    0    0 -0.24109841659E+02 -0.20954889268E+01  0.28310367509E+01  0.24365760972E+02  0.00000000000E+00 0.  1.
<mgrwt>
<rscale>  0 0.89620142E+02</rscale>
<asrwt>0</asrwt>
<pdfrwt beam="2">  1        2 0.20917975E-01 0.89620142E+02</pdfrwt>
<pdfrwt beam="1">  1       -2 0.22719821E-02 0.89620142E+02</pdfrwt>
<totfact> 0.14175010E+05</totfact>
</mgrwt>
</event>
<event>
 5    1  0.1247456E+001  0.8780959E+02  0.7546771E-02  0.1308244E+00
          1   -1    0    0  501    0  0.00000000000E+00  0.00000000000E+00  0.10964232852E+03  0.10964232852E+03  0.00000000000E+00 0. -1.
         -1   -1    0    0    0  501 -0.00000000000E+00 -0.00000000000E+00 -0.17581084775E+02  0.17581084775E+02  0.00000000000E+00 0.  1.
         23    2    1    2    0    0  0.00000000000E+00  0.00000000000E+00  0.92061243741E+02  0.12722341329E+03  0.87809591105E+02 0.  0.
        -13    1    3    3    0    0  0.17606482017E+02  0.28147546783E+02  0.44063743460E+01  0.33491621845E+02  0.00000000000E+00 0. -1.
         13    1    3    3    0    0 -0.17606482017E+02 -0.28147546783E+02  0.87654869395E+02  0.93731791445E+02  0.00000000000E+00 0.  1.
<mgrwt>
<rscale>  0 0.87809591E+02</rscale>
<asrwt>0</asrwt>
<pdfrwt beam="1">  1        1 0.16868050E-01 0.87809591E+02</pdfrwt>
<pdfrwt beam="2">  1       -1 0.27047823E-02 0.87809591E+02</pdfrwt>
<totfact> 0.11746981E+05</totfact>
</mgrwt>
</event>
<event>
 5    1  0.1247456E+001  0.9119048E+02  0.7546771E-02  0.1299994E+00
          2   -1    0    0  501    0  0.00000000000E+00  0.00000000000E+00  0.27290898475E+02  0.27290898475E+02  0.00000000000E+00 0. -1.
         -2   -1    0    0    0  501 -0.00000000000E+00 -0.00000000000E+00 -0.76176523436E+02  0.76176523436E+02  0.00000000000E+00 0.  1.
         23    2    1    2    0    0  0.00000000000E+00  0.00000000000E+00 -0.48885624961E+02  0.10346742191E+03  0.91190476856E+02 0.  0.
        -11    1    3    3    0    0 -0.41108667378E+02 -0.17991630832E+02 -0.33611887829E+02  0.56065856963E+02  0.00000000000E+00 0.  1.
         11    1    3    3    0    0  0.41108667378E+02  0.17991630832E+02 -0.15273737132E+02  0.47401564948E+02  0.00000000000E+00 0. -1.
<mgrwt>
<rscale>  0 0.91190477E+02</rscale>
<asrwt>0</asrwt>
<pdfrwt beam="1">  1        2 0.41985997E-02 0.91190477E+02</pdfrwt>
<pdfrwt beam="2">  1       -2 0.11719465E-01 0.91190477E+02</pdfrwt>
<totfact> 0.86198173E+04</totfact>
</mgrwt>
</event>
<event>
 5    1  0.1247456E+001  0.8990114E+02  0.7546771E-02  0.1303091E+00
         -1   -1    0    0    0  501 -0.00000000000E+00  0.00000000000E+00  0.89980491825E+02  0.89980491825E+02  0.00000000000E+00 0.  1.
          1   -1    0    0  501    0  0.00000000000E+00 -0.00000000000E+00 -0.22455463124E+02  0.22455463124E+02  0.00000000000E+00 0. -1.
         23    2    1    2    0    0  0.00000000000E+00  0.00000000000E+00  0.67525028701E+02  0.11243595495E+03  0.89901137168E+02 0.  0.
        -11    1    3    3    0    0 -0.29321080720E+02  0.27822614358E+02  0.58357351047E+02  0.70988760135E+02  0.00000000000E+00 0.  1.
         11    1    3    3    0    0  0.29321080720E+02 -0.27822614358E+02  0.91676776544E+01  0.41447194814E+02  0.00000000000E+00 0. -1.
<mgrwt>
<rscale>  0 0.89901137E+02</rscale>
<asrwt>0</asrwt>
<pdfrwt beam="2">  1        1 0.34546867E-02 0.89901137E+02</pdfrwt>
<pdfrwt beam="1">  1       -1 0.13843152E-01 0.89901137E+02</pdfrwt>
<totfact> 0.85998736E+04</totfact>
</mgrwt>
</event>
<event>
 5    1  0.1247456E+001  0.9156756E+02  0.7546771E-02  0.1299099E+00
         -2   -1    0    0    0  501 -0.00000000000E+00  0.00000000000E+00  0.10869124729E+02  0.10869124729E+02  0.00000000000E+00 0.  1.
          2   -1    0    0  501    0  0.00000000000E+00 -0.00000000000E+00 -0.19285402396E+03  0.19285402396E+03  0.00000000000E+00 0. -1.
         23    2    1    2    0    0  0.00000000000E+00  0.00000000000E+00 -0.18198489923E+03  0.20372314869E+03  0.91567558469E+02 0.  0.
        -13    1    3    3    0    0 -0.24726944764E+02  0.37860809604E+02 -0.75058535914E+02  0.87627886628E+02  0.00000000000E+00 0.  1.
         13    1    3    3    0    0  0.24726944764E+02 -0.37860809604E+02 -0.10692636332E+03  0.11609526206E+03  0.00000000000E+00 0. -1.
<mgrwt>
<rscale>  0 0.91567558E+02</rscale>
<asrwt>0</asrwt>
<pdfrwt beam="2">  1        2 0.29669851E-01 0.91567558E+02</pdfrwt>
<pdfrwt beam="1">  1       -2 0.16721730E-02 0.91567558E+02</pdfrwt>
<totfact> 0.15091261E+05</totfact>
</mgrwt>
</event>
<event>
 5    1  0.1247456E+001  0.9396788E+02  0.7546771E-02  0.1293518E+00
         -1   -1    0    0    0  501 -0.00000000000E+00  0.00000000000E+00  0.27961472506E+03  0.27961472506E+03  0.00000000000E+00 0.  1.
          1   -1    0    0  501    0  0.00000000000E+00 -0.00000000000E+00 -0.78947588701E+01  0.78947588701E+01  0.00000000000E+00 0. -1.
         23    2    1    2    0    0  0.00000000000E+00  0.00000000000E+00  0.27171996619E+03  0.28750948393E+03  0.93967884533E+02 0.  0.
        -13    1    3    3    0    0 -0.38882924994E+02 -0.40231444147E+01  0.56107734213E+02  0.68382347032E+02  0.00000000000E+00 0. -1.
         13    1    3    3    0    0  0.38882924994E+02  0.40231444147E+01  0.21561223198E+03  0.21912713690E+03  0.00000000000E+00 0.  1.
<mgrwt>
<rscale>  0 0.93967885E+02</rscale>
<asrwt>0</asrwt>
<pdfrwt beam="2">  1        1 0.12145785E-02 0.93967885E+02</pdfrwt>
<pdfrwt beam="1">  1       -1 0.43017642E-01 0.93967885E+02</pdfrwt>
<totfact> 0.57515357E+04</totfact>
</mgrwt>
</event>
<event>
 5    1  0.1247456E+001  0.9133413E+02  0.7546771E-02  0.1299653E+00
          2   -1    0    0  501    0  0.00000000000E+00  0.00000000000E+00  0.13696615900E+02  0.13696615900E+02  0.00000000000E+00 0.  1.
         -2   -1    0    0    0  501 -0.00000000000E+00 -0.00000000000E+00 -0.15226249680E+03  0.15226249680E+03  0.00000000000E+00 0. -1.
         23    2    1    2    0    0  0.00000000000E+00  0.00000000000E+00 -0.13856588090E+03  0.16595911270E+03  0.91334132385E+02 0.  0.
        -13    1    3    3    0    0  0.55549732219E+01 -0.27041880122E+02 -0.31820992612E+01  0.27789328235E+02  0.00000000000E+00 0.  1.
         13    1    3    3    0    0 -0.55549732219E+01  0.27041880122E+02 -0.13538378164E+03  0.13816978447E+03  0.00000000000E+00 0. -1.
<mgrwt>
<rscale>  0 0.91334132E+02</rscale>
<asrwt>0</asrwt>
<pdfrwt beam="1">  1        2 0.21071716E-02 0.91334132E+02</pdfrwt>
<pdfrwt beam="2">  1       -2 0.23425001E-01 0.91334132E+02</pdfrwt>
<totfact> 0.69172337E+04</totfact>
</mgrwt>
</event>
<event>
 5    1  0.1247456E+001  0.9273926E+02  0.7546771E-02  0.1296351E+00
          1   -1    0    0  501    0  0.00000000000E+00  0.00000000000E+00  0.16998514638E+03  0.16998514638E+03  0.00000000000E+00 0. -1.
         -1   -1    0    0    0  501 -0.00000000000E+00 -0.00000000000E+00 -0.12649002530E+02  0.12649002530E+02  0.00000000000E+00 0.  1.
         23    2    1    2    0    0  0.00000000000E+00  0.00000000000E+00  0.15733614385E+03  0.18263414891E+03  0.92739259145E+02 0.  0.
        -13    1    3    3    0    0 -0.25416042213E+02  0.37554268460E+02  0.97745605758E+02  0.10775203815E+03  0.00000000000E+00 0. -1.
         13    1    3    3    0    0  0.25416042213E+02 -0.37554268460E+02  0.59590538095E+02  0.74882110759E+02  0.00000000000E+00 0.  1.
<mgrwt>
<rscale>  0 0.92739259E+02</rscale>
<asrwt>0</asrwt>
<pdfrwt beam="1">  1        1 0.26151559E-01 0.92739259E+02</pdfrwt>
<pdfrwt beam="2">  1       -1 0.19460005E-02 0.92739259E+02</pdfrwt>
<totfact> 0.10963658E+05</totfact>
</mgrwt>
</event>
<event>
 5    1  0.1247456E+001  0.9162770E+02  0.7546771E-02  0.1298957E+00
         -4   -1    0    0    0  501 -0.00000000000E+00  0.00000000000E+00  0.75876884187E+01  0.75876884187E+01  0.00000000000E+00 0.  1.
          4   -1    0    0  501    0  0.00000000000E+00 -0.00000000000E+00 -0.27662030846E+03  0.27662030846E+03  0.00000000000E+00 0. -1.
         23    2    1    2    0    0  0.00000000000E+00  0.00000000000E+00 -0.26903262004E+03  0.28420799688E+03  0.91627696923E+02 0.  0.
        -13    1    3    3    0    0  0.42969952590E+02  0.10968976983E+02 -0.17017633162E+03  0.17585994179E+03  0.00000000000E+00 0. -1.
         13    1    3    3    0    0 -0.42969952590E+02 -0.10968976983E+02 -0.98856288415E+02  0.10834805509E+03  0.00000000000E+00 0.  1.
<mgrwt>
<rscale>  0 0.91627697E+02</rscale>
<asrwt>0</asrwt>
<pdfrwt beam="2">  1        4 0.42556960E-01 0.91627697E+02</pdfrwt>
<pdfrwt beam="1">  1       -4 0.11673370E-02 0.91627697E+02</pdfrwt>
<totfact> 0.18073831E+04</totfact>
</mgrwt>
</event>
<event>
 5    1  0.1247456E+001  0.9196073E+02  0.7546771E-02  0.1298172E+00
         -2   -1    0    0    0  501 -0.00000000000E+00  0.00000000000E+00  0.36172298485E+02  0.36172298485E+02  0.00000000000E+00 0.  1.
          2   -1    0    0  501    0  0.00000000000E+00 -0.00000000000E+00 -0.58447874210E+02  0.58447874210E+02  0.00000000000E+00 0. -1.
         23    2    1    2    0    0  0.00000000000E+00  0.00000000000E+00 -0.22275575725E+02  0.94620172695E+02  0.91960729700E+02 0.  0.
        -13    1    3    3    0    0  0.32207172473E+01 -0.42479380730E+02  0.66635022260E+01  0.43119288825E+02  0.00000000000E+00 0.  1.
         13    1    3    3    0    0 -0.32207172473E+01  0.42479380730E+02 -0.28939077951E+02  0.51500883871E+02  0.00000000000E+00 0. -1.
<mgrwt>
<rscale>  0 0.91960730E+02</rscale>
<asrwt>0</asrwt>
<pdfrwt beam="2">  1        2 0.89919806E-02 0.91960730E+02</pdfrwt>
<pdfrwt beam="1">  1       -2 0.55649690E-02 0.91960730E+02</pdfrwt>
<totfact> 0.10280688E+05</totfact>
</mgrwt>
</event>
<event>
 5    1  0.1247456E+001  0.9246749E+02  0.7546771E-02  0.1296984E+00
         -4   -1    0    0    0  501 -0.00000000000E+00  0.00000000000E+00  0.80464839506E+02  0.80464839506E+02  0.00000000000E+00 0.  1.
          4   -1    0    0  501    0  0.00000000000E+00 -0.00000000000E+00 -0.26565133796E+02  0.26565133796E+02  0.00000000000E+00 0. -1.
         23    2    1    2    0    0  0.00000000000E+00  0.00000000000E+00  0.53899705710E+02  0.10702997330E+03  0.92467491095E+02 0.  0.
        -13    1    3    3    0    0 -0.19219019816E+02 -0.40447787698E+02  0.40256680508E+02  0.60216231847E+02  0.00000000000E+00 0. -1.
         13    1    3    3    0    0  0.19219019816E+02  0.40447787698E+02  0.13643025201E+02  0.46813741455E+02  0.00000000000E+00 0.  1.
<mgrwt>
<rscale>  0 0.92467491E+02</rscale>
<asrwt>0</asrwt>
<pdfrwt beam="2">  1        4 0.40869437E-02 0.92467491E+02</pdfrwt>
<pdfrwt beam="1">  1       -4 0.12379206E-01 0.92467491E+02</pdfrwt>
<totfact> 0.25055378E+04</totfact>
</mgrwt>
</event>
<event>
 5    1  0.1247456E+001  0.9228826E+02  0.7546771E-02  0.1297403E+00
          1   -1    0    0  501    0  0.00000000000E+00  0.00000000000E+00  0.22023889802E+02  0.22023889802E+02  0.00000000000E+00 0. -1.
         -1   -1    0    0    0  501 -0.00000000000E+00 -0.00000000000E+00 -0.96680504469E+02  0.96680504469E+02  0.00000000000E+00 0.  1.
         23    2    1    2    0    0  0.00000000000E+00  0.00000000000E+00 -0.74656614667E+02  0.11870439427E+03  0.92288260931E+02 0.  0.
        -13    1    3    3    0    0 -0.38031543925E+02  0.25899832180E+02 -0.41798993900E+02  0.62163940764E+02  0.00000000000E+00 0. -1.
         13    1    3    3    0    0  0.38031543925E+02 -0.25899832180E+02 -0.32857620766E+02  0.56540453506E+02  0.00000000000E+00 0.  1.
<mgrwt>
<rscale>  0 0.92288261E+02</rscale>
<asrwt>0</asrwt>
<pdfrwt beam="1">  1        1 0.33882908E-02 0.92288261E+02</pdfrwt>
<pdfrwt beam="2">  1       -1 0.14873923E-01 0.92288261E+02</pdfrwt>
<totfact> 0.79362826E+04</totfact>
</mgrwt>
</event>
<event>
 5    1  0.1247456E+001  0.9184692E+02  0.7546771E-02  0.1298440E+00
         -1   -1    0    0    0  501 -0.00000000000E+00  0.00000000000E+00  0.72161780200E+02  0.72161780200E+02  0.00000000000E+00 0.  1.
          1   -1    0    0  501    0  0.00000000000E+00 -0.00000000000E+00 -0.29225500293E+02  0.29225500293E+02  0.00000000000E+00 0. -1.
         23    2    1    2    0    0  0.00000000000E+00  0.00000000000E+00  0.42936279908E+02  0.10138728049E+03  0.91846918911E+02 0.  0.
        -11    1    3    3    0    0 -0.20157790414E+01  0.29986059046E+02 -0.16862421512E+02  0.34461113759E+02  0.00000000000E+00 0. -1.
         11    1    3    3    0    0  0.20157790414E+01 -0.29986059046E+02  0.59798701420E+02  0.66926166734E+02  0.00000000000E+00 0.  1.
<mgrwt>
<rscale>  0 0.91846919E+02</rscale>
<asrwt>0</asrwt>
<pdfrwt beam="2">  1        1 0.44962308E-02 0.91846919E+02</pdfrwt>
<pdfrwt beam="1">  1       -1 0.11101812E-01 0.91846919E+02</pdfrwt>
<totfact> 0.84516729E+04</totfact>
</mgrwt>
</event>
<event>
 5    1  0.1247456E+001  0.9167625E+02  0.7546771E-02  0.1298842E+00
         -1   -1    0    0    0  501 -0.00000000000E+00  0.00000000000E+00  0.74826517291E+02  0.74826517291E+02  0.00000000000E+00 0.  1.
          1   -1    0    0  501    0  0.00000000000E+00 -0.00000000000E+00 -0.28080068114E+02  0.28080068114E+02  0.00000000000E+00 0. -1.
         23    2    1    2    0    0  0.00000000000E+00  0.00000000000E+00  0.46746449177E+02  0.10290658540E+03  0.91676249972E+02 0.  0.
        -13    1    3    3    0    0  0.20540586613E+02 -0.23705693008E+02 -0.14146797742E+02  0.34409409553E+02  0.00000000000E+00 0. -1.
         13    1    3    3    0    0 -0.20540586613E+02  0.23705693008E+02  0.60893246919E+02  0.68497175852E+02  0.00000000000E+00 0.  1.
<mgrwt>
<rscale>  0 0.91676250E+02</rscale>
<asrwt>0</asrwt>
<pdfrwt beam="2">  1        1 0.43200105E-02 0.91676250E+02</pdfrwt>
<pdfrwt beam="1">  1       -1 0.11511772E-01 0.91676250E+02</pdfrwt>
<totfact> 0.84413925E+04</totfact>
</mgrwt>
</event>
<event>
 5    1  0.1247456E+001  0.9114816E+02  0.7546771E-02  0.1300095E+00
         -1   -1    0    0    0  501 -0.00000000000E+00  0.00000000000E+00  0.10226727122E+03  0.10226727122E+03  0.00000000000E+00 0.  1.
          1   -1    0    0  501    0  0.00000000000E+00 -0.00000000000E+00 -0.20309494531E+02  0.20309494531E+02  0.00000000000E+00 0. -1.
         23    2    1    2    0    0  0.00000000000E+00  0.00000000000E+00  0.81957776684E+02  0.12257676575E+03  0.91148155999E+02 0.  0.
        -13    1    3    3    0    0  0.22691371563E+02 -0.35770325983E+02  0.63585347001E+02  0.76403605396E+02  0.00000000000E+00 0.  1.
         13    1    3    3    0    0 -0.22691371563E+02  0.35770325983E+02  0.18372429683E+02  0.46173160351E+02  0.00000000000E+00 0. -1.
<mgrwt>
<rscale>  0 0.91148156E+02</rscale>
<asrwt>0</asrwt>
<pdfrwt beam="2">  1        1 0.31245377E-02 0.91148156E+02</pdfrwt>
<pdfrwt beam="1">  1       -1 0.15733426E-01 0.91148156E+02</pdfrwt>
<totfact> 0.81095996E+04</totfact>
</mgrwt>
</event>
<event>
 5    1  0.1247456E+001  0.9188511E+02  0.7546771E-02  0.1298350E+00
         -2   -1    0    0    0  501 -0.00000000000E+00  0.00000000000E+00  0.24700459530E+03  0.24700459530E+03  0.00000000000E+00 0.  1.
          2   -1    0    0  501    0  0.00000000000E+00 -0.00000000000E+00 -0.85452596528E+01  0.85452596528E+01  0.00000000000E+00 0. -1.
         23    2    1    2    0    0  0.00000000000E+00  0.00000000000E+00  0.23845933564E+03  0.25554985495E+03  0.91885110921E+02 0.  0.
        -13    1    3    3    0    0  0.45630898929E+02  0.49589769571E+01  0.11370355476E+03  0.12261838669E+03  0.00000000000E+00 0.  1.
         13    1    3    3    0    0 -0.45630898929E+02 -0.49589769571E+01  0.12475578089E+03  0.13293146826E+03  0.00000000000E+00 0. -1.
<mgrwt>
<rscale>  0 0.91885111E+02</rscale>
<asrwt>0</asrwt>
<pdfrwt beam="2">  1        2 0.13146555E-02 0.91885111E+02</pdfrwt>
<pdfrwt beam="1">  1       -2 0.38000702E-01 0.91885111E+02</pdfrwt>
<totfact> 0.55402542E+04</totfact>
</mgrwt>
</event>
<event>
 5    1  0.1247456E+001  0.8967051E+02  0.7546771E-02  0.1303652E+00
          3   -1    0    0  501    0  0.00000000000E+00  0.00000000000E+00  0.48829899226E+02  0.48829899226E+02  0.00000000000E+00 0. -1.
         -3   -1    0    0    0  501 -0.00000000000E+00 -0.00000000000E+00 -0.41167402402E+02  0.41167402402E+02  0.00000000000E+00 0.  1.
         23    2    1    2    0    0  0.00000000000E+00  0.00000000000E+00  0.76624968238E+01  0.89997301628E+02  0.89670510441E+02 0.  0.
        -11    1    3    3    0    0 -0.54237324383E+01  0.35490691273E+02 -0.23121677647E+02  0.42703840785E+02  0.00000000000E+00 0.  1.
         11    1    3    3    0    0  0.54237324383E+01 -0.35490691273E+02  0.30784174471E+02  0.47293460843E+02  0.00000000000E+00 0. -1.
<mgrwt>
<rscale>  0 0.89670510E+02</rscale>
<asrwt>0</asrwt>
<pdfrwt beam="1">  1        3 0.75122921E-02 0.89670510E+02</pdfrwt>
<pdfrwt beam="2">  1       -3 0.63334466E-02 0.89670510E+02</pdfrwt>
<totfact> 0.37071231E+04</totfact>
</mgrwt>
</event>
<event>
 5    1  0.1247456E+001  0.8938255E+02  0.7546771E-02  0.1304354E+00
          1   -1    0    0  501    0  0.00000000000E+00  0.00000000000E+00  0.26904117690E+02  0.26904117690E+02  0.00000000000E+00 0. -1.
         -1   -1    0    0    0  501 -0.00000000000E+00 -0.00000000000E+00 -0.74238083337E+02  0.74238083337E+02  0.00000000000E+00 0.  1.
         23    2    1    2    0    0  0.00000000000E+00  0.00000000000E+00 -0.47333965647E+02  0.10114220103E+03  0.89382551568E+02 0.  0.
        -13    1    3    3    0    0  0.32996767298E+02  0.10786775584E+02  0.81814862146E+01  0.35666201035E+02  0.00000000000E+00 0. -1.
         13    1    3    3    0    0 -0.32996767298E+02 -0.10786775584E+02 -0.55515451862E+02  0.65475999993E+02  0.00000000000E+00 0.  1.
<mgrwt>
<rscale>  0 0.89382552E+02</rscale>
<asrwt>0</asrwt>
<pdfrwt beam="1">  1        1 0.41390950E-02 0.89382552E+02</pdfrwt>
<pdfrwt beam="2">  1       -1 0.11421244E-01 0.89382552E+02</pdfrwt>
<totfact> 0.90171614E+04</totfact>
</mgrwt>
</event>
<event>
 5    1  0.1247456E+001  0.7938494E+02  0.7546771E-02  0.1330806E+00
         -4   -1    0    0    0  501 -0.00000000000E+00  0.00000000000E+00  0.11554691455E+03  0.11554691455E+03  0.00000000000E+00 0.  1.
          4   -1    0    0  501    0  0.00000000000E+00 -0.00000000000E+00 -0.13635085740E+02  0.13635085740E+02  0.00000000000E+00 0. -1.
         23    2    1    2    0    0  0.00000000000E+00  0.00000000000E+00  0.10191182882E+03  0.12918200029E+03  0.79384937789E+02 0.  0.
        -11    1    3    3    0    0 -0.36926317771E+02  0.13904648890E+02  0.43937823467E+02  0.59054420121E+02  0.00000000000E+00 0. -1.
         11    1    3    3    0    0  0.36926317771E+02 -0.13904648890E+02  0.57974005349E+02  0.70127580174E+02  0.00000000000E+00 0.  1.
<mgrwt>
<rscale>  0 0.79384938E+02</rscale>
<asrwt>0</asrwt>
<pdfrwt beam="2">  1        4 0.20977056E-02 0.79384938E+02</pdfrwt>
<pdfrwt beam="1">  1       -4 0.17776448E-01 0.79384938E+02</pdfrwt>
<totfact> 0.35836114E+04</totfact>
</mgrwt>
</event>
<event>
 5    1  0.1247456E+001  0.8918256E+02  0.7546771E-02  0.1304843E+00
         -2   -1    0    0    0  501 -0.00000000000E+00  0.00000000000E+00  0.30410247378E+02  0.30410247378E+02  0.00000000000E+00 0.  1.
          2   -1    0    0  501    0  0.00000000000E+00 -0.00000000000E+00 -0.65385266911E+02  0.65385266911E+02  0.00000000000E+00 0. -1.
         23    2    1    2    0    0  0.00000000000E+00  0.00000000000E+00 -0.34975019534E+02  0.95795514289E+02  0.89182557524E+02 0.  0.
        -11    1    3    3    0    0  0.79936439918E+01 -0.40279843246E+02  0.11797977808E+01  0.41082308102E+02  0.00000000000E+00 0.  1.
         11    1    3    3    0    0 -0.79936439918E+01  0.40279843246E+02 -0.36154817314E+02  0.54713206187E+02  0.00000000000E+00 0. -1.
<mgrwt>
<rscale>  0 0.89182558E+02</rscale>
<asrwt>0</asrwt>
<pdfrwt beam="2">  1        2 0.10059272E-01 0.89182558E+02</pdfrwt>
<pdfrwt beam="1">  1       -2 0.46784996E-02 0.89182558E+02</pdfrwt>
<totfact> 0.11549960E+05</totfact>
</mgrwt>
</event>
<event>
 5    1  0.1247456E+001  0.5922356E+02  0.7546771E-02  0.1401119E+00
          3   -1    0    0  501    0  0.00000000000E+00  0.00000000000E+00  0.54762190013E+02  0.54762190013E+02  0.00000000000E+00 0. -1.
         -3   -1    0    0    0  501 -0.00000000000E+00 -0.00000000000E+00 -0.16012095842E+02  0.16012095842E+02  0.00000000000E+00 0.  1.
         23    2    1    2    0    0  0.00000000000E+00  0.00000000000E+00  0.38750094172E+02  0.70774285855E+02  0.59223557306E+02 0.  0.
        -13    1    3    3    0    0 -0.28595763087E+02 -0.75455913972E+01  0.17600984403E+02  0.34415814214E+02  0.00000000000E+00 0. -1.
         13    1    3    3    0    0  0.28595763087E+02  0.75455913972E+01  0.21149109768E+02  0.36358471641E+02  0.00000000000E+00 0.  1.
<mgrwt>
<rscale>  0 0.59223557E+02</rscale>
<asrwt>0</asrwt>
<pdfrwt beam="1">  1        3 0.84249522E-02 0.59223557E+02</pdfrwt>
<pdfrwt beam="2">  1       -3 0.24633994E-02 0.59223557E+02</pdfrwt>
<totfact> 0.11633029E+05</totfact>
</mgrwt>
</event>
<event>
 5    1  0.1247456E+001  0.8922923E+02  0.7546771E-02  0.1304729E+00
         -4   -1    0    0    0  501 -0.00000000000E+00  0.00000000000E+00  0.12081856890E+03  0.12081856890E+03  0.00000000000E+00 0.  1.
          4   -1    0    0  501    0  0.00000000000E+00 -0.00000000000E+00 -0.16474816223E+02  0.16474816223E+02  0.00000000000E+00 0. -1.
         23    2    1    2    0    0  0.00000000000E+00  0.00000000000E+00  0.10434375267E+03  0.13729338512E+03  0.89229226578E+02 0.  0.
        -11    1    3    3    0    0  0.37729106833E+02 -0.21786425290E+02  0.66956614670E+02  0.79883177687E+02  0.00000000000E+00 0. -1.
         11    1    3    3    0    0 -0.37729106833E+02  0.21786425290E+02  0.37387138003E+02  0.57410207432E+02  0.00000000000E+00 0.  1.
<mgrwt>
<rscale>  0 0.89229227E+02</rscale>
<asrwt>0</asrwt>
<pdfrwt beam="2">  1        4 0.25345872E-02 0.89229227E+02</pdfrwt>
<pdfrwt beam="1">  1       -4 0.18587472E-01 0.89229227E+02</pdfrwt>
<totfact> 0.25780168E+04</totfact>
</mgrwt>
</event>
<event>
 5    1  0.1247456E+001  0.9075914E+02  0.7546771E-02  0.1301024E+00
          2   -1    0    0  501    0  0.00000000000E+00  0.00000000000E+00  0.22810301883E+03  0.22810301883E+03  0.00000000000E+00 0.  1.
         -2   -1    0    0    0  501 -0.00000000000E+00 -0.00000000000E+00 -0.90279622326E+01  0.90279622326E+01  0.00000000000E+00 0. -1.
         23    2    1    2    0    0  0.00000000000E+00  0.00000000000E+00  0.21907505660E+03  0.23713098106E+03  0.90759141448E+02 0.  0.
        -13    1    3    3    0    0 -0.10632164669E+02 -0.42167937611E+02  0.14341549703E+03  0.14986388049E+03  0.00000000000E+00 0.  1.
         13    1    3    3    0    0  0.10632164669E+02  0.42167937611E+02  0.75659559565E+02  0.87267100568E+02  0.00000000000E+00 0. -1.
<mgrwt>
<rscale>  0 0.90759141E+02</rscale>
<asrwt>0</asrwt>
<pdfrwt beam="1">  1        2 0.35092768E-01 0.90759141E+02</pdfrwt>
<pdfrwt beam="2">  1       -2 0.13889174E-02 0.90759141E+02</pdfrwt>
<totfact> 0.16429075E+05</totfact>
</mgrwt>
</event>
<event>
 5    1  0.1247456E+001  0.9087946E+02  0.7546771E-02  0.1300736E+00
          1   -1    0    0  501    0  0.00000000000E+00  0.00000000000E+00  0.29506688167E+02  0.29506688167E+02  0.00000000000E+00 0. -1.
         -1   -1    0    0    0  501 -0.00000000000E+00 -0.00000000000E+00 -0.69976306707E+02  0.69976306707E+02  0.00000000000E+00 0.  1.
         23    2    1    2    0    0  0.00000000000E+00  0.00000000000E+00 -0.40469618540E+02  0.99482994874E+02  0.90879459969E+02 0.  0.
        -13    1    3    3    0    0  0.30480570246E+02 -0.32555470363E+02 -0.29768197978E+02  0.53619673852E+02  0.00000000000E+00 0.  1.
         13    1    3    3    0    0 -0.30480570246E+02  0.32555470363E+02 -0.10701420562E+02  0.45863321022E+02  0.00000000000E+00 0. -1.
<mgrwt>
<rscale>  0 0.90879460E+02</rscale>
<asrwt>0</asrwt>
<pdfrwt beam="1">  1        1 0.45394905E-02 0.90879460E+02</pdfrwt>
<pdfrwt beam="2">  1       -1 0.10765586E-01 0.90879460E+02</pdfrwt>
<totfact> 0.87267771E+04</totfact>
</mgrwt>
</event>
<event>
 5    1  0.1247456E+001  0.9025314E+02  0.7546771E-02  0.1302240E+00
         -2   -1    0    0    0  501 -0.00000000000E+00  0.00000000000E+00  0.14619079420E+03  0.14619079420E+03  0.00000000000E+00 0.  1.
          2   -1    0    0  501    0  0.00000000000E+00 -0.00000000000E+00 -0.13929791945E+02  0.13929791945E+02  0.00000000000E+00 0. -1.
         23    2    1    2    0    0  0.00000000000E+00  0.00000000000E+00  0.13226100226E+03  0.16012058615E+03  0.90253140610E+02 0.  0.
        -13    1    3    3    0    0 -0.43027575853E+02 -0.10204961588E+02  0.82087180819E+02  0.93240649824E+02  0.00000000000E+00 0.  1.
         13    1    3    3    0    0  0.43027575853E+02  0.10204961588E+02  0.50173821441E+02  0.66879936325E+02  0.00000000000E+00 0. -1.
<mgrwt>
<rscale>  0 0.90253141E+02</rscale>
<asrwt>0</asrwt>
<pdfrwt beam="2">  1        2 0.21430450E-02 0.90253141E+02</pdfrwt>
<pdfrwt beam="1">  1       -2 0.22490890E-01 0.90253141E+02</pdfrwt>
<totfact> 0.72347317E+04</totfact>
</mgrwt>
</event>
<event>
 5    1  0.1247456E+001  0.9808626E+02  0.7546771E-02  0.1284373E+00
          2   -1    0    0  501    0  0.00000000000E+00  0.00000000000E+00  0.14299671522E+03  0.14299671522E+03  0.00000000000E+00 0. -1.
         -2   -1    0    0    0  501 -0.00000000000E+00 -0.00000000000E+00 -0.16820167558E+02  0.16820167558E+02  0.00000000000E+00 0.  1.
         23    2    1    2    0    0  0.00000000000E+00  0.00000000000E+00  0.12617654766E+03  0.15981688278E+03  0.98086262243E+02 0.  0.
        -13    1    3    3    0    0  0.15515448300E+02 -0.39361021314E+02  0.10350173190E+03  0.11181514943E+03  0.00000000000E+00 0. -1.
         13    1    3    3    0    0 -0.15515448300E+02  0.39361021314E+02  0.22674815761E+02  0.48001733350E+02  0.00000000000E+00 0.  1.
<mgrwt>
<rscale>  0 0.98086262E+02</rscale>
<asrwt>0</asrwt>
<pdfrwt beam="1">  1        2 0.21999494E-01 0.98086262E+02</pdfrwt>
<pdfrwt beam="2">  1       -2 0.25877182E-02 0.98086262E+02</pdfrwt>
<totfact> 0.11266993E+05</totfact>
</mgrwt>
</event>
<event>
 5    1  0.1247456E+001  0.1218819E+03  0.7546771E-02  0.1240024E+00
         -1   -1    0    0    0  501 -0.00000000000E+00  0.00000000000E+00  0.11957710318E+02  0.11957710318E+02  0.00000000000E+00 0.  1.
          1   -1    0    0  501    0  0.00000000000E+00 -0.00000000000E+00 -0.31057757244E+03  0.31057757244E+03  0.00000000000E+00 0. -1.
         23    2    1    2    0    0  0.00000000000E+00  0.00000000000E+00 -0.29861986212E+03  0.32253528276E+03  0.12188185497E+03 0.  0.
        -11    1    3    3    0    0 -0.26867505579E+02 -0.54593371242E+02 -0.15828301699E+03  0.16957538886E+03  0.00000000000E+00 0.  1.
         11    1    3    3    0    0  0.26867505579E+02  0.54593371242E+02 -0.14033684513E+03  0.15295989390E+03  0.00000000000E+00 0. -1.
<mgrwt>
<rscale>  0 0.12188185E+03</rscale>
<asrwt>0</asrwt>
<pdfrwt beam="2">  1        1 0.47781164E-01 0.12188185E+03</pdfrwt>
<pdfrwt beam="1">  1       -1 0.18396478E-02 0.12188185E+03</pdfrwt>
<totfact> 0.58818174E+04</totfact>
</mgrwt>
</event>
<event>
 5    1  0.1247456E+001  0.9081412E+02  0.7546771E-02  0.1300892E+00
         -1   -1    0    0    0  501 -0.00000000000E+00  0.00000000000E+00  0.96311118554E+02  0.96311118554E+02  0.00000000000E+00 0.  1.
          1   -1    0    0  501    0  0.00000000000E+00 -0.00000000000E+00 -0.21407716042E+02  0.21407716042E+02  0.00000000000E+00 0. -1.
         23    2    1    2    0    0  0.00000000000E+00  0.00000000000E+00  0.74903402512E+02  0.11771883460E+03  0.90814119557E+02 0.  0.
        -11    1    3    3    0    0  0.24484440627E+02 -0.11593428449E+02  0.84688035658E+02  0.88915458721E+02  0.00000000000E+00 0.  1.
         11    1    3    3    0    0 -0.24484440627E+02  0.11593428449E+02 -0.97846331457E+01  0.28803375876E+02  0.00000000000E+00 0. -1.
<mgrwt>
<rscale>  0 0.90814120E+02</rscale>
<asrwt>0</asrwt>
<pdfrwt beam="2">  1        1 0.32934948E-02 0.90814120E+02</pdfrwt>
<pdfrwt beam="1">  1       -1 0.14817095E-01 0.90814120E+02</pdfrwt>
<totfact> 0.82780732E+04</totfact>
</mgrwt>
</event>
<event>
 5    1  0.1247456E+001  0.9618028E+02  0.7546771E-02  0.1288540E+00
          2   -1    0    0  501    0  0.00000000000E+00  0.00000000000E+00  0.52700512559E+02  0.52700512559E+02  0.00000000000E+00 0. -1.
         -2   -1    0    0    0  501 -0.00000000000E+00 -0.00000000000E+00 -0.43883096078E+02  0.43883096078E+02  0.00000000000E+00 0.  1.
         23    2    1    2    0    0  0.00000000000E+00  0.00000000000E+00  0.88174164809E+01  0.96583608637E+02  0.96180281888E+02 0.  0.
        -13    1    3    3    0    0  0.20761090686E+02  0.32251105279E+02 -0.24721643385E+02  0.45632404384E+02  0.00000000000E+00 0.  1.
         13    1    3    3    0    0 -0.20761090686E+02 -0.32251105279E+02  0.33539059866E+02  0.50951204254E+02  0.00000000000E+00 0. -1.
<mgrwt>
<rscale>  0 0.96180282E+02</rscale>
<asrwt>0</asrwt>
<pdfrwt beam="1">  1        2 0.81077712E-02 0.96180282E+02</pdfrwt>
<pdfrwt beam="2">  1       -2 0.67512455E-02 0.96180282E+02</pdfrwt>
<totfact> 0.87960662E+04</totfact>
</mgrwt>
</event>
<event>
 5    1  0.1247456E+001  0.8470965E+02  0.7546771E-02  0.1316194E+00
          1   -1    0    0  501    0  0.00000000000E+00  0.00000000000E+00  0.40200551532E+02  0.40200551532E+02  0.00000000000E+00 0.  1.
         -1   -1    0    0    0  501 -0.00000000000E+00 -0.00000000000E+00 -0.44624547058E+02  0.44624547058E+02  0.00000000000E+00 0. -1.
         23    2    1    2    0    0  0.00000000000E+00  0.00000000000E+00 -0.44239955261E+01  0.84825098590E+02  0.84709654788E+02 0.  0.
        -13    1    3    3    0    0 -0.19693403686E+02  0.13236616089E+02  0.32919903711E+02  0.40580268784E+02  0.00000000000E+00 0.  1.
         13    1    3    3    0    0  0.19693403686E+02 -0.13236616089E+02 -0.37343899237E+02  0.44244829805E+02  0.00000000000E+00 0. -1.
<mgrwt>
<rscale>  0 0.84709655E+02</rscale>
<asrwt>0</asrwt>
<pdfrwt beam="1">  1        1 0.61847002E-02 0.84709655E+02</pdfrwt>
<pdfrwt beam="2">  1       -1 0.68653149E-02 0.84709655E+02</pdfrwt>
<totfact> 0.11152358E+05</totfact>
</mgrwt>
</event>
<event>
 5    1  0.1247456E+001  0.9176146E+02  0.7546771E-02  0.1298641E+00
         -2   -1    0    0    0  501 -0.00000000000E+00  0.00000000000E+00  0.32570921370E+02  0.32570921370E+02  0.00000000000E+00 0.  1.
          2   -1    0    0  501    0  0.00000000000E+00 -0.00000000000E+00 -0.64629466774E+02  0.64629466774E+02  0.00000000000E+00 0. -1.
         23    2    1    2    0    0  0.00000000000E+00  0.00000000000E+00 -0.32058545404E+02  0.97200388145E+02  0.91761457715E+02 0.  0.
        -11    1    3    3    0    0  0.15075749546E+02 -0.41084179441E+02 -0.14338485735E+01  0.43786344292E+02  0.00000000000E+00 0.  1.
         11    1    3    3    0    0 -0.15075749546E+02  0.41084179441E+02 -0.30624696831E+02  0.53414043853E+02  0.00000000000E+00 0. -1.
<mgrwt>
<rscale>  0 0.91761458E+02</rscale>
<asrwt>0</asrwt>
<pdfrwt beam="2">  1        2 0.99429948E-02 0.91761458E+02</pdfrwt>
<pdfrwt beam="1">  1       -2 0.50109110E-02 0.91761458E+02</pdfrwt>
<totfact> 0.10629252E+05</totfact>
</mgrwt>
</event>
<event>
 5    1  0.1247456E+001  0.8997798E+02  0.7546771E-02  0.1302905E+00
          1   -1    0    0  501    0  0.00000000000E+00  0.00000000000E+00  0.32266391396E+03  0.32266391396E+03  0.00000000000E+00 0. -1.
         -1   -1    0    0    0  501 -0.00000000000E+00 -0.00000000000E+00 -0.62728097969E+01  0.62728097969E+01  0.00000000000E+00 0.  1.
         23    2    1    2    0    0  0.00000000000E+00  0.00000000000E+00  0.31639110416E+03  0.32893672376E+03  0.89977983098E+02 0.  0.
        -13    1    3    3    0    0  0.35367723954E+02 -0.24694345007E+02  0.11147591071E+03  0.11953060378E+03  0.00000000000E+00 0.  1.
         13    1    3    3    0    0 -0.35367723954E+02  0.24694345007E+02  0.20491519345E+03  0.20940611997E+03  0.00000000000E+00 0. -1.
<mgrwt>
<rscale>  0 0.89977983E+02</rscale>
<asrwt>0</asrwt>
<pdfrwt beam="1">  1        1 0.49640589E-01 0.89977983E+02</pdfrwt>
<pdfrwt beam="2">  1       -1 0.96504791E-03 0.89977983E+02</pdfrwt>
<totfact> 0.13454451E+05</totfact>
</mgrwt>
</event>
<event>
 5    1  0.1247456E+001  0.9079381E+02  0.7546771E-02  0.1300941E+00
         -4   -1    0    0    0  501 -0.00000000000E+00  0.00000000000E+00  0.56417746152E+02  0.56417746152E+02  0.00000000000E+00 0.  1.
          4   -1    0    0  501    0  0.00000000000E+00 -0.00000000000E+00 -0.36528915416E+02  0.36528915416E+02  0.00000000000E+00 0. -1.
         23    2    1    2    0    0  0.00000000000E+00  0.00000000000E+00  0.19888830736E+02  0.92946661569E+02  0.90793812062E+02 0.  0.
        -13    1    3    3    0    0  0.84659773632E+01 -0.32678968374E+02  0.41016903941E+02  0.53122256688E+02  0.00000000000E+00 0.  1.
         13    1    3    3    0    0 -0.84659773632E+01  0.32678968374E+02 -0.21128073205E+02  0.39824404880E+02  0.00000000000E+00 0. -1.
<mgrwt>
<rscale>  0 0.90793812E+02</rscale>
<asrwt>0</asrwt>
<pdfrwt beam="2">  1        4 0.56198332E-02 0.90793812E+02</pdfrwt>
<pdfrwt beam="1">  1       -4 0.86796532E-02 0.90793812E+02</pdfrwt>
<totfact> 0.27211683E+04</totfact>
</mgrwt>
</event>
<event>
 5    1  0.1247456E+001  0.9245383E+02  0.7546771E-02  0.1297016E+00
         -3   -1    0    0    0  501 -0.00000000000E+00  0.00000000000E+00  0.36629238468E+02  0.36629238468E+02  0.00000000000E+00 0.  1.
          3   -1    0    0  501    0  0.00000000000E+00 -0.00000000000E+00 -0.58339393176E+02  0.58339393176E+02  0.00000000000E+00 0. -1.
         23    2    1    2    0    0  0.00000000000E+00  0.00000000000E+00 -0.21710154708E+02  0.94968631643E+02  0.92453827280E+02 0.  0.
        -13    1    3    3    0    0 -0.29028830900E+02 -0.21994842083E+02  0.18388252576E+02  0.40799190365E+02  0.00000000000E+00 0.  1.
         13    1    3    3    0    0  0.29028830900E+02  0.21994842083E+02 -0.40098407284E+02  0.54169441278E+02  0.00000000000E+00 0. -1.
<mgrwt>
<rscale>  0 0.92453827E+02</rscale>
<asrwt>0</asrwt>
<pdfrwt beam="2">  1        3 0.89752912E-02 0.92453827E+02</pdfrwt>
<pdfrwt beam="1">  1       -3 0.56352675E-02 0.92453827E+02</pdfrwt>
<totfact> 0.33743428E+04</totfact>
</mgrwt>
</event>
<event>
 5    1  0.1247456E+001  0.9809380E+02  0.7546771E-02  0.1284356E+00
         -1   -1    0    0    0  501 -0.00000000000E+00  0.00000000000E+00  0.39738695583E+02  0.39738695583E+02  0.00000000000E+00 0.  1.
          1   -1    0    0  501    0  0.00000000000E+00 -0.00000000000E+00 -0.60535414571E+02  0.60535414571E+02  0.00000000000E+00 0. -1.
         23    2    1    2    0    0  0.00000000000E+00  0.00000000000E+00 -0.20796718988E+02  0.10027411015E+03  0.98093800245E+02 0.  0.
        -11    1    3    3    0    0  0.28218990188E+02  0.26686958335E+02  0.20218881565E+02  0.43787079420E+02  0.00000000000E+00 0.  1.
         11    1    3    3    0    0 -0.28218990188E+02 -0.26686958335E+02 -0.41015600554E+02  0.56487030734E+02  0.00000000000E+00 0. -1.
<mgrwt>
<rscale>  0 0.98093800E+02</rscale>
<asrwt>0</asrwt>
<pdfrwt beam="2">  1        1 0.93131407E-02 0.98093800E+02</pdfrwt>
<pdfrwt beam="1">  1       -1 0.61136455E-02 0.98093800E+02</pdfrwt>
<totfact> 0.78690090E+04</totfact>
</mgrwt>
</event>
<event>
 5    1  0.1247456E+001  0.9064208E+02  0.7546771E-02  0.1301304E+00
          1   -1    0    0  501    0  0.00000000000E+00  0.00000000000E+00  0.29377686477E+02  0.29377686477E+02  0.00000000000E+00 0. -1.
         -1   -1    0    0    0  501 -0.00000000000E+00 -0.00000000000E+00 -0.69916903578E+02  0.69916903578E+02  0.00000000000E+00 0.  1.
         23    2    1    2    0    0  0.00000000000E+00  0.00000000000E+00 -0.40539217100E+02  0.99294590055E+02  0.90642084548E+02 0.  0.
        -13    1    3    3    0    0  0.20436248698E+02 -0.18050494553E+02 -0.59926641938E+02  0.65838157845E+02  0.00000000000E+00 0.  1.
         13    1    3    3    0    0 -0.20436248698E+02  0.18050494553E+02  0.19387424837E+02  0.33456432211E+02  0.00000000000E+00 0. -1.
<mgrwt>
<rscale>  0 0.90642085E+02</rscale>
<asrwt>0</asrwt>
<pdfrwt beam="1">  1        1 0.45196441E-02 0.90642085E+02</pdfrwt>
<pdfrwt beam="2">  1       -1 0.10756447E-01 0.90642085E+02</pdfrwt>
<totfact> 0.87862901E+04</totfact>
</mgrwt>
</event>
<event>
 5    1  0.1247456E+001  0.9225277E+02  0.7546771E-02  0.1297486E+00
          1   -1    0    0  501    0  0.00000000000E+00  0.00000000000E+00  0.15220420305E+03  0.15220420305E+03  0.00000000000E+00 0.  1.
         -1   -1    0    0    0  501 -0.00000000000E+00 -0.00000000000E+00 -0.13978872652E+02  0.13978872652E+02  0.00000000000E+00 0. -1.
         23    2    1    2    0    0  0.00000000000E+00  0.00000000000E+00  0.13822533040E+03  0.16618307570E+03  0.92252765194E+02 0.  0.
        -11    1    3    3    0    0  0.38150193260E+02 -0.24372983542E+02  0.53186556560E+02  0.69844751923E+02  0.00000000000E+00 0.  1.
         11    1    3    3    0    0 -0.38150193260E+02  0.24372983542E+02  0.85038773839E+02  0.96338323779E+02  0.00000000000E+00 0. -1.
<mgrwt>
<rscale>  0 0.92252765E+02</rscale>
<asrwt>0</asrwt>
<pdfrwt beam="1">  1        1 0.23416030E-01 0.92252765E+02</pdfrwt>
<pdfrwt beam="2">  1       -1 0.21505959E-02 0.92252765E+02</pdfrwt>
<totfact> 0.10892746E+05</totfact>
</mgrwt>
</event>
<event>
 5    1  0.1247456E+001  0.8546354E+02  0.7546771E-02  0.1314225E+00
         -2   -1    0    0    0  501 -0.00000000000E+00  0.00000000000E+00  0.10233171916E+02  0.10233171916E+02  0.00000000000E+00 0.  1.
          2   -1    0    0  501    0  0.00000000000E+00 -0.00000000000E+00 -0.17843969702E+03  0.17843969702E+03  0.00000000000E+00 0. -1.
         23    2    1    2    0    0  0.00000000000E+00  0.00000000000E+00 -0.16820652511E+03  0.18867286894E+03  0.85463538339E+02 0.  0.
        -13    1    3    3    0    0  0.37403567667E+02  0.18084516102E+02 -0.62034850011E+02  0.74661899338E+02  0.00000000000E+00 0.  1.
         13    1    3    3    0    0 -0.37403567667E+02 -0.18084516102E+02 -0.10617167510E+03  0.11401096960E+03  0.00000000000E+00 0. -1.
<mgrwt>
<rscale>  0 0.85463538E+02</rscale>
<asrwt>0</asrwt>
<pdfrwt beam="2">  1        2 0.27452263E-01 0.85463538E+02</pdfrwt>
<pdfrwt beam="1">  1       -2 0.15743341E-02 0.85463538E+02</pdfrwt>
<totfact> 0.17669766E+05</totfact>
</mgrwt>
</event>
<event>
 5    1  0.1247456E+001  0.8774598E+02  0.7546771E-02  0.1308404E+00
          1   -1    0    0  501    0  0.00000000000E+00  0.00000000000E+00  0.16735519169E+03  0.16735519169E+03  0.00000000000E+00 0.  1.
         -1   -1    0    0    0  501 -0.00000000000E+00 -0.00000000000E+00 -0.11501521995E+02  0.11501521995E+02  0.00000000000E+00 0. -1.
         23    2    1    2    0    0  0.00000000000E+00  0.00000000000E+00  0.15585366969E+03  0.17885671368E+03  0.87745983798E+02 0.  0.
        -11    1    3    3    0    0 -0.27684085042E+02 -0.26974883690E+02  0.12023352437E+03  0.12629391632E+03  0.00000000000E+00 0.  1.
         11    1    3    3    0    0  0.27684085042E+02  0.26974883690E+02  0.35620145319E+02  0.52562797369E+02  0.00000000000E+00 0. -1.
<mgrwt>
<rscale>  0 0.87745984E+02</rscale>
<asrwt>0</asrwt>
<pdfrwt beam="1">  1        1 0.25746951E-01 0.87745984E+02</pdfrwt>
<pdfrwt beam="2">  1       -1 0.17694650E-02 0.87745984E+02</pdfrwt>
<totfact> 0.12684283E+05</totfact>
</mgrwt>
</event>
<event>
 5    1  0.1247456E+001  0.8231234E+02  0.7546771E-02  0.1322615E+00
         -1   -1    0    0    0  501 -0.00000000000E+00  0.00000000000E+00  0.40699968052E+01  0.40699968052E+01  0.00000000000E+00 0.  1.
          1   -1    0    0  501    0  0.00000000000E+00 -0.00000000000E+00 -0.41617483181E+03  0.41617483181E+03  0.00000000000E+00 0. -1.
         23    2    1    2    0    0  0.00000000000E+00  0.00000000000E+00 -0.41210483501E+03  0.42024482862E+03  0.82312337735E+02 0.  0.
        -11    1    3    3    0    0  0.33421763889E+02  0.23997763687E+02 -0.20114670180E+03  0.20531172058E+03  0.00000000000E+00 0. -1.
         11    1    3    3    0    0 -0.33421763889E+02 -0.23997763687E+02 -0.21095813321E+03  0.21493310804E+03  0.00000000000E+00 0.  1.
<mgrwt>
<rscale>  0 0.82312338E+02</rscale>
<asrwt>0</asrwt>
<pdfrwt beam="2">  1        1 0.64026858E-01 0.82312338E+02</pdfrwt>
<pdfrwt beam="1">  1       -1 0.62615374E-03 0.82312338E+02</pdfrwt>
<totfact> 0.17783447E+05</totfact>
</mgrwt>
</event>
<event>
 5    1  0.1247456E+001  0.8954323E+02  0.7546771E-02  0.1303962E+00
         -2   -1    0    0    0  501 -0.00000000000E+00  0.00000000000E+00  0.25064976464E+02  0.25064976464E+02  0.00000000000E+00 0. -1.
          2   -1    0    0  501    0  0.00000000000E+00 -0.00000000000E+00 -0.79972041599E+02  0.79972041599E+02  0.00000000000E+00 0.  1.
         23    2    1    2    0    0  0.00000000000E+00  0.00000000000E+00 -0.54907065135E+02  0.10503701806E+03  0.89543226220E+02 0.  0.
        -11    1    3    3    0    0  0.20065144601E+02  0.78809296238E+01  0.18576230345E+02  0.28456904495E+02  0.00000000000E+00 0. -1.
         11    1    3    3    0    0 -0.20065144601E+02 -0.78809296238E+01 -0.73483295479E+02  0.76580113568E+02  0.00000000000E+00 0.  1.
<mgrwt>
<rscale>  0 0.89543226E+02</rscale>
<asrwt>0</asrwt>
<pdfrwt beam="2">  1        2 0.12303391E-01 0.89543226E+02</pdfrwt>
<pdfrwt beam="1">  1       -2 0.38561502E-02 0.89543226E+02</pdfrwt>
<totfact> 0.12074887E+05</totfact>
</mgrwt>
</event>
<event>
 5    1  0.1247456E+001  0.9288809E+02  0.7546771E-02  0.1296005E+00
          1   -1    0    0  501    0  0.00000000000E+00  0.00000000000E+00  0.17545993326E+03  0.17545993326E+03  0.00000000000E+00 0. -1.
         -1   -1    0    0    0  501 -0.00000000000E+00 -0.00000000000E+00 -0.12293685537E+02  0.12293685537E+02  0.00000000000E+00 0.  1.
         23    2    1    2    0    0  0.00000000000E+00  0.00000000000E+00  0.16316624772E+03  0.18775361880E+03  0.92888088445E+02 0.  0.
        -13    1    3    3    0    0 -0.26397402422E+02 -0.31550820488E+02  0.38007027461E+02  0.56007242965E+02  0.00000000000E+00 0.  1.
         13    1    3    3    0    0  0.26397402422E+02  0.31550820488E+02  0.12515922026E+03  0.13174637583E+03  0.00000000000E+00 0. -1.
<mgrwt>
<rscale>  0 0.92888088E+02</rscale>
<asrwt>0</asrwt>
<pdfrwt beam="1">  1        1 0.26993834E-01 0.92888088E+02</pdfrwt>
<pdfrwt beam="2">  1       -1 0.18913364E-02 0.92888088E+02</pdfrwt>
<totfact> 0.10982232E+05</totfact>
</mgrwt>
</event>
<event>
 5    1  0.1247456E+001  0.9270008E+02  0.7546771E-02  0.1296442E+00
         -1   -1    0    0    0  501 -0.00000000000E+00  0.00000000000E+00  0.78026668952E+01  0.78026668952E+01  0.00000000000E+00 0.  1.
          1   -1    0    0  501    0  0.00000000000E+00 -0.00000000000E+00 -0.27533229199E+03  0.27533229199E+03  0.00000000000E+00 0. -1.
         23    2    1    2    0    0  0.00000000000E+00  0.00000000000E+00 -0.26752962509E+03  0.28313495888E+03  0.92700078962E+02 0.  0.
        -13    1    3    3    0    0 -0.29926130265E+02 -0.27088591838E+02 -0.20334422953E+03  0.20731194071E+03  0.00000000000E+00 0. -1.
         13    1    3    3    0    0  0.29926130265E+02  0.27088591838E+02 -0.64185395565E+02  0.75823018169E+02  0.00000000000E+00 0.  1.
<mgrwt>
<rscale>  0 0.92700079E+02</rscale>
<asrwt>0</asrwt>
<pdfrwt beam="2">  1        1 0.42358813E-01 0.92700079E+02</pdfrwt>
<pdfrwt beam="1">  1       -1 0.12004103E-02 0.92700079E+02</pdfrwt>
<totfact> 0.12056443E+05</totfact>
</mgrwt>
</event>
<event>
 5    1  0.1247456E+001  0.9080605E+02  0.7546771E-02  0.1300911E+00
          2   -1    0    0  501    0  0.00000000000E+00  0.00000000000E+00  0.11577416570E+02  0.11577416570E+02  0.00000000000E+00 0. -1.
         -2   -1    0    0    0  501 -0.00000000000E+00 -0.00000000000E+00 -0.17805654430E+03  0.17805654430E+03  0.00000000000E+00 0.  1.
         23    2    1    2    0    0  0.00000000000E+00  0.00000000000E+00 -0.16647912774E+03  0.18963396087E+03  0.90806052361E+02 0.  0.
        -13    1    3    3    0    0  0.37032160305E+02  0.25110611333E+02 -0.99349739137E+02  0.10896005858E+03  0.00000000000E+00 0.  1.
         13    1    3    3    0    0 -0.37032160305E+02 -0.25110611333E+02 -0.67129388598E+02  0.80673902298E+02  0.00000000000E+00 0. -1.
<mgrwt>
<rscale>  0 0.90806052E+02</rscale>
<asrwt>0</asrwt>
<pdfrwt beam="1">  1        2 0.17811410E-02 0.90806052E+02</pdfrwt>
<pdfrwt beam="2">  1       -2 0.27393315E-01 0.90806052E+02</pdfrwt>
<totfact> 0.66102157E+04</totfact>
</mgrwt>
</event>
<event>
 5    1  0.1247456E+001  0.9081033E+02  0.7546771E-02  0.1300901E+00
          2   -1    0    0  501    0  0.00000000000E+00  0.00000000000E+00  0.21929636924E+03  0.21929636924E+03  0.00000000000E+00 0. -1.
         -2   -1    0    0    0  501 -0.00000000000E+00 -0.00000000000E+00 -0.94011087335E+01  0.94011087335E+01  0.00000000000E+00 0.  1.
         23    2    1    2    0    0  0.00000000000E+00  0.00000000000E+00  0.20989526051E+03  0.22869747798E+03  0.90810330076E+02 0.  0.
        -11    1    3    3    0    0  0.37550836081E+02 -0.55812222800E+01  0.42218855668E+02  0.56777170645E+02  0.00000000000E+00 0. -1.
         11    1    3    3    0    0 -0.37550836081E+02  0.55812222800E+01  0.16767640484E+03  0.17192030733E+03  0.00000000000E+00 0.  1.
<mgrwt>
<rscale>  0 0.90810330E+02</rscale>
<asrwt>0</asrwt>
<pdfrwt beam="1">  1        2 0.33737899E-01 0.90810330E+02</pdfrwt>
<pdfrwt beam="2">  1       -2 0.14463246E-02 0.90810330E+02</pdfrwt>
<totfact> 0.16169193E+05</totfact>
</mgrwt>
</event>
<event>
 5    1  0.1247456E+001  0.9230184E+02  0.7546771E-02  0.1297371E+00
          1   -1    0    0  501    0  0.00000000000E+00  0.00000000000E+00  0.29969425263E+03  0.29969425263E+03  0.00000000000E+00 0. -1.
         -1   -1    0    0    0  501 -0.00000000000E+00 -0.00000000000E+00 -0.71069338530E+01  0.71069338530E+01  0.00000000000E+00 0.  1.
         23    2    1    2    0    0  0.00000000000E+00  0.00000000000E+00  0.29258731878E+03  0.30680118648E+03  0.92301835942E+02 0.  0.
        -13    1    3    3    0    0  0.40432146946E+02  0.18944388542E+02  0.10749389575E+03  0.11639839340E+03  0.00000000000E+00 0. -1.
         13    1    3    3    0    0 -0.40432146946E+02 -0.18944388542E+02  0.18509342303E+03  0.19040279308E+03  0.00000000000E+00 0.  1.
<mgrwt>
<rscale>  0 0.92301836E+02</rscale>
<asrwt>0</asrwt>
<pdfrwt beam="1">  1        1 0.46106798E-01 0.92301836E+02</pdfrwt>
<pdfrwt beam="2">  1       -1 0.10933747E-02 0.92301836E+02</pdfrwt>
<totfact> 0.12397385E+05</totfact>
</mgrwt>
</event>
<event>
 5    1  0.1247456E+001  0.9244776E+02  0.7546771E-02  0.1297030E+00
         -4   -1    0    0    0  501 -0.00000000000E+00  0.00000000000E+00  0.50668573805E+02  0.50668573805E+02  0.00000000000E+00 0.  1.
          4   -1    0    0  501    0  0.00000000000E+00 -0.00000000000E+00 -0.42169077608E+02  0.42169077608E+02  0.00000000000E+00 0. -1.
         23    2    1    2    0    0  0.00000000000E+00  0.00000000000E+00  0.84994961970E+01  0.92837651412E+02  0.92447758676E+02 0.  0.
        -13    1    3    3    0    0 -0.47255526330E+01  0.36226546037E+02  0.32687964977E+02  0.49022408547E+02  0.00000000000E+00 0.  1.
         13    1    3    3    0    0  0.47255526330E+01 -0.36226546037E+02 -0.24188468780E+02  0.43815242865E+02  0.00000000000E+00 0. -1.
<mgrwt>
<rscale>  0 0.92447759E+02</rscale>
<asrwt>0</asrwt>
<pdfrwt beam="2">  1        4 0.64875504E-02 0.92447759E+02</pdfrwt>
<pdfrwt beam="1">  1       -4 0.77951652E-02 0.92447759E+02</pdfrwt>
<totfact> 0.25914685E+04</totfact>
</mgrwt>
</event>
<event>
 5    1  0.1247456E+001  0.9341185E+02  0.7546771E-02  0.1294794E+00
         -3   -1    0    0    0  501 -0.00000000000E+00  0.00000000000E+00  0.17792260814E+03  0.17792260814E+03  0.00000000000E+00 0.  1.
          3   -1    0    0  501    0  0.00000000000E+00 -0.00000000000E+00 -0.12260631866E+02  0.12260631866E+02  0.00000000000E+00 0. -1.
         23    2    1    2    0    0  0.00000000000E+00  0.00000000000E+00  0.16566197628E+03  0.19018324001E+03  0.93411853617E+02 0.  0.
        -13    1    3    3    0    0 -0.31703575556E+02  0.30266387267E+02  0.11567714470E+03  0.12370275950E+03  0.00000000000E+00 0.  1.
         13    1    3    3    0    0  0.31703575556E+02 -0.30266387267E+02  0.49984831577E+02  0.66480480512E+02  0.00000000000E+00 0. -1.
<mgrwt>
<rscale>  0 0.93411854E+02</rscale>
<asrwt>0</asrwt>
<pdfrwt beam="2">  1        3 0.18862512E-02 0.93411854E+02</pdfrwt>
<pdfrwt beam="1">  1       -3 0.27372707E-01 0.93411854E+02</pdfrwt>
<totfact> 0.27172309E+04</totfact>
</mgrwt>
</event>
<event>
 5    1  0.1247456E+001  0.9243407E+02  0.7546771E-02  0.1297062E+00
         -2   -1    0    0    0  501 -0.00000000000E+00  0.00000000000E+00  0.52378765177E+01  0.52378765177E+01  0.00000000000E+00 0. -1.
          2   -1    0    0  501    0  0.00000000000E+00 -0.00000000000E+00 -0.40780153717E+03  0.40780153717E+03  0.00000000000E+00 0.  1.
         23    2    1    2    0    0  0.00000000000E+00  0.00000000000E+00 -0.40256366065E+03  0.41303941369E+03  0.92434065051E+02 0.  0.
        -13    1    3    3    0    0 -0.23966205209E+02 -0.38791531522E+02 -0.16758934677E+03  0.17368175224E+03  0.00000000000E+00 0. -1.
         13    1    3    3    0    0  0.23966205209E+02  0.38791531522E+02 -0.23497431388E+03  0.23935766145E+03  0.00000000000E+00 0.  1.
<mgrwt>
<rscale>  0 0.92434065E+02</rscale>
<asrwt>0</asrwt>
<pdfrwt beam="2">  1        2 0.62738702E-01 0.92434065E+02</pdfrwt>
<pdfrwt beam="1">  1       -2 0.80582710E-03 0.92434065E+02</pdfrwt>
<totfact> 0.19382079E+05</totfact>
</mgrwt>
</event>
<event>
 5    1  0.1247456E+001  0.8961034E+02  0.7546771E-02  0.1303798E+00
         -2   -1    0    0    0  501 -0.00000000000E+00  0.00000000000E+00  0.10448176438E+03  0.10448176438E+03  0.00000000000E+00 0.  1.
          2   -1    0    0  501    0  0.00000000000E+00 -0.00000000000E+00 -0.19213909086E+02  0.19213909086E+02  0.00000000000E+00 0. -1.
         23    2    1    2    0    0  0.00000000000E+00  0.00000000000E+00  0.85267855296E+02  0.12369567347E+03  0.89610336949E+02 0.  0.
        -11    1    3    3    0    0 -0.13798656238E+02 -0.29634353155E+02  0.84930706964E+02  0.91004520691E+02  0.00000000000E+00 0.  1.
         11    1    3    3    0    0  0.13798656238E+02  0.29634353155E+02  0.33714833205E+00  0.32691152777E+02  0.00000000000E+00 0. -1.
<mgrwt>
<rscale>  0 0.89610337E+02</rscale>
<asrwt>0</asrwt>
<pdfrwt beam="2">  1        2 0.29559861E-02 0.89610337E+02</pdfrwt>
<pdfrwt beam="1">  1       -2 0.16074117E-01 0.89610337E+02</pdfrwt>
<totfact> 0.82235914E+04</totfact>
</mgrwt>
</event>
<event>
 5    1  0.1247456E+001  0.9099164E+02  0.7546771E-02  0.1300468E+00
         -2   -1    0    0    0  501 -0.00000000000E+00  0.00000000000E+00  0.98381278152E+02  0.98381278152E+02  0.00000000000E+00 0.  1.
          2   -1    0    0  501    0  0.00000000000E+00 -0.00000000000E+00 -0.21039264155E+02  0.21039264155E+02  0.00000000000E+00 0. -1.
         23    2    1    2    0    0  0.00000000000E+00  0.00000000000E+00  0.77342013997E+02  0.11942054231E+03  0.90991641350E+02 0.  0.
        -13    1    3    3    0    0 -0.25979336440E+02  0.36682049626E+02  0.47892761492E+02  0.65682686379E+02  0.00000000000E+00 0. -1.
         13    1    3    3    0    0  0.25979336440E+02 -0.36682049626E+02  0.29449252504E+02  0.53737855927E+02  0.00000000000E+00 0.  1.
<mgrwt>
<rscale>  0 0.90991641E+02</rscale>
<asrwt>0</asrwt>
<pdfrwt beam="2">  1        2 0.32368099E-02 0.90991641E+02</pdfrwt>
<pdfrwt beam="1">  1       -2 0.15135581E-01 0.90991641E+02</pdfrwt>
<totfact> 0.80601274E+04</totfact>
</mgrwt>
</event>
<event>
 5    1  0.1247456E+001  0.9083873E+02  0.7546771E-02  0.1300833E+00
         -1   -1    0    0    0  501 -0.00000000000E+00  0.00000000000E+00  0.13183135006E+03  0.13183135006E+03  0.00000000000E+00 0.  1.
          1   -1    0    0  501    0  0.00000000000E+00 -0.00000000000E+00 -0.15648164756E+02  0.15648164756E+02  0.00000000000E+00 0. -1.
         23    2    1    2    0    0  0.00000000000E+00  0.00000000000E+00  0.11618318530E+03  0.14747951481E+03  0.90838729310E+02 0.  0.
        -11    1    3    3    0    0 -0.37647534435E+02 -0.24966979833E+02  0.65746633632E+02  0.79770337626E+02  0.00000000000E+00 0. -1.
         11    1    3    3    0    0  0.37647534435E+02  0.24966979833E+02  0.50436551667E+02  0.67709177185E+02  0.00000000000E+00 0.  1.
<mgrwt>
<rscale>  0 0.90838729E+02</rscale>
<asrwt>0</asrwt>
<pdfrwt beam="2">  1        1 0.24074101E-02 0.90838729E+02</pdfrwt>
<pdfrwt beam="1">  1       -1 0.20281745E-01 0.90838729E+02</pdfrwt>
<totfact> 0.77736724E+04</totfact>
</mgrwt>
</event>
<event>
 5    1  0.1247456E+001  0.8301348E+02  0.7546771E-02  0.1320711E+00
          1   -1    0    0  501    0  0.00000000000E+00  0.00000000000E+00  0.70941471728E+02  0.70941471728E+02  0.00000000000E+00 0. -1.
         -1   -1    0    0    0  501 -0.00000000000E+00 -0.00000000000E+00 -0.24284942164E+02  0.24284942164E+02  0.00000000000E+00 0.  1.
         23    2    1    2    0    0  0.00000000000E+00  0.00000000000E+00  0.46656529564E+02  0.95226413892E+02  0.83013481747E+02 0.  0.
        -13    1    3    3    0    0 -0.31553082131E+02  0.72979645606E+01 -0.64516442648E+01  0.33022431655E+02  0.00000000000E+00 0.  1.
         13    1    3    3    0    0  0.31553082131E+02 -0.72979645606E+01  0.53108173829E+02  0.62203982237E+02  0.00000000000E+00 0. -1.
<mgrwt>
<rscale>  0 0.83013482E+02</rscale>
<asrwt>0</asrwt>
<pdfrwt beam="1">  1        1 0.10914072E-01 0.83013482E+02</pdfrwt>
<pdfrwt beam="2">  1       -1 0.37361450E-02 0.83013482E+02</pdfrwt>
<totfact> 0.12779925E+05</totfact>
</mgrwt>
</event>
<event>
 5    1  0.1247456E+001  0.9141576E+02  0.7546771E-02  0.1299459E+00
         -2   -1    0    0    0  501 -0.00000000000E+00  0.00000000000E+00  0.14406204487E+03  0.14406204487E+03  0.00000000000E+00 0.  1.
          2   -1    0    0  501    0  0.00000000000E+00 -0.00000000000E+00 -0.14502155523E+02  0.14502155523E+02  0.00000000000E+00 0. -1.
         23    2    1    2    0    0  0.00000000000E+00  0.00000000000E+00  0.12955988934E+03  0.15856420039E+03  0.91415757494E+02 0.  0.
        -13    1    3    3    0    0  0.93232661263E+01  0.28747637044E+02  0.12425870862E+03  0.12788110335E+03  0.00000000000E+00 0.  1.
         13    1    3    3    0    0 -0.93232661263E+01 -0.28747637044E+02  0.53011807283E+01  0.30683097040E+02  0.00000000000E+00 0. -1.
<mgrwt>
<rscale>  0 0.91415757E+02</rscale>
<asrwt>0</asrwt>
<pdfrwt beam="2">  1        2 0.22311009E-02 0.91415757E+02</pdfrwt>
<pdfrwt beam="1">  1       -2 0.22163391E-01 0.91415757E+02</pdfrwt>
<totfact> 0.70412014E+04</totfact>
</mgrwt>
</event>
<event>
 5    1  0.1247456E+001  0.9244271E+02  0.7546771E-02  0.1297042E+00
          3   -1    0    0  501    0  0.00000000000E+00  0.00000000000E+00  0.14687270121E+03  0.14687270121E+03  0.00000000000E+00 0. -1.
         -3   -1    0    0    0  501 -0.00000000000E+00 -0.00000000000E+00 -0.14546022151E+02  0.14546022151E+02  0.00000000000E+00 0.  1.
         23    2    1    2    0    0  0.00000000000E+00  0.00000000000E+00  0.13232667906E+03  0.16141872336E+03  0.92442707990E+02 0.  0.
        -11    1    3    3    0    0 -0.16298437241E+02  0.29183212135E+02  0.10420027516E+02  0.35012510628E+02  0.00000000000E+00 0.  1.
         11    1    3    3    0    0  0.16298437241E+02 -0.29183212135E+02  0.12190665154E+03  0.12640621273E+03  0.00000000000E+00 0. -1.
<mgrwt>
<rscale>  0 0.92442708E+02</rscale>
<asrwt>0</asrwt>
<pdfrwt beam="1">  1        3 0.22595799E-01 0.92442708E+02</pdfrwt>
<pdfrwt beam="2">  1       -3 0.22378497E-02 0.92442708E+02</pdfrwt>
<totfact> 0.29498826E+04</totfact>
</mgrwt>
</event>
<event>
 5    1  0.1247456E+001  0.9555818E+02  0.7546771E-02  0.1289924E+00
         -4   -1    0    0    0  501 -0.00000000000E+00  0.00000000000E+00  0.17771765928E+02  0.17771765928E+02  0.00000000000E+00 0. -1.
          4   -1    0    0  501    0  0.00000000000E+00 -0.00000000000E+00 -0.12845327085E+03  0.12845327085E+03  0.00000000000E+00 0.  1.
         23    2    1    2    0    0  0.00000000000E+00  0.00000000000E+00 -0.11068150492E+03  0.14622503678E+03  0.95558180439E+02 0.  0.
        -11    1    3    3    0    0 -0.53477272191E+01  0.31898570287E+02 -0.10915414203E+03  0.11384526207E+03  0.00000000000E+00 0.  1.
         11    1    3    3    0    0  0.53477272191E+01 -0.31898570287E+02 -0.15273628894E+01  0.32379774709E+02  0.00000000000E+00 0. -1.
<mgrwt>
<rscale>  0 0.95558180E+02</rscale>
<asrwt>0</asrwt>
<pdfrwt beam="2">  1        4 0.19762042E-01 0.95558180E+02</pdfrwt>
<pdfrwt beam="1">  1       -4 0.27341179E-02 0.95558180E+02</pdfrwt>
<totfact> 0.21018738E+04</totfact>
</mgrwt>
</event>
<event>
 5    1  0.1247456E+001  0.9281144E+02  0.7546771E-02  0.1296183E+00
          1   -1    0    0  501    0  0.00000000000E+00  0.00000000000E+00  0.42144374653E+02  0.42144374653E+02  0.00000000000E+00 0. -1.
         -1   -1    0    0    0  501 -0.00000000000E+00 -0.00000000000E+00 -0.51097946216E+02  0.51097946216E+02  0.00000000000E+00 0.  1.
         23    2    1    2    0    0  0.00000000000E+00  0.00000000000E+00 -0.89535715625E+01  0.93242320869E+02  0.92811443030E+02 0.  0.
        -11    1    3    3    0    0 -0.33538535168E+02  0.17247456118E+02 -0.31642714980E+02  0.49229762289E+02  0.00000000000E+00 0.  1.
         11    1    3    3    0    0  0.33538535168E+02 -0.17247456118E+02  0.22689143417E+02  0.44012558580E+02  0.00000000000E+00 0. -1.
<mgrwt>
<rscale>  0 0.92811443E+02</rscale>
<asrwt>0</asrwt>
<pdfrwt beam="1">  1        1 0.64837500E-02 0.92811443E+02</pdfrwt>
<pdfrwt beam="2">  1       -1 0.78612224E-02 0.92811443E+02</pdfrwt>
<totfact> 0.86910960E+04</totfact>
</mgrwt>
</event>
<event>
 5    1  0.1247456E+001  0.9208383E+02  0.7546771E-02  0.1297882E+00
         -2   -1    0    0    0  501 -0.00000000000E+00  0.00000000000E+00  0.52092575365E+02  0.52092575365E+02  0.00000000000E+00 0.  1.
          2   -1    0    0  501    0  0.00000000000E+00 -0.00000000000E+00 -0.40694054955E+02  0.40694054955E+02  0.00000000000E+00 0. -1.
         23    2    1    2    0    0  0.00000000000E+00  0.00000000000E+00  0.11398520410E+02  0.92786630321E+02  0.92083834079E+02 0.  0.
        -11    1    3    3    0    0  0.39487337376E+02 -0.20432301499E+02  0.17754237168E+02  0.47874227879E+02  0.00000000000E+00 0.  1.
         11    1    3    3    0    0 -0.39487337376E+02  0.20432301499E+02 -0.63557167576E+01  0.44912402442E+02  0.00000000000E+00 0. -1.
<mgrwt>
<rscale>  0 0.92083834E+02</rscale>
<asrwt>0</asrwt>
<pdfrwt beam="2">  1        2 0.62606238E-02 0.92083834E+02</pdfrwt>
<pdfrwt beam="1">  1       -2 0.80142424E-02 0.92083834E+02</pdfrwt>
<totfact> 0.93103854E+04</totfact>
</mgrwt>
</event>
<event>
 5    1  0.1247456E+001  0.9187458E+02  0.7546771E-02  0.1298375E+00
          2   -1    0    0  501    0  0.00000000000E+00  0.00000000000E+00  0.75807542020E+02  0.75807542020E+02  0.00000000000E+00 0. -1.
         -2   -1    0    0    0  501 -0.00000000000E+00 -0.00000000000E+00 -0.27836739024E+02  0.27836739024E+02  0.00000000000E+00 0.  1.
         23    2    1    2    0    0  0.00000000000E+00  0.00000000000E+00  0.47970802995E+02  0.10364428104E+03  0.91874583281E+02 0.  0.
        -13    1    3    3    0    0  0.24537633596E+02 -0.38000037587E+02  0.14950937320E+02  0.47640621803E+02  0.00000000000E+00 0.  1.
         13    1    3    3    0    0 -0.24537633596E+02  0.38000037587E+02  0.33019865676E+02  0.56003659241E+02  0.00000000000E+00 0. -1.
<mgrwt>
<rscale>  0 0.91874583E+02</rscale>
<asrwt>0</asrwt>
<pdfrwt beam="1">  1        2 0.11662699E-01 0.91874583E+02</pdfrwt>
<pdfrwt beam="2">  1       -2 0.42825753E-02 0.91874583E+02</pdfrwt>
<totfact> 0.11073146E+05</totfact>
</mgrwt>
</event>
<event>
 5    1  0.1247456E+001  0.9005261E+02  0.7546771E-02  0.1302724E+00
         -1   -1    0    0    0  501 -0.00000000000E+00  0.00000000000E+00  0.80098313004E+01  0.80098313004E+01  0.00000000000E+00 0.  1.
          1   -1    0    0  501    0  0.00000000000E+00 -0.00000000000E+00 -0.25310998827E+03  0.25310998827E+03  0.00000000000E+00 0. -1.
         23    2    1    2    0    0  0.00000000000E+00  0.00000000000E+00 -0.24510015697E+03  0.26111981957E+03  0.90052613654E+02 0.  0.
        -11    1    3    3    0    0 -0.42372229566E+02 -0.10495957549E+01 -0.78492702358E+02  0.89205447217E+02  0.00000000000E+00 0.  1.
         11    1    3    3    0    0  0.42372229566E+02  0.10495957549E+01 -0.16660745461E+03  0.17191437235E+03  0.00000000000E+00 0. -1.
<mgrwt>
<rscale>  0 0.90052614E+02</rscale>
<asrwt>0</asrwt>
<pdfrwt beam="2">  1        1 0.38940001E-01 0.90052614E+02</pdfrwt>
<pdfrwt beam="1">  1       -1 0.12322817E-02 0.90052614E+02</pdfrwt>
<totfact> 0.12813987E+05</totfact>
</mgrwt>
</event>
<event>
 5    1  0.1247456E+001  0.9272964E+02  0.7546771E-02  0.1296373E+00
          2   -1    0    0  501    0  0.00000000000E+00  0.00000000000E+00  0.43619133873E+02  0.43619133873E+02  0.00000000000E+00 0. -1.
         -2   -1    0    0    0  501 -0.00000000000E+00 -0.00000000000E+00 -0.49283343467E+02  0.49283343467E+02  0.00000000000E+00 0.  1.
         23    2    1    2    0    0  0.00000000000E+00  0.00000000000E+00 -0.56642095932E+01  0.92902477340E+02  0.92729644805E+02 0.  0.
        -11    1    3    3    0    0 -0.15553944763E+02 -0.54490134482E+01  0.40585485972E+02  0.43804093608E+02  0.00000000000E+00 0. -1.
         11    1    3    3    0    0  0.15553944763E+02  0.54490134482E+01 -0.46249695565E+02  0.49098383732E+02  0.00000000000E+00 0.  1.
<mgrwt>
<rscale>  0 0.92729645E+02</rscale>
<asrwt>0</asrwt>
<pdfrwt beam="1">  1        2 0.67106360E-02 0.92729645E+02</pdfrwt>
<pdfrwt beam="2">  1       -2 0.75820529E-02 0.92729645E+02</pdfrwt>
<totfact> 0.92910447E+04</totfact>
</mgrwt>
</event>
<event>
 5    1  0.1247456E+001  0.7566867E+02  0.7546771E-02  0.1341813E+00
          4   -1    0    0  501    0  0.00000000000E+00  0.00000000000E+00  0.10051744703E+03  0.10051744703E+03  0.00000000000E+00 0. -1.
         -4   -1    0    0    0  501 -0.00000000000E+00 -0.00000000000E+00 -0.14240681431E+02  0.14240681431E+02  0.00000000000E+00 0.  1.
         23    2    1    2    0    0  0.00000000000E+00  0.00000000000E+00  0.86276765602E+02  0.11475812846E+03  0.75668670965E+02 0.  0.
        -13    1    3    3    0    0 -0.22899528940E+02 -0.23484072178E+02  0.71735073656E+02  0.78878456274E+02  0.00000000000E+00 0. -1.
         13    1    3    3    0    0  0.22899528940E+02  0.23484072178E+02  0.14541691946E+02  0.35879672189E+02  0.00000000000E+00 0.  1.
<mgrwt>
<rscale>  0 0.75668671E+02</rscale>
<asrwt>0</asrwt>
<pdfrwt beam="1">  1        4 0.15464222E-01 0.75668671E+02</pdfrwt>
<pdfrwt beam="2">  1       -4 0.21908741E-02 0.75668671E+02</pdfrwt>
<totfact> 0.42040737E+04</totfact>
</mgrwt>
</event>
<event>
 5    1  0.1247456E+001  0.9041253E+02  0.7546771E-02  0.1301856E+00
          2   -1    0    0  501    0  0.00000000000E+00  0.00000000000E+00  0.19281441867E+02  0.19281441867E+02  0.00000000000E+00 0. -1.
         -2   -1    0    0    0  501 -0.00000000000E+00 -0.00000000000E+00 -0.10598825787E+03  0.10598825787E+03  0.00000000000E+00 0.  1.
         23    2    1    2    0    0  0.00000000000E+00  0.00000000000E+00 -0.86706816005E+02  0.12526969974E+03  0.90412530829E+02 0.  0.
        -13    1    3    3    0    0 -0.24067817540E+02  0.97307208104E+01  0.79237259856E+01  0.27142811242E+02  0.00000000000E+00 0. -1.
         13    1    3    3    0    0  0.24067817540E+02 -0.97307208104E+01 -0.94630541991E+02  0.98126888497E+02  0.00000000000E+00 0.  1.
<mgrwt>
<rscale>  0 0.90412531E+02</rscale>
<asrwt>0</asrwt>
<pdfrwt beam="1">  1        2 0.29663758E-02 0.90412531E+02</pdfrwt>
<pdfrwt beam="2">  1       -2 0.16305885E-01 0.90412531E+02</pdfrwt>
<totfact> 0.80081008E+04</totfact>
</mgrwt>
</event>
<event>
 5    1  0.1247456E+001  0.9053840E+02  0.7546771E-02  0.1301553E+00
         -4   -1    0    0    0  501 -0.00000000000E+00  0.00000000000E+00  0.48148375812E+02  0.48148375812E+02  0.00000000000E+00 0.  1.
          4   -1    0    0  501    0  0.00000000000E+00 -0.00000000000E+00 -0.42562190380E+02  0.42562190380E+02  0.00000000000E+00 0. -1.
         23    2    1    2    0    0  0.00000000000E+00  0.00000000000E+00  0.55861854320E+01  0.90710566192E+02  0.90538397110E+02 0.  0.
        -11    1    3    3    0    0  0.41568711868E+02 -0.90029063964E+01  0.18323867174E+02  0.46311707355E+02  0.00000000000E+00 0.  1.
         11    1    3    3    0    0 -0.41568711868E+02  0.90029063964E+01 -0.12737681742E+02  0.44398858838E+02  0.00000000000E+00 0. -1.
<mgrwt>
<rscale>  0 0.90538397E+02</rscale>
<asrwt>0</asrwt>
<pdfrwt beam="2">  1        4 0.65480292E-02 0.90538397E+02</pdfrwt>
<pdfrwt beam="1">  1       -4 0.74074425E-02 0.90538397E+02</pdfrwt>
<totfact> 0.27566450E+04</totfact>
</mgrwt>
</event>
<event>
 5    1  0.1247456E+001  0.7797383E+02  0.7546771E-02  0.1334902E+00
          3   -1    0    0  501    0  0.00000000000E+00  0.00000000000E+00  0.62917230467E+02  0.62917230467E+02  0.00000000000E+00 0.  1.
         -3   -1    0    0    0  501 -0.00000000000E+00 -0.00000000000E+00 -0.24158399926E+02  0.24158399926E+02  0.00000000000E+00 0. -1.
         23    2    1    2    0    0  0.00000000000E+00  0.00000000000E+00  0.38758830541E+02  0.87075630393E+02  0.77973831914E+02 0.  0.
        -13    1    3    3    0    0  0.20369619817E+02  0.11973588599E+02  0.54010461450E+02  0.58952677475E+02  0.00000000000E+00 0.  1.
         13    1    3    3    0    0 -0.20369619817E+02 -0.11973588599E+02 -0.15251630909E+02  0.28122952918E+02  0.00000000000E+00 0. -1.
<mgrwt>
<rscale>  0 0.77973832E+02</rscale>
<asrwt>0</asrwt>
<pdfrwt beam="1">  1        3 0.96795738E-02 0.77973832E+02</pdfrwt>
<pdfrwt beam="2">  1       -3 0.37166770E-02 0.77973832E+02</pdfrwt>
<totfact> 0.54378645E+04</totfact>
</mgrwt>
</event>
<event>
 5    1  0.1247456E+001  0.9217906E+02  0.7546771E-02  0.1297659E+00
          2   -1    0    0  501    0  0.00000000000E+00  0.00000000000E+00  0.21343383702E+02  0.21343383702E+02  0.00000000000E+00 0.  1.
         -2   -1    0    0    0  501 -0.00000000000E+00 -0.00000000000E+00 -0.99527079912E+02  0.99527079912E+02  0.00000000000E+00 0. -1.
         23    2    1    2    0    0  0.00000000000E+00  0.00000000000E+00 -0.78183696210E+02  0.12087046361E+03  0.92179057389E+02 0.  0.
        -13    1    3    3    0    0 -0.26716208073E+02 -0.71950107424E+01  0.92421834618E+01  0.29170908599E+02  0.00000000000E+00 0.  1.
         13    1    3    3    0    0  0.26716208073E+02  0.71950107424E+01 -0.87425879672E+02  0.91699555014E+02  0.00000000000E+00 0. -1.
<mgrwt>
<rscale>  0 0.92179057E+02</rscale>
<asrwt>0</asrwt>
<pdfrwt beam="1">  1        2 0.32835975E-02 0.92179057E+02</pdfrwt>
<pdfrwt beam="2">  1       -2 0.15311858E-01 0.92179057E+02</pdfrwt>
<totfact> 0.77772979E+04</totfact>
</mgrwt>
</event>
<event>
 5    1  0.1247456E+001  0.9051914E+02  0.7546771E-02  0.1301599E+00
          2   -1    0    0  501    0  0.00000000000E+00  0.00000000000E+00  0.44430586860E+03  0.44430586860E+03  0.00000000000E+00 0. -1.
         -2   -1    0    0    0  501 -0.00000000000E+00 -0.00000000000E+00 -0.46104020431E+01  0.46104020431E+01  0.00000000000E+00 0.  1.
         23    2    1    2    0    0  0.00000000000E+00  0.00000000000E+00  0.43969546655E+03  0.44891627064E+03  0.90519140172E+02 0.  0.
        -13    1    3    3    0    0 -0.53374614957E+01 -0.44942753305E+02  0.21836726454E+03  0.22300807562E+03  0.00000000000E+00 0.  1.
         13    1    3    3    0    0  0.53374614957E+01  0.44942753305E+02  0.22132820201E+03  0.22590819502E+03  0.00000000000E+00 0. -1.
<mgrwt>
<rscale>  0 0.90519140E+02</rscale>
<asrwt>0</asrwt>
<pdfrwt beam="1">  1        2 0.68354715E-01 0.90519140E+02</pdfrwt>
<pdfrwt beam="2">  1       -2 0.70929297E-03 0.90519140E+02</pdfrwt>
<totfact> 0.21114226E+05</totfact>
</mgrwt>
</event>
<event>
 5    1  0.1247456E+001  0.8935761E+02  0.7546771E-02  0.1304415E+00
          3   -1    0    0  501    0  0.00000000000E+00  0.00000000000E+00  0.11129204066E+02  0.11129204066E+02  0.00000000000E+00 0. -1.
         -3   -1    0    0    0  501 -0.00000000000E+00 -0.00000000000E+00 -0.17936554855E+03  0.17936554855E+03  0.00000000000E+00 0.  1.
         23    2    1    2    0    0  0.00000000000E+00  0.00000000000E+00 -0.16823634448E+03  0.19049475261E+03  0.89357613937E+02 0.  0.
        -13    1    3    3    0    0  0.42276139863E+02  0.14441244212E+02 -0.85422347168E+02  0.96399164580E+02  0.00000000000E+00 0.  1.
         13    1    3    3    0    0 -0.42276139863E+02 -0.14441244212E+02 -0.82813997314E+02  0.94095588033E+02  0.00000000000E+00 0. -1.
<mgrwt>
<rscale>  0 0.89357614E+02</rscale>
<asrwt>0</asrwt>
<pdfrwt beam="1">  1        3 0.17121854E-02 0.89357614E+02</pdfrwt>
<pdfrwt beam="2">  1       -3 0.27594697E-01 0.89357614E+02</pdfrwt>
<totfact> 0.30614038E+04</totfact>
</mgrwt>
</event>
<event>
 5    1  0.1247456E+001  0.9002440E+02  0.7546771E-02  0.1302793E+00
          2   -1    0    0  501    0  0.00000000000E+00  0.00000000000E+00  0.60572924473E+02  0.60572924473E+02  0.00000000000E+00 0. -1.
         -2   -1    0    0    0  501 -0.00000000000E+00 -0.00000000000E+00 -0.33448905650E+02  0.33448905650E+02  0.00000000000E+00 0.  1.
         23    2    1    2    0    0  0.00000000000E+00  0.00000000000E+00  0.27124018822E+02  0.94021830123E+02  0.90024397485E+02 0.  0.
        -11    1    3    3    0    0 -0.32714331254E+02 -0.13713822815E+02  0.42501640587E+02  0.55359604932E+02  0.00000000000E+00 0. -1.
         11    1    3    3    0    0  0.32714331254E+02  0.13713822815E+02 -0.15377621765E+02  0.38662225191E+02  0.00000000000E+00 0.  1.
<mgrwt>
<rscale>  0 0.90024397E+02</rscale>
<asrwt>0</asrwt>
<pdfrwt beam="1">  1        2 0.93189114E-02 0.90024397E+02</pdfrwt>
<pdfrwt beam="2">  1       -2 0.51459855E-02 0.90024397E+02</pdfrwt>
<totfact> 0.11021556E+05</totfact>
</mgrwt>
</event>
<event>
 5    1  0.1247456E+001  0.8911160E+02  0.7546771E-02  0.1305017E+00
          3   -1    0    0  501    0  0.00000000000E+00  0.00000000000E+00  0.22944959716E+03  0.22944959716E+03  0.00000000000E+00 0. -1.
         -3   -1    0    0    0  501 -0.00000000000E+00 -0.00000000000E+00 -0.86520924979E+01  0.86520924979E+01  0.00000000000E+00 0.  1.
         23    2    1    2    0    0  0.00000000000E+00  0.00000000000E+00  0.22079750466E+03  0.23810168966E+03  0.89111596064E+02 0.  0.
        -11    1    3    3    0    0  0.34537240134E+02  0.28137477019E+02  0.11260302030E+03  0.12109491628E+03  0.00000000000E+00 0.  1.
         11    1    3    3    0    0 -0.34537240134E+02 -0.28137477019E+02  0.10819448437E+03  0.11700677338E+03  0.00000000000E+00 0. -1.
<mgrwt>
<rscale>  0 0.89111596E+02</rscale>
<asrwt>0</asrwt>
<pdfrwt beam="1">  1        3 0.35299933E-01 0.89111596E+02</pdfrwt>
<pdfrwt beam="2">  1       -3 0.13310913E-02 0.89111596E+02</pdfrwt>
<totfact> 0.28331609E+04</totfact>
</mgrwt>
</event>
<event>
 5    1  0.1247456E+001  0.6807331E+02  0.7546771E-02  0.1366770E+00
         -2   -1    0    0    0  501 -0.00000000000E+00  0.00000000000E+00  0.21525022609E+03  0.21525022609E+03  0.00000000000E+00 0.  1.
          2   -1    0    0  501    0  0.00000000000E+00 -0.00000000000E+00 -0.53820797023E+01  0.53820797023E+01  0.00000000000E+00 0. -1.
         23    2    1    2    0    0  0.00000000000E+00  0.00000000000E+00  0.20986814639E+03  0.22063230580E+03  0.68073309682E+02 0.  0.
        -11    1    3    3    0    0 -0.39166363272E+01  0.28669036602E+02  0.46843299195E+02  0.55059498538E+02  0.00000000000E+00 0. -1.
         11    1    3    3    0    0  0.39166363272E+01 -0.28669036602E+02  0.16302484720E+03  0.16557280726E+03  0.00000000000E+00 0.  1.
<mgrwt>
<rscale>  0 0.68073310E+02</rscale>
<asrwt>0</asrwt>
<pdfrwt beam="2">  1        2 0.82801243E-03 0.68073310E+02</pdfrwt>
<pdfrwt beam="1">  1       -2 0.33115413E-01 0.68073310E+02</pdfrwt>
<totfact> 0.12673837E+05</totfact>
</mgrwt>
</event>
<event>
 5    1  0.1247456E+001  0.8561853E+02  0.7546771E-02  0.1313823E+00
         -4   -1    0    0    0  501 -0.00000000000E+00  0.00000000000E+00  0.49134776578E+02  0.49134776578E+02  0.00000000000E+00 0.  1.
          4   -1    0    0  501    0  0.00000000000E+00 -0.00000000000E+00 -0.37298086735E+02  0.37298086735E+02  0.00000000000E+00 0. -1.
         23    2    1    2    0    0  0.00000000000E+00  0.00000000000E+00  0.11836689844E+02  0.86432863313E+02  0.85618529736E+02 0.  0.
        -13    1    3    3    0    0  0.11759719363E+02  0.31852805829E+02 -0.20401470669E+02  0.39612021460E+02  0.00000000000E+00 0. -1.
         13    1    3    3    0    0 -0.11759719363E+02 -0.31852805829E+02  0.32238160512E+02  0.46820841854E+02  0.00000000000E+00 0.  1.
<mgrwt>
<rscale>  0 0.85618530E+02</rscale>
<asrwt>0</asrwt>
<pdfrwt beam="2">  1        4 0.57381672E-02 0.85618530E+02</pdfrwt>
<pdfrwt beam="1">  1       -4 0.75591964E-02 0.85618530E+02</pdfrwt>
<totfact> 0.32384834E+04</totfact>
</mgrwt>
</event>
<event>
 5    1  0.1247456E+001  0.9051047E+02  0.7546771E-02  0.1301620E+00
         -1   -1    0    0    0  501 -0.00000000000E+00  0.00000000000E+00  0.19685965748E+02  0.19685965748E+02  0.00000000000E+00 0.  1.
          1   -1    0    0  501    0  0.00000000000E+00 -0.00000000000E+00 -0.10403535026E+03  0.10403535026E+03  0.00000000000E+00 0. -1.
         23    2    1    2    0    0  0.00000000000E+00  0.00000000000E+00 -0.84349384509E+02  0.12372131601E+03  0.90510471036E+02 0.  0.
        -11    1    3    3    0    0  0.28847761546E+02 -0.25861308968E+02 -0.74145494802E+02  0.83657366963E+02  0.00000000000E+00 0. -1.
         11    1    3    3    0    0 -0.28847761546E+02  0.25861308968E+02 -0.10203889707E+02  0.40063949043E+02  0.00000000000E+00 0.  1.
<mgrwt>
<rscale>  0 0.90510471E+02</rscale>
<asrwt>0</asrwt>
<pdfrwt beam="2">  1        1 0.16005438E-01 0.90510471E+02</pdfrwt>
<pdfrwt beam="1">  1       -1 0.30286102E-02 0.90510471E+02</pdfrwt>
<totfact> 0.10726346E+05</totfact>
</mgrwt>
</event>
<event>
 5    1  0.1247456E+001  0.1006711E+03  0.7546771E-02  0.1278891E+00
         -2   -1    0    0    0  501 -0.00000000000E+00  0.00000000000E+00  0.92396178446E+01  0.92396178446E+01  0.00000000000E+00 0.  1.
          2   -1    0    0  501    0  0.00000000000E+00 -0.00000000000E+00 -0.27421755974E+03  0.27421755974E+03  0.00000000000E+00 0. -1.
         23    2    1    2    0    0  0.00000000000E+00  0.00000000000E+00 -0.26497794190E+03  0.28345717759E+03  0.10067105757E+03 0.  0.
        -13    1    3    3    0    0  0.31098413618E+02  0.36175602710E+02 -0.87273030122E+02  0.99460380794E+02  0.00000000000E+00 0.  1.
         13    1    3    3    0    0 -0.31098413618E+02 -0.36175602710E+02 -0.17770491178E+03  0.18399679679E+03  0.00000000000E+00 0. -1.
<mgrwt>
<rscale>  0 0.10067106E+03</rscale>
<asrwt>0</asrwt>
<pdfrwt beam="2">  1        2 0.42187316E-01 0.10067106E+03</pdfrwt>
<pdfrwt beam="1">  1       -2 0.14214797E-02 0.10067106E+03</pdfrwt>
<totfact> 0.13310972E+05</totfact>
</mgrwt>
</event>
<event>
 5    1  0.1247456E+001  0.9981931E+02  0.7546771E-02  0.1280676E+00
          2   -1    0    0  501    0  0.00000000000E+00  0.00000000000E+00  0.37610845721E+02  0.37610845721E+02  0.00000000000E+00 0. -1.
         -2   -1    0    0    0  501 -0.00000000000E+00 -0.00000000000E+00 -0.66230189351E+02  0.66230189351E+02  0.00000000000E+00 0.  1.
         23    2    1    2    0    0  0.00000000000E+00  0.00000000000E+00 -0.28619343630E+02  0.10384103507E+03  0.99819305422E+02 0.  0.
        -11    1    3    3    0    0  0.19206104729E+02  0.16902446096E+02 -0.58889547267E+02  0.64207055066E+02  0.00000000000E+00 0.  1.
         11    1    3    3    0    0 -0.19206104729E+02 -0.16902446096E+02  0.30270203637E+02  0.39633980006E+02  0.00000000000E+00 0. -1.
<mgrwt>
<rscale>  0 0.99819305E+02</rscale>
<asrwt>0</asrwt>
<pdfrwt beam="1">  1        2 0.57862840E-02 0.99819305E+02</pdfrwt>
<pdfrwt beam="2">  1       -2 0.10189260E-01 0.99819305E+02</pdfrwt>
<totfact> 0.71911295E+04</totfact>
</mgrwt>
</event>
<event>
 5    1  0.1247456E+001  0.9211009E+02  0.7546771E-02  0.1297821E+00
          2   -1    0    0  501    0  0.00000000000E+00  0.00000000000E+00  0.15270917366E+02  0.15270917366E+02  0.00000000000E+00 0. -1.
         -2   -1    0    0    0  501 -0.00000000000E+00 -0.00000000000E+00 -0.13889586048E+03  0.13889586048E+03  0.00000000000E+00 0.  1.
         23    2    1    2    0    0  0.00000000000E+00  0.00000000000E+00 -0.12362494312E+03  0.15416677785E+03  0.92110090824E+02 0.  0.
        -13    1    3    3    0    0  0.41673179354E+02  0.85176600430E+01 -0.91369813131E+02  0.10078515348E+03  0.00000000000E+00 0.  1.
         13    1    3    3    0    0 -0.41673179354E+02 -0.85176600430E+01 -0.32255129987E+02  0.53381624371E+02  0.00000000000E+00 0. -1.
<mgrwt>
<rscale>  0 0.92110091E+02</rscale>
<asrwt>0</asrwt>
<pdfrwt beam="1">  1        2 0.23493720E-02 0.92110091E+02</pdfrwt>
<pdfrwt beam="2">  1       -2 0.21368593E-01 0.92110091E+02</pdfrwt>
<totfact> 0.69974273E+04</totfact>
</mgrwt>
</event>
<event>
 5    1  0.1247456E+001  0.8887744E+02  0.7546771E-02  0.1305593E+00
         -2   -1    0    0    0  501 -0.00000000000E+00  0.00000000000E+00  0.13502909842E+02  0.13502909842E+02  0.00000000000E+00 0.  1.
          2   -1    0    0  501    0  0.00000000000E+00 -0.00000000000E+00 -0.14624994309E+03  0.14624994309E+03  0.00000000000E+00 0. -1.
         23    2    1    2    0    0  0.00000000000E+00  0.00000000000E+00 -0.13274703325E+03  0.15975285293E+03  0.88877439117E+02 0.  0.
        -11    1    3    3    0    0  0.19501126058E+02 -0.23359627894E+02 -0.12458523226E+03  0.12824759737E+03  0.00000000000E+00 0. -1.
         11    1    3    3    0    0 -0.19501126058E+02  0.23359627894E+02 -0.81618009872E+01  0.31505255565E+02  0.00000000000E+00 0.  1.
<mgrwt>
<rscale>  0 0.88877439E+02</rscale>
<asrwt>0</asrwt>
<pdfrwt beam="2">  1        2 0.22499993E-01 0.88877439E+02</pdfrwt>
<pdfrwt beam="1">  1       -2 0.20773705E-02 0.88877439E+02</pdfrwt>
<totfact> 0.14854849E+05</totfact>
</mgrwt>
</event>
<event>
 5    1  0.1247456E+001  0.9105671E+02  0.7546771E-02  0.1300313E+00
         -1   -1    0    0    0  501 -0.00000000000E+00  0.00000000000E+00  0.37025185979E+02  0.37025185979E+02  0.00000000000E+00 0.  1.
          1   -1    0    0  501    0  0.00000000000E+00 -0.00000000000E+00 -0.55984359756E+02  0.55984359756E+02  0.00000000000E+00 0. -1.
         23    2    1    2    0    0  0.00000000000E+00  0.00000000000E+00 -0.18959173777E+02  0.93009545735E+02  0.91056714895E+02 0.  0.
        -13    1    3    3    0    0 -0.14334570184E+02  0.37073591769E+02  0.13197906684E+02  0.41882166251E+02  0.00000000000E+00 0.  1.
         13    1    3    3    0    0  0.14334570184E+02 -0.37073591769E+02 -0.32157080462E+02  0.51127379484E+02  0.00000000000E+00 0. -1.
<mgrwt>
<rscale>  0 0.91056715E+02</rscale>
<asrwt>0</asrwt>
<pdfrwt beam="2">  1        1 0.86129784E-02 0.91056715E+02</pdfrwt>
<pdfrwt beam="1">  1       -1 0.56961825E-02 0.91056715E+02</pdfrwt>
<totfact> 0.95719944E+04</totfact>
</mgrwt>
</event>
<event>
 5    1  0.1247456E+001  0.9233036E+02  0.7546771E-02  0.1297305E+00
          1   -1    0    0  501    0  0.00000000000E+00  0.00000000000E+00  0.35179843912E+02  0.35179843912E+02  0.00000000000E+00 0. -1.
         -1   -1    0    0    0  501 -0.00000000000E+00 -0.00000000000E+00 -0.60580818672E+02  0.60580818672E+02  0.00000000000E+00 0.  1.
         23    2    1    2    0    0  0.00000000000E+00  0.00000000000E+00 -0.25400974759E+02  0.95760662584E+02  0.92330357845E+02 0.  0.
        -13    1    3    3    0    0 -0.22504824422E+02 -0.17129685704E+02 -0.50543487821E+02  0.57918368552E+02  0.00000000000E+00 0.  1.
         13    1    3    3    0    0  0.22504824422E+02  0.17129685704E+02  0.25142513062E+02  0.37842294032E+02  0.00000000000E+00 0. -1.
<mgrwt>
<rscale>  0 0.92330358E+02</rscale>
<asrwt>0</asrwt>
<pdfrwt beam="1">  1        1 0.54122837E-02 0.92330358E+02</pdfrwt>
<pdfrwt beam="2">  1       -1 0.93201260E-02 0.92330358E+02</pdfrwt>
<totfact> 0.85765538E+04</totfact>
</mgrwt>
</event>
<event>
 5    1  0.1247456E+001  0.9529792E+02  0.7546771E-02  0.1290507E+00
         -4   -1    0    0    0  501 -0.00000000000E+00  0.00000000000E+00  0.72980493884E+01  0.72980493884E+01  0.00000000000E+00 0.  1.
          4   -1    0    0  501    0  0.00000000000E+00 -0.00000000000E+00 -0.31110001088E+03  0.31110001088E+03  0.00000000000E+00 0. -1.
         23    2    1    2    0    0  0.00000000000E+00  0.00000000000E+00 -0.30380196149E+03  0.31839806027E+03  0.95297916958E+02 0.  0.
        -11    1    3    3    0    0 -0.45429585634E+02 -0.75737900114E+01 -0.11108865423E+03  0.12025763446E+03  0.00000000000E+00 0. -1.
         11    1    3    3    0    0  0.45429585634E+02  0.75737900114E+01 -0.19271330726E+03  0.19814042581E+03  0.00000000000E+00 0.  1.
<mgrwt>
<rscale>  0 0.95297917E+02</rscale>
<asrwt>0</asrwt>
<pdfrwt beam="2">  1        4 0.47861550E-01 0.95297917E+02</pdfrwt>
<pdfrwt beam="1">  1       -4 0.11227766E-02 0.95297917E+02</pdfrwt>
<totfact> 0.15352055E+04</totfact>
</mgrwt>
</event>
<event>
 5    1  0.1247456E+001  0.9261968E+02  0.7546771E-02  0.1296629E+00
         -4   -1    0    0    0  501 -0.00000000000E+00  0.00000000000E+00  0.47833538159E+02  0.47833538159E+02  0.00000000000E+00 0. -1.
          4   -1    0    0  501    0  0.00000000000E+00 -0.00000000000E+00 -0.44834675868E+02  0.44834675868E+02  0.00000000000E+00 0.  1.
         23    2    1    2    0    0  0.00000000000E+00  0.00000000000E+00  0.29988622909E+01  0.92668214026E+02  0.92619677800E+02 0.  0.
        -11    1    3    3    0    0 -0.18928340268E+02 -0.37678371071E+02  0.20657819770E+02  0.46954097047E+02  0.00000000000E+00 0. -1.
         11    1    3    3    0    0  0.18928340268E+02  0.37678371071E+02 -0.17658957479E+02  0.45714116979E+02  0.00000000000E+00 0.  1.
<mgrwt>
<rscale>  0 0.92619678E+02</rscale>
<asrwt>0</asrwt>
<pdfrwt beam="2">  1        4 0.68976424E-02 0.92619678E+02</pdfrwt>
<pdfrwt beam="1">  1       -4 0.73590059E-02 0.92619678E+02</pdfrwt>
<totfact> 0.25794000E+04</totfact>
</mgrwt>
</event>
<event>
 5    1  0.1247456E+001  0.9114711E+02  0.7546771E-02  0.1300097E+00
          1   -1    0    0  501    0  0.00000000000E+00  0.00000000000E+00  0.31811164464E+03  0.31811164464E+03  0.00000000000E+00 0. -1.
         -1   -1    0    0    0  501 -0.00000000000E+00 -0.00000000000E+00 -0.65289941050E+01  0.65289941050E+01  0.00000000000E+00 0.  1.
         23    2    1    2    0    0  0.00000000000E+00  0.00000000000E+00  0.31158265054E+03  0.32464063875E+03  0.91147113012E+02 0.  0.
        -11    1    3    3    0    0  0.39924210019E+02 -0.18271377748E+02  0.11229116038E+03  0.12056985730E+03  0.00000000000E+00 0.  1.
         11    1    3    3    0    0 -0.39924210019E+02  0.18271377748E+02  0.19929149016E+03  0.20407078145E+03  0.00000000000E+00 0. -1.
<mgrwt>
<rscale>  0 0.91147113E+02</rscale>
<asrwt>0</asrwt>
<pdfrwt beam="1">  1        1 0.48940241E-01 0.91147113E+02</pdfrwt>
<pdfrwt beam="2">  1       -1 0.10044609E-02 0.91147113E+02</pdfrwt>
<totfact> 0.12966073E+05</totfact>
</mgrwt>
</event>
<event>
 5    1  0.1247456E+001  0.9387388E+02  0.7546771E-02  0.1293733E+00
         -1   -1    0    0    0  501 -0.00000000000E+00  0.00000000000E+00  0.37411657754E+02  0.37411657754E+02  0.00000000000E+00 0.  1.
          1   -1    0    0  501    0  0.00000000000E+00 -0.00000000000E+00 -0.58887429424E+02  0.58887429424E+02  0.00000000000E+00 0. -1.
         23    2    1    2    0    0  0.00000000000E+00  0.00000000000E+00 -0.21475771670E+02  0.96299087177E+02  0.93873880405E+02 0.  0.
        -13    1    3    3    0    0  0.18019022012E+02 -0.51865713174E+01  0.33402707345E+02  0.38305698457E+02  0.00000000000E+00 0.  1.
         13    1    3    3    0    0 -0.18019022012E+02  0.51865713174E+01 -0.54878479015E+02  0.57993388720E+02  0.00000000000E+00 0. -1.
<mgrwt>
<rscale>  0 0.93873880E+02</rscale>
<asrwt>0</asrwt>
<pdfrwt beam="2">  1        1 0.90596045E-02 0.93873880E+02</pdfrwt>
<pdfrwt beam="1">  1       -1 0.57556397E-02 0.93873880E+02</pdfrwt>
<totfact> 0.88606562E+04</totfact>
</mgrwt>
</event>
<event>
 5    1  0.1247456E+001  0.9120983E+02  0.7546771E-02  0.1299948E+00
          2   -1    0    0  501    0  0.00000000000E+00  0.00000000000E+00  0.97324797322E+02  0.97324797322E+02  0.00000000000E+00 0. -1.
         -2   -1    0    0    0  501 -0.00000000000E+00 -0.00000000000E+00 -0.21369767164E+02  0.21369767164E+02  0.00000000000E+00 0.  1.
         23    2    1    2    0    0  0.00000000000E+00  0.00000000000E+00  0.75955030157E+02  0.11869456449E+03  0.91209829692E+02 0.  0.
        -13    1    3    3    0    0  0.21748713516E+02 -0.33130250408E+02  0.67342404047E+02  0.78138463093E+02  0.00000000000E+00 0. -1.
         13    1    3    3    0    0 -0.21748713516E+02  0.33130250408E+02  0.86126261099E+01  0.40556101393E+02  0.00000000000E+00 0.  1.
<mgrwt>
<rscale>  0 0.91209830E+02</rscale>
<asrwt>0</asrwt>
<pdfrwt beam="1">  1        2 0.14973045E-01 0.91209830E+02</pdfrwt>
<pdfrwt beam="2">  1       -2 0.32876565E-02 0.91209830E+02</pdfrwt>
<totfact> 0.12154984E+05</totfact>
</mgrwt>
</event>
<event>
 5    1  0.1247456E+001  0.9232876E+02  0.7546771E-02  0.1297308E+00
         -1   -1    0    0    0  501 -0.00000000000E+00  0.00000000000E+00  0.43090125961E+02  0.43090125961E+02  0.00000000000E+00 0.  1.
          1   -1    0    0  501    0  0.00000000000E+00 -0.00000000000E+00 -0.49457962104E+02  0.49457962104E+02  0.00000000000E+00 0. -1.
         23    2    1    2    0    0  0.00000000000E+00  0.00000000000E+00 -0.63678361439E+01  0.92548088065E+02  0.92328756448E+02 0.  0.
        -13    1    3    3    0    0 -0.28616414691E+02  0.13613088754E+02  0.30465673016E+02  0.43958760304E+02  0.00000000000E+00 0.  1.
         13    1    3    3    0    0  0.28616414691E+02 -0.13613088754E+02 -0.36833509159E+02  0.48589327760E+02  0.00000000000E+00 0. -1.
<mgrwt>
<rscale>  0 0.92328756E+02</rscale>
<asrwt>0</asrwt>
<pdfrwt beam="2">  1        1 0.76089172E-02 0.92328756E+02</pdfrwt>
<pdfrwt beam="1">  1       -1 0.66292502E-02 0.92328756E+02</pdfrwt>
<totfact> 0.90374681E+04</totfact>
</mgrwt>
</event>
<event>
 5    1  0.1247456E+001  0.9442450E+02  0.7546771E-02  0.1292478E+00
          3   -1    0    0  501    0  0.00000000000E+00  0.00000000000E+00  0.19290311404E+03  0.19290311404E+03  0.00000000000E+00 0. -1.
         -3   -1    0    0    0  501 -0.00000000000E+00 -0.00000000000E+00 -0.11555005983E+02  0.11555005983E+02  0.00000000000E+00 0.  1.
         23    2    1    2    0    0  0.00000000000E+00  0.00000000000E+00  0.18134810806E+03  0.20445812003E+03  0.94424501839E+02 0.  0.
        -11    1    3    3    0    0  0.42056622089E+02  0.97729024311E+01  0.49321346713E+02  0.65550471585E+02  0.00000000000E+00 0.  1.
         11    1    3    3    0    0 -0.42056622089E+02 -0.97729024311E+01  0.13202676135E+03  0.13890764844E+03  0.00000000000E+00 0. -1.
<mgrwt>
<rscale>  0 0.94424502E+02</rscale>
<asrwt>0</asrwt>
<pdfrwt beam="1">  1        3 0.29677400E-01 0.94424502E+02</pdfrwt>
<pdfrwt beam="2">  1       -3 0.17776934E-02 0.94424502E+02</pdfrwt>
<totfact> 0.25714921E+04</totfact>
</mgrwt>
</event>
<event>
 5    1  0.1247456E+001  0.9246967E+02  0.7546771E-02  0.1296979E+00
          3   -1    0    0  501    0  0.00000000000E+00  0.00000000000E+00  0.16457227756E+03  0.16457227756E+03  0.00000000000E+00 0. -1.
         -3   -1    0    0    0  501 -0.00000000000E+00 -0.00000000000E+00 -0.12989187616E+02  0.12989187616E+02  0.00000000000E+00 0.  1.
         23    2    1    2    0    0  0.00000000000E+00  0.00000000000E+00  0.15158308995E+03  0.17756146518E+03  0.92469674804E+02 0.  0.
        -13    1    3    3    0    0  0.85601635057E+01  0.44919154358E+02  0.88907226521E+02  0.99977506246E+02  0.00000000000E+00 0. -1.
         13    1    3    3    0    0 -0.85601635057E+01 -0.44919154358E+02  0.62675863427E+02  0.77583958933E+02  0.00000000000E+00 0.  1.
<mgrwt>
<rscale>  0 0.92469675E+02</rscale>
<asrwt>0</asrwt>
<pdfrwt beam="1">  1        3 0.25318810E-01 0.92469675E+02</pdfrwt>
<pdfrwt beam="2">  1       -3 0.19983367E-02 0.92469675E+02</pdfrwt>
<totfact> 0.28589836E+04</totfact>
</mgrwt>
</event>
<event>
 5    1  0.1247456E+001  0.9244659E+02  0.7546771E-02  0.1297033E+00
         -2   -1    0    0    0  501 -0.00000000000E+00  0.00000000000E+00  0.31150420233E+02  0.31150420233E+02  0.00000000000E+00 0.  1.
          2   -1    0    0  501    0  0.00000000000E+00 -0.00000000000E+00 -0.68589543575E+02  0.68589543575E+02  0.00000000000E+00 0. -1.
         23    2    1    2    0    0  0.00000000000E+00  0.00000000000E+00 -0.37439123342E+02  0.99739963808E+02  0.92446592278E+02 0.  0.
        -13    1    3    3    0    0  0.11608170395E+02 -0.44739854447E+02 -0.19188489426E+02  0.50046002061E+02  0.00000000000E+00 0. -1.
         13    1    3    3    0    0 -0.11608170395E+02  0.44739854447E+02 -0.18250633916E+02  0.49693961748E+02  0.00000000000E+00 0.  1.
<mgrwt>
<rscale>  0 0.92446592E+02</rscale>
<asrwt>0</asrwt>
<pdfrwt beam="2">  1        2 0.10552237E-01 0.92446592E+02</pdfrwt>
<pdfrwt beam="1">  1       -2 0.47923724E-02 0.92446592E+02</pdfrwt>
<totfact> 0.10581115E+05</totfact>
</mgrwt>
</event>
<event>
 5    1  0.1247456E+001  0.8957004E+02  0.7546771E-02  0.1303896E+00
         -2   -1    0    0    0  501 -0.00000000000E+00  0.00000000000E+00  0.63242480442E+02  0.63242480442E+02  0.00000000000E+00 0. -1.
          2   -1    0    0  501    0  0.00000000000E+00 -0.00000000000E+00 -0.31714412946E+02  0.31714412946E+02  0.00000000000E+00 0.  1.
         23    2    1    2    0    0  0.00000000000E+00  0.00000000000E+00  0.31528067496E+02  0.94956893389E+02  0.89570042771E+02 0.  0.
        -11    1    3    3    0    0 -0.31059521722E+02 -0.31255390444E+02  0.72759617339E+01  0.44660194140E+02  0.00000000000E+00 0.  1.
         11    1    3    3    0    0  0.31059521722E+02  0.31255390444E+02  0.24252105762E+02  0.50296699249E+02  0.00000000000E+00 0. -1.
<mgrwt>
<rscale>  0 0.89570043E+02</rscale>
<asrwt>0</asrwt>
<pdfrwt beam="2">  1        2 0.48791405E-02 0.89570043E+02</pdfrwt>
<pdfrwt beam="1">  1       -2 0.97296123E-02 0.89570043E+02</pdfrwt>
<totfact> 0.94607335E+04</totfact>
</mgrwt>
</event>
<event>
 5    1  0.1247456E+001  0.9081514E+02  0.7546771E-02  0.1300890E+00
          1   -1    0    0  501    0  0.00000000000E+00  0.00000000000E+00  0.14072534701E+03  0.14072534701E+03  0.00000000000E+00 0. -1.
         -1   -1    0    0    0  501 -0.00000000000E+00 -0.00000000000E+00 -0.14651571795E+02  0.14651571795E+02  0.00000000000E+00 0.  1.
         23    2    1    2    0    0  0.00000000000E+00  0.00000000000E+00  0.12607377521E+03  0.15537691880E+03  0.90815142462E+02 0.  0.
        -11    1    3    3    0    0  0.36971785166E+02  0.11046011546E+02  0.10398890725E+03  0.11091717676E+03  0.00000000000E+00 0.  1.
         11    1    3    3    0    0 -0.36971785166E+02 -0.11046011546E+02  0.22084867960E+02  0.44459742040E+02  0.00000000000E+00 0. -1.
<mgrwt>
<rscale>  0 0.90815142E+02</rscale>
<asrwt>0</asrwt>
<pdfrwt beam="1">  1        1 0.21650052E-01 0.90815142E+02</pdfrwt>
<pdfrwt beam="2">  1       -1 0.22540881E-02 0.90815142E+02</pdfrwt>
<totfact> 0.11202986E+05</totfact>
</mgrwt>
</event>
<event>
 5    1  0.1247456E+001  0.8212921E+02  0.7546771E-02  0.1323115E+00
         -1   -1    0    0    0  501 -0.00000000000E+00  0.00000000000E+00  0.30315992818E+02  0.30315992818E+02  0.00000000000E+00 0.  1.
          1   -1    0    0  501    0  0.00000000000E+00 -0.00000000000E+00 -0.55624169148E+02  0.55624169148E+02  0.00000000000E+00 0. -1.
         23    2    1    2    0    0  0.00000000000E+00  0.00000000000E+00 -0.25308176330E+02  0.85940161965E+02  0.82129213131E+02 0.  0.
        -11    1    3    3    0    0 -0.32107008122E+02 -0.15103673317E+02  0.89768632050E+01  0.36600068186E+02  0.00000000000E+00 0.  1.
         11    1    3    3    0    0  0.32107008122E+02  0.15103673317E+02 -0.34285039535E+02  0.49340093779E+02  0.00000000000E+00 0. -1.
<mgrwt>
<rscale>  0 0.82129213E+02</rscale>
<asrwt>0</asrwt>
<pdfrwt beam="2">  1        1 0.85575645E-02 0.82129213E+02</pdfrwt>
<pdfrwt beam="1">  1       -1 0.46639989E-02 0.82129213E+02</pdfrwt>
<totfact> 0.12711148E+05</totfact>
</mgrwt>
</event>
<event>
 5    1  0.1247456E+001  0.8611349E+02  0.7546771E-02  0.1312546E+00
         -1   -1    0    0    0  501 -0.00000000000E+00  0.00000000000E+00  0.17976312540E+02  0.17976312540E+02  0.00000000000E+00 0. -1.
          1   -1    0    0  501    0  0.00000000000E+00 -0.00000000000E+00 -0.10312922358E+03  0.10312922358E+03  0.00000000000E+00 0.  1.
         23    2    1    2    0    0  0.00000000000E+00  0.00000000000E+00 -0.85152911044E+02  0.12110553612E+03  0.86113486869E+02 0.  0.
        -13    1    3    3    0    0  0.10431226503E+02  0.17384145622E+02 -0.95996659646E+02  0.98114105350E+02  0.00000000000E+00 0.  1.
         13    1    3    3    0    0 -0.10431226503E+02 -0.17384145622E+02  0.10843748602E+02  0.22991430775E+02  0.00000000000E+00 0. -1.
<mgrwt>
<rscale>  0 0.86113487E+02</rscale>
<asrwt>0</asrwt>
<pdfrwt beam="2">  1        1 0.15866035E-01 0.86113487E+02</pdfrwt>
<pdfrwt beam="1">  1       -1 0.27655865E-02 0.86113487E+02</pdfrwt>
<totfact> 0.12258265E+05</totfact>
</mgrwt>
</event>
<event>
 5    1  0.1247456E+001  0.9024017E+02  0.7546771E-02  0.1302271E+00
         -3   -1    0    0    0  501 -0.00000000000E+00  0.00000000000E+00  0.42197244906E+03  0.42197244906E+03  0.00000000000E+00 0.  1.
          3   -1    0    0  501    0  0.00000000000E+00 -0.00000000000E+00 -0.48245380196E+01  0.48245380196E+01  0.00000000000E+00 0. -1.
         23    2    1    2    0    0  0.00000000000E+00  0.00000000000E+00  0.41714791104E+03  0.42679698708E+03  0.90240171182E+02 0.  0.
        -11    1    3    3    0    0  0.34281667960E+02 -0.28947175189E+02  0.18606478411E+03  0.19139821210E+03  0.00000000000E+00 0.  1.
         11    1    3    3    0    0 -0.34281667960E+02  0.28947175189E+02  0.23108312694E+03  0.23539877498E+03  0.00000000000E+00 0. -1.
<mgrwt>
<rscale>  0 0.90240171E+02</rscale>
<asrwt>0</asrwt>
<pdfrwt beam="2">  1        3 0.74223695E-03 0.90240171E+02</pdfrwt>
<pdfrwt beam="1">  1       -3 0.64918809E-01 0.90240171E+02</pdfrwt>
<totfact> 0.20367672E+04</totfact>
</mgrwt>
</event>
<event>
 5    1  0.1247456E+001  0.9218194E+02  0.7546771E-02  0.1297652E+00
         -1   -1    0    0    0  501 -0.00000000000E+00  0.00000000000E+00  0.26390375348E+02  0.26390375348E+02  0.00000000000E+00 0.  1.
          1   -1    0    0  501    0  0.00000000000E+00 -0.00000000000E+00 -0.80498187195E+02  0.80498187195E+02  0.00000000000E+00 0. -1.
         23    2    1    2    0    0  0.00000000000E+00  0.00000000000E+00 -0.54107811846E+02  0.10688856254E+03  0.92181936949E+02 0.  0.
        -13    1    3    3    0    0  0.37270738593E+02 -0.91896066249E+01  0.25273109819E+01  0.38470041929E+02  0.00000000000E+00 0.  1.
         13    1    3    3    0    0 -0.37270738593E+02  0.91896066249E+01 -0.56635122828E+02  0.68418520614E+02  0.00000000000E+00 0. -1.
<mgrwt>
<rscale>  0 0.92181937E+02</rscale>
<asrwt>0</asrwt>
<pdfrwt beam="2">  1        1 0.12384337E-01 0.92181937E+02</pdfrwt>
<pdfrwt beam="1">  1       -1 0.40600577E-02 0.92181937E+02</pdfrwt>
<totfact> 0.97849205E+04</totfact>
</mgrwt>
</event>
<event>
 5    1  0.1247456E+001  0.9564651E+02  0.7546771E-02  0.1289727E+00
         -3   -1    0    0    0  501 -0.00000000000E+00  0.00000000000E+00  0.32189095982E+02  0.32189095982E+02  0.00000000000E+00 0.  1.
          3   -1    0    0  501    0  0.00000000000E+00 -0.00000000000E+00 -0.71050884432E+02  0.71050884432E+02  0.00000000000E+00 0. -1.
         23    2    1    2    0    0  0.00000000000E+00  0.00000000000E+00 -0.38861788450E+02  0.10323998041E+03  0.95646510414E+02 0.  0.
        -11    1    3    3    0    0  0.32541136378E+02 -0.12449792673E+02  0.15928689699E+02  0.38309868832E+02  0.00000000000E+00 0.  1.
         11    1    3    3    0    0 -0.32541136378E+02  0.12449792673E+02 -0.54790478149E+02  0.64930111583E+02  0.00000000000E+00 0. -1.
<mgrwt>
<rscale>  0 0.95646510E+02</rscale>
<asrwt>0</asrwt>
<pdfrwt beam="2">  1        3 0.10930905E-01 0.95646510E+02</pdfrwt>
<pdfrwt beam="1">  1       -3 0.49521686E-02 0.95646510E+02</pdfrwt>
<totfact> 0.30211543E+04</totfact>
</mgrwt>
</event>
<event>
 5    1  0.1247456E+001  0.9300207E+02  0.7546771E-02  0.1295740E+00
         -4   -1    0    0    0  501 -0.00000000000E+00  0.00000000000E+00  0.14654232117E+02  0.14654232117E+02  0.00000000000E+00 0.  1.
          4   -1    0    0  501    0  0.00000000000E+00 -0.00000000000E+00 -0.14755779347E+03  0.14755779347E+03  0.00000000000E+00 0. -1.
         23    2    1    2    0    0  0.00000000000E+00  0.00000000000E+00 -0.13290356135E+03  0.16221202559E+03  0.93002067852E+02 0.  0.
        -13    1    3    3    0    0 -0.28065440766E+02 -0.82350082563E+01 -0.33988497036E+01  0.29445483621E+02  0.00000000000E+00 0.  1.
         13    1    3    3    0    0  0.28065440766E+02  0.82350082563E+01 -0.12950471165E+03  0.13276654197E+03  0.00000000000E+00 0. -1.
<mgrwt>
<rscale>  0 0.93002068E+02</rscale>
<asrwt>0</asrwt>
<pdfrwt beam="2">  1        4 0.22701199E-01 0.93002068E+02</pdfrwt>
<pdfrwt beam="1">  1       -4 0.22544973E-02 0.93002068E+02</pdfrwt>
<totfact> 0.21874145E+04</totfact>
</mgrwt>
</event>
<event>
 5    1  0.1247456E+001  0.8980957E+02  0.7546771E-02  0.1303313E+00
          4   -1    0    0  501    0  0.00000000000E+00  0.00000000000E+00  0.57457909872E+02  0.57457909872E+02  0.00000000000E+00 0. -1.
         -4   -1    0    0    0  501 -0.00000000000E+00 -0.00000000000E+00 -0.35094208022E+02  0.35094208022E+02  0.00000000000E+00 0.  1.
         23    2    1    2    0    0  0.00000000000E+00  0.00000000000E+00  0.22363701850E+02  0.92552117894E+02  0.89809572798E+02 0.  0.
        -11    1    3    3    0    0  0.42572350474E+01  0.40569444076E+02 -0.81647138453E+01  0.41601278767E+02  0.00000000000E+00 0.  1.
         11    1    3    3    0    0 -0.42572350474E+01 -0.40569444076E+02  0.30528415695E+02  0.50950839127E+02  0.00000000000E+00 0. -1.
<mgrwt>
<rscale>  0 0.89809573E+02</rscale>
<asrwt>0</asrwt>
<pdfrwt beam="1">  1        4 0.88396784E-02 0.89809573E+02</pdfrwt>
<pdfrwt beam="2">  1       -4 0.53991089E-02 0.89809573E+02</pdfrwt>
<totfact> 0.28052098E+04</totfact>
</mgrwt>
</event>
<event>
 5    1  0.1247456E+001  0.8898110E+02  0.7546771E-02  0.1305338E+00
          2   -1    0    0  501    0  0.00000000000E+00  0.00000000000E+00  0.63875742963E+01  0.63875742963E+01  0.00000000000E+00 0. -1.
         -2   -1    0    0    0  501 -0.00000000000E+00 -0.00000000000E+00 -0.30988431612E+03  0.30988431612E+03  0.00000000000E+00 0.  1.
         23    2    1    2    0    0  0.00000000000E+00  0.00000000000E+00 -0.30349674183E+03  0.31627189042E+03  0.88981101196E+02 0.  0.
        -11    1    3    3    0    0 -0.22723301707E+02  0.37952715517E+02 -0.16866510211E+03  0.17436936006E+03  0.00000000000E+00 0.  1.
         11    1    3    3    0    0  0.22723301707E+02 -0.37952715517E+02 -0.13483163971E+03  0.14190253036E+03  0.00000000000E+00 0. -1.
<mgrwt>
<rscale>  0 0.88981101E+02</rscale>
<asrwt>0</asrwt>
<pdfrwt beam="1">  1        2 0.98270396E-03 0.88981101E+02</pdfrwt>
<pdfrwt beam="2">  1       -2 0.47674500E-01 0.88981101E+02</pdfrwt>
<totfact> 0.53311840E+04</totfact>
</mgrwt>
</event>
<event>
 5    1  0.1247456E+001  0.9014458E+02  0.7546771E-02  0.1302502E+00
          1   -1    0    0  501    0  0.00000000000E+00  0.00000000000E+00  0.51325692177E+02  0.51325692177E+02  0.00000000000E+00 0. -1.
         -1   -1    0    0    0  501 -0.00000000000E+00 -0.00000000000E+00 -0.39580787368E+02  0.39580787368E+02  0.00000000000E+00 0.  1.
         23    2    1    2    0    0  0.00000000000E+00  0.00000000000E+00  0.11744904809E+02  0.90906479545E+02  0.90144579617E+02 0.  0.
        -13    1    3    3    0    0  0.39307976469E+01 -0.15704485314E+02 -0.36547661127E+02  0.39972660194E+02  0.00000000000E+00 0.  1.
         13    1    3    3    0    0 -0.39307976469E+01  0.15704485314E+02  0.48292565936E+02  0.50933819352E+02  0.00000000000E+00 0. -1.
<mgrwt>
<rscale>  0 0.90144580E+02</rscale>
<asrwt>0</asrwt>
<pdfrwt beam="1">  1        1 0.78962604E-02 0.90144580E+02</pdfrwt>
<pdfrwt beam="2">  1       -1 0.60893519E-02 0.90144580E+02</pdfrwt>
<totfact> 0.97168334E+04</totfact>
</mgrwt>
</event>
<event>
 5    1  0.1247456E+001  0.8989560E+02  0.7546771E-02  0.1303105E+00
          2   -1    0    0  501    0  0.00000000000E+00  0.00000000000E+00  0.48448645938E+03  0.48448645938E+03  0.00000000000E+00 0.  1.
         -2   -1    0    0    0  501 -0.00000000000E+00 -0.00000000000E+00 -0.41699916956E+01  0.41699916956E+01  0.00000000000E+00 0. -1.
         23    2    1    2    0    0  0.00000000000E+00  0.00000000000E+00  0.48031646768E+03  0.48865645107E+03  0.89895595270E+02 0.  0.
        -11    1    3    3    0    0 -0.44009003868E+02 -0.87126154260E+01  0.25514614962E+03  0.25906033999E+03  0.00000000000E+00 0. -1.
         11    1    3    3    0    0  0.44009003868E+02  0.87126154260E+01  0.22517031806E+03  0.22959611108E+03  0.00000000000E+00 0.  1.
<mgrwt>
<rscale>  0 0.89895595E+02</rscale>
<asrwt>0</asrwt>
<pdfrwt beam="1">  1        2 0.74536334E-01 0.89895595E+02</pdfrwt>
<pdfrwt beam="2">  1       -2 0.64153757E-03 0.89895595E+02</pdfrwt>
<totfact> 0.22141537E+05</totfact>
</mgrwt>
</event>
<event>
 5    1  0.1247456E+001  0.9232809E+02  0.7546771E-02  0.1297310E+00
          1   -1    0    0  501    0  0.00000000000E+00  0.00000000000E+00  0.13488896976E+03  0.13488896976E+03  0.00000000000E+00 0. -1.
         -1   -1    0    0    0  501 -0.00000000000E+00 -0.00000000000E+00 -0.15799061697E+02  0.15799061697E+02  0.00000000000E+00 0.  1.
         23    2    1    2    0    0  0.00000000000E+00  0.00000000000E+00  0.11908990806E+03  0.15068803146E+03  0.92328092269E+02 0.  0.
        -11    1    3    3    0    0  0.36809376118E+02  0.12854343936E+02  0.19203695048E+02  0.43462009062E+02  0.00000000000E+00 0.  1.
         11    1    3    3    0    0 -0.36809376118E+02 -0.12854343936E+02  0.99886213014E+02  0.10722602239E+03  0.00000000000E+00 0. -1.
<mgrwt>
<rscale>  0 0.92328092E+02</rscale>
<asrwt>0</asrwt>
<pdfrwt beam="1">  1        1 0.20752148E-01 0.92328092E+02</pdfrwt>
<pdfrwt beam="2">  1       -1 0.24306250E-02 0.92328092E+02</pdfrwt>
<totfact> 0.10631469E+05</totfact>
</mgrwt>
</event>
<event>
 5    1  0.1247456E+001  0.9364487E+02  0.7546771E-02  0.1294258E+00
         -2   -1    0    0    0  501 -0.00000000000E+00  0.00000000000E+00  0.19508294513E+02  0.19508294513E+02  0.00000000000E+00 0. -1.
          2   -1    0    0  501    0  0.00000000000E+00 -0.00000000000E+00 -0.11237992350E+03  0.11237992350E+03  0.00000000000E+00 0.  1.
         23    2    1    2    0    0  0.00000000000E+00  0.00000000000E+00 -0.92871628988E+02  0.13188821801E+03  0.93644874821E+02 0.  0.
        -13    1    3    3    0    0  0.31986426928E+02 -0.16072481763E+02 -0.39294819875E+01  0.36012456267E+02  0.00000000000E+00 0. -1.
         13    1    3    3    0    0 -0.31986426928E+02  0.16072481763E+02 -0.88942147001E+02  0.95875761748E+02  0.00000000000E+00 0.  1.
<mgrwt>
<rscale>  0 0.93644875E+02</rscale>
<asrwt>0</asrwt>
<pdfrwt beam="2">  1        2 0.17289219E-01 0.93644875E+02</pdfrwt>
<pdfrwt beam="1">  1       -2 0.30012761E-02 0.93644875E+02</pdfrwt>
<totfact> 0.11818743E+05</totfact>
</mgrwt>
</event>
<event>
 5    1  0.1247456E+001  0.9067599E+02  0.7546771E-02  0.1301223E+00
          2   -1    0    0  501    0  0.00000000000E+00  0.00000000000E+00  0.22533562028E+03  0.22533562028E+03  0.00000000000E+00 0. -1.
         -2   -1    0    0    0  501 -0.00000000000E+00 -0.00000000000E+00 -0.91220984637E+01  0.91220984637E+01  0.00000000000E+00 0.  1.
         23    2    1    2    0    0  0.00000000000E+00  0.00000000000E+00  0.21621352182E+03  0.23445771875E+03  0.90675988346E+02 0.  0.
        -11    1    3    3    0    0  0.17349347145E+02 -0.29350591513E+02  0.30835748283E+02  0.45970647599E+02  0.00000000000E+00 0.  1.
         11    1    3    3    0    0 -0.17349347145E+02  0.29350591513E+02  0.18537777354E+03  0.18848707115E+03  0.00000000000E+00 0. -1.
<mgrwt>
<rscale>  0 0.90675988E+02</rscale>
<asrwt>0</asrwt>
<pdfrwt beam="1">  1        2 0.34667014E-01 0.90675988E+02</pdfrwt>
<pdfrwt beam="2">  1       -2 0.14033999E-02 0.90675988E+02</pdfrwt>
<totfact> 0.16395869E+05</totfact>
</mgrwt>
</event>
<event>
 5    1  0.1247456E+001  0.9075067E+02  0.7546771E-02  0.1301044E+00
         -1   -1    0    0    0  501 -0.00000000000E+00  0.00000000000E+00  0.12125551020E+03  0.12125551020E+03  0.00000000000E+00 0.  1.
          1   -1    0    0  501    0  0.00000000000E+00 -0.00000000000E+00 -0.16980019074E+02  0.16980019074E+02  0.00000000000E+00 0. -1.
         23    2    1    2    0    0  0.00000000000E+00  0.00000000000E+00  0.10427549113E+03  0.13823552927E+03  0.90750666686E+02 0.  0.
        -13    1    3    3    0    0  0.17827574289E+02 -0.22136630883E+02 -0.17401124014E+01  0.28475969220E+02  0.00000000000E+00 0. -1.
         13    1    3    3    0    0 -0.17827574289E+02  0.22136630883E+02  0.10601560353E+03  0.10975956005E+03  0.00000000000E+00 0.  1.
<mgrwt>
<rscale>  0 0.90750667E+02</rscale>
<asrwt>0</asrwt>
<pdfrwt beam="2">  1        1 0.26123107E-02 0.90750667E+02</pdfrwt>
<pdfrwt beam="1">  1       -1 0.18654693E-01 0.90750667E+02</pdfrwt>
<totfact> 0.79317921E+04</totfact>
</mgrwt>
</event>
<event>
 5    1  0.1247456E+001  0.9494232E+02  0.7546771E-02  0.1291306E+00
         -1   -1    0    0    0  501 -0.00000000000E+00  0.00000000000E+00  0.13998683704E+02  0.13998683704E+02  0.00000000000E+00 0.  1.
          1   -1    0    0  501    0  0.00000000000E+00 -0.00000000000E+00 -0.16098020837E+03  0.16098020837E+03  0.00000000000E+00 0. -1.
         23    2    1    2    0    0  0.00000000000E+00  0.00000000000E+00 -0.14698152467E+03  0.17497889207E+03  0.94942319744E+02 0.  0.
        -11    1    3    3    0    0  0.38882343045E+02  0.27208895303E+02 -0.75632482466E+02  0.89288481834E+02  0.00000000000E+00 0. -1.
         11    1    3    3    0    0 -0.38882343045E+02 -0.27208895303E+02 -0.71349042199E+02  0.85690410240E+02  0.00000000000E+00 0.  1.
<mgrwt>
<rscale>  0 0.94942320E+02</rscale>
<asrwt>0</asrwt>
<pdfrwt beam="2">  1        1 0.24766186E-01 0.94942320E+02</pdfrwt>
<pdfrwt beam="1">  1       -1 0.21536437E-02 0.94942320E+02</pdfrwt>
<totfact> 0.10184193E+05</totfact>
</mgrwt>
</event>
<event>
 5    1  0.1247456E+001  0.9058692E+02  0.7546771E-02  0.1301437E+00
          1   -1    0    0  501    0  0.00000000000E+00  0.00000000000E+00  0.21564719552E+02  0.21564719552E+02  0.00000000000E+00 0. -1.
         -1   -1    0    0    0  501 -0.00000000000E+00 -0.00000000000E+00 -0.95132113175E+02  0.95132113175E+02  0.00000000000E+00 0.  1.
         23    2    1    2    0    0  0.00000000000E+00  0.00000000000E+00 -0.73567393623E+02  0.11669683273E+03  0.90586916076E+02 0.  0.
        -11    1    3    3    0    0 -0.37868844977E+02 -0.14808397335E+02 -0.62488957969E+02  0.74553389726E+02  0.00000000000E+00 0.  1.
         11    1    3    3    0    0  0.37868844977E+02  0.14808397335E+02 -0.11078435654E+02  0.42143443002E+02  0.00000000000E+00 0. -1.
<mgrwt>
<rscale>  0 0.90586916E+02</rscale>
<asrwt>0</asrwt>
<pdfrwt beam="1">  1        1 0.33176491E-02 0.90586916E+02</pdfrwt>
<pdfrwt beam="2">  1       -1 0.14635710E-01 0.90586916E+02</pdfrwt>
<totfact> 0.83502090E+04</totfact>
</mgrwt>
</event>
<event>
 5    1  0.1247456E+001  0.9266792E+02  0.7546771E-02  0.1296517E+00
          2   -1    0    0  501    0  0.00000000000E+00  0.00000000000E+00  0.29819518705E+03  0.29819518705E+03  0.00000000000E+00 0.  1.
         -2   -1    0    0    0  501 -0.00000000000E+00 -0.00000000000E+00 -0.71994317974E+01  0.71994317974E+01  0.00000000000E+00 0. -1.
         23    2    1    2    0    0  0.00000000000E+00  0.00000000000E+00  0.29099575525E+03  0.30539461885E+03  0.92667921342E+02 0.  0.
        -13    1    3    3    0    0 -0.23651659187E+02  0.38092111633E+02  0.18399076324E+03  0.18937531758E+03  0.00000000000E+00 0.  1.
         13    1    3    3    0    0  0.23651659187E+02 -0.38092111633E+02  0.10700499201E+03  0.11601930127E+03  0.00000000000E+00 0. -1.
<mgrwt>
<rscale>  0 0.92667921E+02</rscale>
<asrwt>0</asrwt>
<pdfrwt beam="1">  1        2 0.45876173E-01 0.92667921E+02</pdfrwt>
<pdfrwt beam="2">  1       -2 0.11076051E-02 0.92667921E+02</pdfrwt>
<totfact> 0.17165155E+05</totfact>
</mgrwt>
</event>
<event>
 5    1  0.1247456E+001  0.9215153E+02  0.7546771E-02  0.1297724E+00
          1   -1    0    0  501    0  0.00000000000E+00  0.00000000000E+00  0.27797793664E+02  0.27797793664E+02  0.00000000000E+00 0. -1.
         -1   -1    0    0    0  501 -0.00000000000E+00 -0.00000000000E+00 -0.76372106056E+02  0.76372106056E+02  0.00000000000E+00 0.  1.
         23    2    1    2    0    0  0.00000000000E+00  0.00000000000E+00 -0.48574312392E+02  0.10416989972E+03  0.92151528383E+02 0.  0.
        -11    1    3    3    0    0 -0.68466383246E+01 -0.22540678223E+02  0.20475427322E+02  0.31212205227E+02  0.00000000000E+00 0. -1.
         11    1    3    3    0    0  0.68466383246E+01  0.22540678223E+02 -0.69049739714E+02  0.72957694493E+02  0.00000000000E+00 0.  1.
<mgrwt>
<rscale>  0 0.92151528E+02</rscale>
<asrwt>0</asrwt>
<pdfrwt beam="1">  1        1 0.42765836E-02 0.92151528E+02</pdfrwt>
<pdfrwt beam="2">  1       -1 0.11749555E-01 0.92151528E+02</pdfrwt>
<totfact> 0.83021651E+04</totfact>
</mgrwt>
</event>
<event>
 5    1  0.1247456E+001  0.8334778E+02  0.7546771E-02  0.1319811E+00
         -1   -1    0    0    0  501 -0.00000000000E+00  0.00000000000E+00  0.18394786697E+02  0.18394786697E+02  0.00000000000E+00 0.  1.
          1   -1    0    0  501    0  0.00000000000E+00 -0.00000000000E+00 -0.94413325448E+02  0.94413325448E+02  0.00000000000E+00 0. -1.
         23    2    1    2    0    0  0.00000000000E+00  0.00000000000E+00 -0.76018538751E+02  0.11280811215E+03  0.83347777006E+02 0.  0.
        -13    1    3    3    0    0 -0.12384841228E+02  0.29930380718E+02 -0.25211506374E+01  0.32489508810E+02  0.00000000000E+00 0.  1.
         13    1    3    3    0    0  0.12384841228E+02 -0.29930380718E+02 -0.73497388114E+02  0.80318603335E+02  0.00000000000E+00 0. -1.
<mgrwt>
<rscale>  0 0.83347777E+02</rscale>
<asrwt>0</asrwt>
<pdfrwt beam="2">  1        1 0.14525127E-01 0.83347777E+02</pdfrwt>
<pdfrwt beam="1">  1       -1 0.28299671E-02 0.83347777E+02</pdfrwt>
<totfact> 0.13199744E+05</totfact>
</mgrwt>
</event>
<event>
 5    1  0.1247456E+001  0.9186335E+02  0.7546771E-02  0.1298401E+00
          4   -1    0    0  501    0  0.00000000000E+00  0.00000000000E+00  0.24024619342E+02  0.24024619342E+02  0.00000000000E+00 0. -1.
         -4   -1    0    0    0  501 -0.00000000000E+00 -0.00000000000E+00 -0.87814860830E+02  0.87814860830E+02  0.00000000000E+00 0.  1.
         23    2    1    2    0    0  0.00000000000E+00  0.00000000000E+00 -0.63790241488E+02  0.11183948017E+03  0.91863346423E+02 0.  0.
        -11    1    3    3    0    0  0.14959742995E+02  0.36601364420E+02 -0.34403892069E+01  0.39689923983E+02  0.00000000000E+00 0.  1.
         11    1    3    3    0    0 -0.14959742995E+02 -0.36601364420E+02 -0.60349852281E+02  0.72149556189E+02  0.00000000000E+00 0. -1.
<mgrwt>
<rscale>  0 0.91863346E+02</rscale>
<asrwt>0</asrwt>
<pdfrwt beam="1">  1        4 0.36960953E-02 0.91863346E+02</pdfrwt>
<pdfrwt beam="2">  1       -4 0.13509979E-01 0.91863346E+02</pdfrwt>
<totfact> 0.25225732E+04</totfact>
</mgrwt>
</event>
<event>
 5    1  0.1247456E+001  0.8926548E+02  0.7546771E-02  0.1304640E+00
          3   -1    0    0  501    0  0.00000000000E+00  0.00000000000E+00  0.38118811831E+02  0.38118811831E+02  0.00000000000E+00 0. -1.
         -3   -1    0    0    0  501 -0.00000000000E+00 -0.00000000000E+00 -0.52259803041E+02  0.52259803041E+02  0.00000000000E+00 0.  1.
         23    2    1    2    0    0  0.00000000000E+00  0.00000000000E+00 -0.14140991210E+02  0.90378614872E+02  0.89265482656E+02 0.  0.
        -11    1    3    3    0    0  0.73961241245E+01 -0.42631529905E+02 -0.18158386536E+02  0.46924162174E+02  0.00000000000E+00 0.  1.
         11    1    3    3    0    0 -0.73961241245E+01  0.42631529905E+02  0.40173953264E+01  0.43454452699E+02  0.00000000000E+00 0. -1.
<mgrwt>
<rscale>  0 0.89265483E+02</rscale>
<asrwt>0</asrwt>
<pdfrwt beam="1">  1        3 0.58644326E-02 0.89265483E+02</pdfrwt>
<pdfrwt beam="2">  1       -3 0.80399696E-02 0.89265483E+02</pdfrwt>
<totfact> 0.37498738E+04</totfact>
</mgrwt>
</event>
<event>
 5    1  0.1247456E+001  0.9124241E+02  0.7546771E-02  0.1299871E+00
          2   -1    0    0  501    0  0.00000000000E+00  0.00000000000E+00  0.11812960403E+02  0.11812960403E+02  0.00000000000E+00 0. -1.
         -2   -1    0    0    0  501 -0.00000000000E+00 -0.00000000000E+00 -0.17618738103E+03  0.17618738103E+03  0.00000000000E+00 0.  1.
         23    2    1    2    0    0  0.00000000000E+00  0.00000000000E+00 -0.16437442063E+03  0.18800034144E+03  0.91242414605E+02 0.  0.
        -11    1    3    3    0    0  0.39149625053E+02  0.10616806202E+02 -0.12520496618E+03  0.13161190399E+03  0.00000000000E+00 0.  1.
         11    1    3    3    0    0 -0.39149625053E+02 -0.10616806202E+02 -0.39169454447E+02  0.56388437444E+02  0.00000000000E+00 0. -1.
<mgrwt>
<rscale>  0 0.91242415E+02</rscale>
<asrwt>0</asrwt>
<pdfrwt beam="1">  1        2 0.18173785E-02 0.91242415E+02</pdfrwt>
<pdfrwt beam="2">  1       -2 0.27105751E-01 0.91242415E+02</pdfrwt>
<totfact> 0.65577957E+04</totfact>
</mgrwt>
</event>
<event>
 5    1  0.1247456E+001  0.9127978E+02  0.7546771E-02  0.1299782E+00
          2   -1    0    0  501    0  0.00000000000E+00  0.00000000000E+00  0.68598860081E+02  0.68598860081E+02  0.00000000000E+00 0. -1.
         -2   -1    0    0    0  501 -0.00000000000E+00 -0.00000000000E+00 -0.30364929371E+02  0.30364929371E+02  0.00000000000E+00 0.  1.
         23    2    1    2    0    0  0.00000000000E+00  0.00000000000E+00  0.38233930711E+02  0.98963789452E+02  0.91279779607E+02 0.  0.
        -13    1    3    3    0    0  0.65039274806E+01 -0.17023475630E+02 -0.26249231576E+02  0.31954998882E+02  0.00000000000E+00 0.  1.
         13    1    3    3    0    0 -0.65039274806E+01  0.17023475630E+02  0.64483162287E+02  0.67008790570E+02  0.00000000000E+00 0. -1.
<mgrwt>
<rscale>  0 0.91279780E+02</rscale>
<asrwt>0</asrwt>
<pdfrwt beam="1">  1        2 0.10553671E-01 0.91279780E+02</pdfrwt>
<pdfrwt beam="2">  1       -2 0.46715276E-02 0.91279780E+02</pdfrwt>
<totfact> 0.10965558E+05</totfact>
</mgrwt>
</event>
<event>
 5    1  0.1247456E+001  0.1102129E+03  0.7546771E-02  0.1260176E+00
          1   -1    0    0  501    0  0.00000000000E+00  0.00000000000E+00  0.81003999771E+01  0.81003999771E+01  0.00000000000E+00 0.  1.
         -1   -1    0    0    0  501 -0.00000000000E+00 -0.00000000000E+00 -0.37488541070E+03  0.37488541070E+03  0.00000000000E+00 0. -1.
         23    2    1    2    0    0  0.00000000000E+00  0.00000000000E+00 -0.36678501072E+03  0.38298581068E+03  0.11021291707E+03 0.  0.
        -13    1    3    3    0    0  0.42975773494E+02 -0.26262589915E+02 -0.26110133702E+03  0.26591455193E+03  0.00000000000E+00 0. -1.
         13    1    3    3    0    0 -0.42975773494E+02  0.26262589915E+02 -0.10568367370E+03  0.11707125874E+03  0.00000000000E+00 0.  1.
<mgrwt>
<rscale>  0 0.11021292E+03</rscale>
<asrwt>0</asrwt>
<pdfrwt beam="1">  1        1 0.12462155E-02 0.11021292E+03</pdfrwt>
<pdfrwt beam="2">  1       -1 0.57674675E-01 0.11021292E+03</pdfrwt>
<totfact> 0.33369811E+04</totfact>
</mgrwt>
</event>
<event>
 5    1  0.1247456E+001  0.1002776E+03  0.7546771E-02  0.1279713E+00
         -3   -1    0    0    0  501 -0.00000000000E+00  0.00000000000E+00  0.17918487205E+03  0.17918487205E+03  0.00000000000E+00 0.  1.
          3   -1    0    0  501    0  0.00000000000E+00 -0.00000000000E+00 -0.14029642763E+02  0.14029642763E+02  0.00000000000E+00 0. -1.
         23    2    1    2    0    0  0.00000000000E+00  0.00000000000E+00  0.16515522929E+03  0.19321451482E+03  0.10027760953E+03 0.  0.
        -11    1    3    3    0    0 -0.15669933068E+01  0.41687122894E+02  0.13616985136E+03  0.14241664265E+03  0.00000000000E+00 0.  1.
         11    1    3    3    0    0  0.15669933068E+01 -0.41687122894E+02  0.28985377927E+02  0.50797872168E+02  0.00000000000E+00 0. -1.
<mgrwt>
<rscale>  0 0.10027761E+03</rscale>
<asrwt>0</asrwt>
<pdfrwt beam="2">  1        3 0.21584067E-02 0.10027761E+03</pdfrwt>
<pdfrwt beam="1">  1       -3 0.27566902E-01 0.10027761E+03</pdfrwt>
<totfact> 0.22279813E+04</totfact>
</mgrwt>
</event>
<event>
 5    1  0.1247456E+001  0.9234919E+02  0.7546771E-02  0.1297260E+00
         -2   -1    0    0    0  501 -0.00000000000E+00  0.00000000000E+00  0.41877012221E+02  0.41877012221E+02  0.00000000000E+00 0.  1.
          2   -1    0    0  501    0  0.00000000000E+00 -0.00000000000E+00 -0.50913210340E+02  0.50913210340E+02  0.00000000000E+00 0. -1.
         23    2    1    2    0    0  0.00000000000E+00  0.00000000000E+00 -0.90361981181E+01  0.92790222561E+02  0.92349188012E+02 0.  0.
        -13    1    3    3    0    0 -0.31552941809E+02  0.24295148877E+02  0.18965526806E+02  0.44108203350E+02  0.00000000000E+00 0.  1.
         13    1    3    3    0    0  0.31552941809E+02 -0.24295148877E+02 -0.28001724924E+02  0.48682019211E+02  0.00000000000E+00 0. -1.
<mgrwt>
<rscale>  0 0.92349188E+02</rscale>
<asrwt>0</asrwt>
<pdfrwt beam="2">  1        2 0.78328016E-02 0.92349188E+02</pdfrwt>
<pdfrwt beam="1">  1       -2 0.64426173E-02 0.92349188E+02</pdfrwt>
<totfact> 0.97919168E+04</totfact>
</mgrwt>
</event>
<event>
 5    1  0.1247456E+001  0.9144510E+02  0.7546771E-02  0.1299389E+00
          2   -1    0    0  501    0  0.00000000000E+00  0.00000000000E+00  0.12888863166E+02  0.12888863166E+02  0.00000000000E+00 0. -1.
         -2   -1    0    0    0  501 -0.00000000000E+00 -0.00000000000E+00 -0.16219830729E+03  0.16219830729E+03  0.00000000000E+00 0.  1.
         23    2    1    2    0    0  0.00000000000E+00  0.00000000000E+00 -0.14930944413E+03  0.17508717046E+03  0.91445104590E+02 0.  0.
        -11    1    3    3    0    0 -0.31676559865E+01  0.24579289490E+02 -0.14822330514E+03  0.15028081615E+03  0.00000000000E+00 0.  1.
         11    1    3    3    0    0  0.31676559865E+01 -0.24579289490E+02 -0.10861389898E+01  0.24806354310E+02  0.00000000000E+00 0. -1.
<mgrwt>
<rscale>  0 0.91445105E+02</rscale>
<asrwt>0</asrwt>
<pdfrwt beam="1">  1        2 0.19829021E-02 0.91445105E+02</pdfrwt>
<pdfrwt beam="2">  1       -2 0.24953585E-01 0.91445105E+02</pdfrwt>
<totfact> 0.67348336E+04</totfact>
</mgrwt>
</event>
<event>
 5    1  0.1247456E+001  0.9156221E+02  0.7546771E-02  0.1299112E+00
          1   -1    0    0  501    0  0.00000000000E+00  0.00000000000E+00  0.97656454449E+01  0.97656454449E+01  0.00000000000E+00 0. -1.
         -1   -1    0    0    0  501 -0.00000000000E+00 -0.00000000000E+00 -0.21462070520E+03  0.21462070520E+03  0.00000000000E+00 0.  1.
         23    2    1    2    0    0  0.00000000000E+00  0.00000000000E+00 -0.20485505975E+03  0.22438635064E+03  0.91562212995E+02 0.  0.
        -13    1    3    3    0    0  0.31952976146E+02 -0.19893594982E+02 -0.16629310302E+03  0.17049968890E+03  0.00000000000E+00 0.  1.
         13    1    3    3    0    0 -0.31952976146E+02  0.19893594982E+02 -0.38561956738E+02  0.53886661739E+02  0.00000000000E+00 0. -1.
<mgrwt>
<rscale>  0 0.91562213E+02</rscale>
<asrwt>0</asrwt>
<pdfrwt beam="1">  1        1 0.15024070E-02 0.91562213E+02</pdfrwt>
<pdfrwt beam="2">  1       -1 0.33018571E-01 0.91562213E+02</pdfrwt>
<totfact> 0.67256779E+04</totfact>
</mgrwt>
</event>
<event>
 5    1  0.1247456E+001  0.9144630E+02  0.7546771E-02  0.1299387E+00
          4   -1    0    0  501    0  0.00000000000E+00  0.00000000000E+00  0.10145267044E+03  0.10145267044E+03  0.00000000000E+00 0. -1.
         -4   -1    0    0    0  501 -0.00000000000E+00 -0.00000000000E+00 -0.20606717448E+02  0.20606717448E+02  0.00000000000E+00 0.  1.
         23    2    1    2    0    0  0.00000000000E+00  0.00000000000E+00  0.80845952997E+02  0.12205938789E+03  0.91446301492E+02 0.  0.
        -11    1    3    3    0    0  0.88502679299E+01  0.43628251697E+02  0.54349062888E+02  0.70253627845E+02  0.00000000000E+00 0. -1.
         11    1    3    3    0    0 -0.88502679299E+01 -0.43628251697E+02  0.26496890108E+02  0.51805760046E+02  0.00000000000E+00 0.  1.
<mgrwt>
<rscale>  0 0.91446301E+02</rscale>
<asrwt>0</asrwt>
<pdfrwt beam="1">  1        4 0.15608103E-01 0.91446301E+02</pdfrwt>
<pdfrwt beam="2">  1       -4 0.31702643E-02 0.91446301E+02</pdfrwt>
<totfact> 0.24956322E+04</totfact>
</mgrwt>
</event>
<event>
 5    1  0.1247456E+001  0.8946950E+02  0.7546771E-02  0.1304141E+00
         -3   -1    0    0    0  501 -0.00000000000E+00  0.00000000000E+00  0.41299182846E+03  0.41299182846E+03  0.00000000000E+00 0.  1.
          3   -1    0    0  501    0  0.00000000000E+00 -0.00000000000E+00 -0.48456109192E+01  0.48456109192E+01  0.00000000000E+00 0. -1.
         23    2    1    2    0    0  0.00000000000E+00  0.00000000000E+00  0.40814621754E+03  0.41783743937E+03  0.89469496780E+02 0.  0.
        -13    1    3    3    0    0 -0.14384482513E+02  0.42163502928E+02  0.18508935780E+03  0.19037527330E+03  0.00000000000E+00 0. -1.
         13    1    3    3    0    0  0.14384482513E+02 -0.42163502928E+02  0.22305685974E+03  0.22746216607E+03  0.00000000000E+00 0.  1.
<mgrwt>
<rscale>  0 0.89469497E+02</rscale>
<asrwt>0</asrwt>
<pdfrwt beam="2">  1        3 0.74547893E-03 0.89469497E+02</pdfrwt>
<pdfrwt beam="1">  1       -3 0.63537177E-01 0.89469497E+02</pdfrwt>
<totfact> 0.21109607E+04</totfact>
</mgrwt>
</event>
<event>
 5    1  0.1247456E+001  0.9315939E+02  0.7546771E-02  0.1295376E+00
          2   -1    0    0  501    0  0.00000000000E+00  0.00000000000E+00  0.30272141729E+03  0.30272141729E+03  0.00000000000E+00 0. -1.
         -2   -1    0    0    0  501 -0.00000000000E+00 -0.00000000000E+00 -0.71672093386E+01  0.71672093386E+01  0.00000000000E+00 0.  1.
         23    2    1    2    0    0  0.00000000000E+00  0.00000000000E+00  0.29555420795E+03  0.30988862663E+03  0.93159385335E+02 0.  0.
        -13    1    3    3    0    0  0.22138039330E+02 -0.40510575472E+02  0.12714562860E+03  0.13526718147E+03  0.00000000000E+00 0.  1.
         13    1    3    3    0    0 -0.22138039330E+02  0.40510575472E+02  0.16840857935E+03  0.17462144516E+03  0.00000000000E+00 0. -1.
<mgrwt>
<rscale>  0 0.93159385E+02</rscale>
<asrwt>0</asrwt>
<pdfrwt beam="1">  1        2 0.46572516E-01 0.93159385E+02</pdfrwt>
<pdfrwt beam="2">  1       -2 0.11026478E-02 0.93159385E+02</pdfrwt>
<totfact> 0.17019416E+05</totfact>
</mgrwt>
</event>
<event>
 5    1  0.1247456E+001  0.9299733E+02  0.7546771E-02  0.1295751E+00
          1   -1    0    0  501    0  0.00000000000E+00  0.00000000000E+00  0.19570834281E+02  0.19570834281E+02  0.00000000000E+00 0. -1.
         -1   -1    0    0    0  501 -0.00000000000E+00 -0.00000000000E+00 -0.11047694691E+03  0.11047694691E+03  0.00000000000E+00 0.  1.
         23    2    1    2    0    0  0.00000000000E+00  0.00000000000E+00 -0.90906112631E+02  0.13004778119E+03  0.92997333722E+02 0.  0.
        -11    1    3    3    0    0 -0.94198309708E+01 -0.45304533309E+02 -0.39061256809E+02  0.60555889370E+02  0.00000000000E+00 0. -1.
         11    1    3    3    0    0  0.94198309708E+01  0.45304533309E+02 -0.51844855822E+02  0.69491891823E+02  0.00000000000E+00 0.  1.
<mgrwt>
<rscale>  0 0.92997334E+02</rscale>
<asrwt>0</asrwt>
<pdfrwt beam="1">  1        1 0.30108975E-02 0.92997334E+02</pdfrwt>
<pdfrwt beam="2">  1       -1 0.16996454E-01 0.92997334E+02</pdfrwt>
<totfact> 0.75863105E+04</totfact>
</mgrwt>
</event>
<event>
 5    1  0.1247456E+001  0.9047851E+02  0.7546771E-02  0.1301697E+00
         -1   -1    0    0    0  501 -0.00000000000E+00  0.00000000000E+00  0.48230540551E+02  0.48230540551E+02  0.00000000000E+00 0.  1.
          1   -1    0    0  501    0  0.00000000000E+00 -0.00000000000E+00 -0.42433487472E+02  0.42433487472E+02  0.00000000000E+00 0. -1.
         23    2    1    2    0    0  0.00000000000E+00  0.00000000000E+00  0.57970530790E+01  0.90664028023E+02  0.90478506580E+02 0.  0.
        -13    1    3    3    0    0  0.29348042360E+02 -0.34030293668E+02 -0.23296000810E+01  0.44997727876E+02  0.00000000000E+00 0. -1.
         13    1    3    3    0    0 -0.29348042360E+02  0.34030293668E+02  0.81266531600E+01  0.45666300147E+02  0.00000000000E+00 0.  1.
<mgrwt>
<rscale>  0 0.90478507E+02</rscale>
<asrwt>0</asrwt>
<pdfrwt beam="2">  1        1 0.65282289E-02 0.90478507E+02</pdfrwt>
<pdfrwt beam="1">  1       -1 0.74200831E-02 0.90478507E+02</pdfrwt>
<totfact> 0.93478500E+04</totfact>
</mgrwt>
</event>
<event>
 5    1  0.1247456E+001  0.8798763E+02  0.7546771E-02  0.1307799E+00
          1   -1    0    0  501    0  0.00000000000E+00  0.00000000000E+00  0.12328346370E+03  0.12328346370E+03  0.00000000000E+00 0. -1.
         -1   -1    0    0    0  501 -0.00000000000E+00 -0.00000000000E+00 -0.15699232034E+02  0.15699232034E+02  0.00000000000E+00 0.  1.
         23    2    1    2    0    0  0.00000000000E+00  0.00000000000E+00  0.10758423167E+03  0.13898269574E+03  0.87987628735E+02 0.  0.
        -11    1    3    3    0    0  0.28065232338E+02  0.20932198252E+02  0.11713773364E+02  0.36919191165E+02  0.00000000000E+00 0.  1.
         11    1    3    3    0    0 -0.28065232338E+02 -0.20932198252E+02  0.95870458306E+02  0.10206350457E+03  0.00000000000E+00 0. -1.
<mgrwt>
<rscale>  0 0.87987629E+02</rscale>
<asrwt>0</asrwt>
<pdfrwt beam="1">  1        1 0.18966686E-01 0.87987629E+02</pdfrwt>
<pdfrwt beam="2">  1       -1 0.24152665E-02 0.87987629E+02</pdfrwt>
<totfact> 0.11918029E+05</totfact>
</mgrwt>
</event>
<event>
 5    1  0.1247456E+001  0.9388324E+02  0.7546771E-02  0.1293711E+00
          3   -1    0    0  501    0  0.00000000000E+00  0.00000000000E+00  0.90554490462E+01  0.90554490462E+01  0.00000000000E+00 0. -1.
         -3   -1    0    0    0  501 -0.00000000000E+00 -0.00000000000E+00 -0.24333590734E+03  0.24333590734E+03  0.00000000000E+00 0.  1.
         23    2    1    2    0    0  0.00000000000E+00  0.00000000000E+00 -0.23428045829E+03  0.25239135638E+03  0.93883244724E+02 0.  0.
        -13    1    3    3    0    0 -0.16975517579E+02  0.29612611860E+02 -0.20377201870E+03  0.20661101273E+03  0.00000000000E+00 0.  1.
         13    1    3    3    0    0  0.16975517579E+02 -0.29612611860E+02 -0.30508439590E+02  0.45780343647E+02  0.00000000000E+00 0. -1.
<mgrwt>
<rscale>  0 0.93883245E+02</rscale>
<asrwt>0</asrwt>
<pdfrwt beam="1">  1        3 0.13931461E-02 0.93883245E+02</pdfrwt>
<pdfrwt beam="2">  1       -3 0.37436292E-01 0.93883245E+02</pdfrwt>
<totfact> 0.24021079E+04</totfact>
</mgrwt>
</event>
<event>
 4    1  0.1247456E+001  0.1774747E+03  0.7546771E-02  0.1170270E+00
          1   -1    0    0  501    0  0.00000000000E+00  0.00000000000E+00  0.16057093315E+03  0.16057093315E+03  0.00000000000E+00 0. -1.
         -1   -1    0    0    0  501 -0.00000000000E+00 -0.00000000000E+00 -0.49039484179E+02  0.49039484179E+02  0.00000000000E+00 0.  1.
        -11    1    1    2    0    0 -0.49662518702E+02 -0.71315429693E+01 -0.30679492591E+02  0.58808638265E+02  0.00000000000E+00 0.  1.
         11    1    1    2    0    0  0.49662518702E+02  0.71315429693E+01  0.14221094156E+03  0.15080177907E+03  0.00000000000E+00 0. -1.
<mgrwt>
<rscale>  0 0.17747468E+03</rscale>
<asrwt>0</asrwt>
<pdfrwt beam="1">  1        1 0.24703220E-01 0.17747468E+03</pdfrwt>
<pdfrwt beam="2">  1       -1 0.75445361E-02 0.17747468E+03</pdfrwt>
<totfact> 0.17457567E+04</totfact>
</mgrwt>
</event>
<event>
 5    1  0.1247456E+001  0.8617154E+02  0.7546771E-02  0.1312397E+00
         -1   -1    0    0    0  501 -0.00000000000E+00  0.00000000000E+00  0.53696964796E+02  0.53696964796E+02  0.00000000000E+00 0.  1.
          1   -1    0    0  501    0  0.00000000000E+00 -0.00000000000E+00 -0.34571483615E+02  0.34571483615E+02  0.00000000000E+00 0. -1.
         23    2    1    2    0    0  0.00000000000E+00  0.00000000000E+00  0.19125481181E+02  0.88268448411E+02  0.86171543763E+02 0.  0.
        -11    1    3    3    0    0 -0.30115083729E+01  0.17414127375E+02 -0.30688019732E+02  0.35412929418E+02  0.00000000000E+00 0. -1.
         11    1    3    3    0    0  0.30115083729E+01 -0.17414127375E+02  0.49813500912E+02  0.52855518993E+02  0.00000000000E+00 0.  1.
<mgrwt>
<rscale>  0 0.86171544E+02</rscale>
<asrwt>0</asrwt>
<pdfrwt beam="2">  1        1 0.53186898E-02 0.86171544E+02</pdfrwt>
<pdfrwt beam="1">  1       -1 0.82610715E-02 0.86171544E+02</pdfrwt>
<totfact> 0.10401476E+05</totfact>
</mgrwt>
</event>
<event>
 5    1  0.1247456E+001  0.8922234E+02  0.7546771E-02  0.1304746E+00
         -2   -1    0    0    0  501 -0.00000000000E+00  0.00000000000E+00  0.83072676514E+02  0.83072676514E+02  0.00000000000E+00 0.  1.
          2   -1    0    0  501    0  0.00000000000E+00 -0.00000000000E+00 -0.23956810946E+02  0.23956810946E+02  0.00000000000E+00 0. -1.
         23    2    1    2    0    0  0.00000000000E+00  0.00000000000E+00  0.59115865568E+02  0.10702948746E+03  0.89222338146E+02 0.  0.
        -11    1    3    3    0    0 -0.79982759092E+01  0.30102507244E+02 -0.87540684211E+01  0.32353779900E+02  0.00000000000E+00 0. -1.
         11    1    3    3    0    0  0.79982759092E+01 -0.30102507244E+02  0.67869933989E+02  0.74675707560E+02  0.00000000000E+00 0.  1.
<mgrwt>
<rscale>  0 0.89222338E+02</rscale>
<asrwt>0</asrwt>
<pdfrwt beam="2">  1        2 0.36856633E-02 0.89222338E+02</pdfrwt>
<pdfrwt beam="1">  1       -2 0.12780412E-01 0.89222338E+02</pdfrwt>
<totfact> 0.88805359E+04</totfact>
</mgrwt>
</event>
<event>
 5    1  0.1247456E+001  0.9127209E+02  0.7546771E-02  0.1299800E+00
         -2   -1    0    0    0  501 -0.00000000000E+00  0.00000000000E+00  0.15783452029E+02  0.15783452029E+02  0.00000000000E+00 0.  1.
          2   -1    0    0  501    0  0.00000000000E+00 -0.00000000000E+00 -0.13195139600E+03  0.13195139600E+03  0.00000000000E+00 0. -1.
         23    2    1    2    0    0  0.00000000000E+00  0.00000000000E+00 -0.11616794397E+03  0.14773484803E+03  0.91272088371E+02 0.  0.
        -13    1    3    3    0    0 -0.73701889128E+01  0.20348892576E+02  0.69485430544E+01  0.22730582136E+02  0.00000000000E+00 0.  1.
         13    1    3    3    0    0  0.73701889128E+01 -0.20348892576E+02 -0.12311648703E+03  0.12500426589E+03  0.00000000000E+00 0. -1.
<mgrwt>
<rscale>  0 0.91272088E+02</rscale>
<asrwt>0</asrwt>
<pdfrwt beam="2">  1        2 0.20300215E-01 0.91272088E+02</pdfrwt>
<pdfrwt beam="1">  1       -2 0.24282234E-02 0.91272088E+02</pdfrwt>
<totfact> 0.13355412E+05</totfact>
</mgrwt>
</event>
<event>
 5    1  0.1247456E+001  0.9099051E+02  0.7546771E-02  0.1300471E+00
         -2   -1    0    0    0  501 -0.00000000000E+00  0.00000000000E+00  0.53128954392E+02  0.53128954392E+02  0.00000000000E+00 0.  1.
          2   -1    0    0  501    0  0.00000000000E+00 -0.00000000000E+00 -0.38958384887E+02  0.38958384887E+02  0.00000000000E+00 0. -1.
         23    2    1    2    0    0  0.00000000000E+00  0.00000000000E+00  0.14170569505E+02  0.92087339279E+02  0.90990510579E+02 0.  0.
        -11    1    3    3    0    0  0.29079438665E+02 -0.33661848503E+02  0.16744146672E+02  0.47529993115E+02  0.00000000000E+00 0.  1.
         11    1    3    3    0    0 -0.29079438665E+02  0.33661848503E+02 -0.25735771677E+01  0.44557346164E+02  0.00000000000E+00 0. -1.
<mgrwt>
<rscale>  0 0.90990511E+02</rscale>
<asrwt>0</asrwt>
<pdfrwt beam="2">  1        2 0.59935977E-02 0.90990511E+02</pdfrwt>
<pdfrwt beam="1">  1       -2 0.81736852E-02 0.90990511E+02</pdfrwt>
<totfact> 0.95303367E+04</totfact>
</mgrwt>
</event>
<event>
 5    1  0.1247456E+001  0.9174401E+02  0.7546771E-02  0.1298682E+00
         -2   -1    0    0    0  501 -0.00000000000E+00  0.00000000000E+00  0.46316909539E+01  0.46316909539E+01  0.00000000000E+00 0.  1.
          2   -1    0    0  501    0  0.00000000000E+00 -0.00000000000E+00 -0.45431370130E+03  0.45431370130E+03  0.00000000000E+00 0. -1.
         23    2    1    2    0    0  0.00000000000E+00  0.00000000000E+00 -0.44968201034E+03  0.45894539225E+03  0.91744006028E+02 0.  0.
        -13    1    3    3    0    0 -0.32431402023E+02  0.32390968067E+02 -0.21579497734E+03  0.22060925387E+03  0.00000000000E+00 0.  1.
         13    1    3    3    0    0  0.32431402023E+02 -0.32390968067E+02 -0.23388703300E+03  0.23833613838E+03  0.00000000000E+00 0. -1.
<mgrwt>
<rscale>  0 0.91744006E+02</rscale>
<asrwt>0</asrwt>
<pdfrwt beam="2">  1        2 0.69894410E-01 0.91744006E+02</pdfrwt>
<pdfrwt beam="1">  1       -2 0.71256790E-03 0.91744006E+02</pdfrwt>
<totfact> 0.20531540E+05</totfact>
</mgrwt>
</event>
<event>
 5    1  0.1247456E+001  0.9196748E+02  0.7546771E-02  0.1298156E+00
          1   -1    0    0  501    0  0.00000000000E+00  0.00000000000E+00  0.59682625904E+02  0.59682625904E+02  0.00000000000E+00 0. -1.
         -1   -1    0    0    0  501 -0.00000000000E+00 -0.00000000000E+00 -0.35429141117E+02  0.35429141117E+02  0.00000000000E+00 0.  1.
         23    2    1    2    0    0  0.00000000000E+00  0.00000000000E+00  0.24253484787E+02  0.95111767021E+02  0.91967476325E+02 0.  0.
        -11    1    3    3    0    0 -0.27530479217E+01 -0.21929131710E+02  0.53829554155E+02  0.58190093581E+02  0.00000000000E+00 0. -1.
         11    1    3    3    0    0  0.27530479217E+01  0.21929131710E+02 -0.29576069368E+02  0.36921673441E+02  0.00000000000E+00 0.  1.
<mgrwt>
<rscale>  0 0.91967476E+02</rscale>
<asrwt>0</asrwt>
<pdfrwt beam="1">  1        1 0.91819424E-02 0.91967476E+02</pdfrwt>
<pdfrwt beam="2">  1       -1 0.54506371E-02 0.91967476E+02</pdfrwt>
<totfact> 0.94011040E+04</totfact>
</mgrwt>
</event>
<event>
 5    1  0.1247456E+001  0.9166885E+02  0.7546771E-02  0.1298860E+00
          3   -1    0    0  501    0  0.00000000000E+00  0.00000000000E+00  0.39910798693E+02  0.39910798693E+02  0.00000000000E+00 0. -1.
         -3   -1    0    0    0  501 -0.00000000000E+00 -0.00000000000E+00 -0.52637247659E+02  0.52637247659E+02  0.00000000000E+00 0.  1.
         23    2    1    2    0    0  0.00000000000E+00  0.00000000000E+00 -0.12726448967E+02  0.92548046352E+02  0.91668851745E+02 0.  0.
        -11    1    3    3    0    0  0.26055989615E+02 -0.28511562039E+01  0.31597274506E+02  0.41054006415E+02  0.00000000000E+00 0. -1.
         11    1    3    3    0    0 -0.26055989615E+02  0.28511562039E+01 -0.44323723472E+02  0.51494039937E+02  0.00000000000E+00 0.  1.
<mgrwt>
<rscale>  0 0.91668852E+02</rscale>
<asrwt>0</asrwt>
<pdfrwt beam="1">  1        3 0.61401229E-02 0.91668852E+02</pdfrwt>
<pdfrwt beam="2">  1       -3 0.80980381E-02 0.91668852E+02</pdfrwt>
<totfact> 0.34720455E+04</totfact>
</mgrwt>
</event>
<event>
 5    1  0.1247456E+001  0.8459132E+02  0.7546771E-02  0.1316505E+00
          2   -1    0    0  501    0  0.00000000000E+00  0.00000000000E+00  0.15302615837E+02  0.15302615837E+02  0.00000000000E+00 0. -1.
         -2   -1    0    0    0  501 -0.00000000000E+00 -0.00000000000E+00 -0.11690307947E+03  0.11690307947E+03  0.00000000000E+00 0.  1.
         23    2    1    2    0    0  0.00000000000E+00  0.00000000000E+00 -0.10160046363E+03  0.13220569531E+03  0.84591321429E+02 0.  0.
        -13    1    3    3    0    0  0.39851935070E+02  0.78165978942E+01 -0.32331369854E+02  0.51909473201E+02  0.00000000000E+00 0. -1.
         13    1    3    3    0    0 -0.39851935070E+02 -0.78165978942E+01 -0.69269093778E+02  0.80296222105E+02  0.00000000000E+00 0.  1.
<mgrwt>
<rscale>  0 0.84591321E+02</rscale>
<asrwt>0</asrwt>
<pdfrwt beam="1">  1        2 0.23542485E-02 0.84591321E+02</pdfrwt>
<pdfrwt beam="2">  1       -2 0.17985090E-01 0.84591321E+02</pdfrwt>
<totfact> 0.91765387E+04</totfact>
</mgrwt>
</event>
<event>
 5    1  0.1247456E+001  0.1011449E+03  0.7546771E-02  0.1277907E+00
         -1   -1    0    0    0  501 -0.00000000000E+00  0.00000000000E+00  0.16255075547E+02  0.16255075547E+02  0.00000000000E+00 0.  1.
          1   -1    0    0  501    0  0.00000000000E+00 -0.00000000000E+00 -0.15733980454E+03  0.15733980454E+03  0.00000000000E+00 0. -1.
         23    2    1    2    0    0  0.00000000000E+00  0.00000000000E+00 -0.14108472899E+03  0.17359488008E+03  0.10114485472E+03 0.  0.
        -11    1    3    3    0    0 -0.35391299088E+02  0.21845296175E+02 -0.21161545081E+02  0.46664461920E+02  0.00000000000E+00 0.  1.
         11    1    3    3    0    0  0.35391299088E+02 -0.21845296175E+02 -0.11992318391E+03  0.12693041816E+03  0.00000000000E+00 0. -1.
<mgrwt>
<rscale>  0 0.10114485E+03</rscale>
<asrwt>0</asrwt>
<pdfrwt beam="2">  1        1 0.24206125E-01 0.10114485E+03</pdfrwt>
<pdfrwt beam="1">  1       -1 0.25007807E-02 0.10114485E+03</pdfrwt>
<totfact> 0.85373948E+04</totfact>
</mgrwt>
</event>
<event>
 5    1  0.1247456E+001  0.9149834E+02  0.7546771E-02  0.1299263E+00
          2   -1    0    0  501    0  0.00000000000E+00  0.00000000000E+00  0.18680392685E+03  0.18680392685E+03  0.00000000000E+00 0. -1.
         -2   -1    0    0    0  501 -0.00000000000E+00 -0.00000000000E+00 -0.11204188504E+02  0.11204188504E+02  0.00000000000E+00 0.  1.
         23    2    1    2    0    0  0.00000000000E+00  0.00000000000E+00  0.17559973835E+03  0.19800811535E+03  0.91498336810E+02 0.  0.
        -13    1    3    3    0    0  0.40139339164E+02 -0.21757245783E+02  0.81512116114E+02  0.93427883236E+02  0.00000000000E+00 0.  1.
         13    1    3    3    0    0 -0.40139339164E+02  0.21757245783E+02  0.94087622233E+02  0.10458023212E+03  0.00000000000E+00 0. -1.
<mgrwt>
<rscale>  0 0.91498337E+02</rscale>
<asrwt>0</asrwt>
<pdfrwt beam="1">  1        2 0.28739063E-01 0.91498337E+02</pdfrwt>
<pdfrwt beam="2">  1       -2 0.17237214E-02 0.91498337E+02</pdfrwt>
<totfact> 0.14950130E+05</totfact>
</mgrwt>
</event>
<event>
 5    1  0.1247456E+001  0.9100277E+02  0.7546771E-02  0.1300441E+00
         -1   -1    0    0    0  501 -0.00000000000E+00  0.00000000000E+00  0.10695763954E+02  0.10695763954E+02  0.00000000000E+00 0.  1.
          1   -1    0    0  501    0  0.00000000000E+00 -0.00000000000E+00 -0.19356971846E+03  0.19356971846E+03  0.00000000000E+00 0. -1.
         23    2    1    2    0    0  0.00000000000E+00  0.00000000000E+00 -0.18287395451E+03  0.20426548242E+03  0.91002769570E+02 0.  0.
        -11    1    3    3    0    0 -0.40156640796E+02 -0.19300734906E+02 -0.70706008467E+02  0.83572805393E+02  0.00000000000E+00 0.  1.
         11    1    3    3    0    0  0.40156640796E+02  0.19300734906E+02 -0.11216794604E+03  0.12069267702E+03  0.00000000000E+00 0. -1.
<mgrwt>
<rscale>  0 0.91002770E+02</rscale>
<asrwt>0</asrwt>
<pdfrwt beam="2">  1        1 0.29779956E-01 0.91002770E+02</pdfrwt>
<pdfrwt beam="1">  1       -1 0.16455022E-02 0.91002770E+02</pdfrwt>
<totfact> 0.11826444E+05</totfact>
</mgrwt>
</event>
<event>
 5    1  0.1247456E+001  0.9759392E+02  0.7546771E-02  0.1285439E+00
         -2   -1    0    0    0  501 -0.00000000000E+00  0.00000000000E+00  0.84285711955E+02  0.84285711955E+02  0.00000000000E+00 0.  1.
          2   -1    0    0  501    0  0.00000000000E+00 -0.00000000000E+00 -0.28250851593E+02  0.28250851593E+02  0.00000000000E+00 0. -1.
         23    2    1    2    0    0  0.00000000000E+00  0.00000000000E+00  0.56034860361E+02  0.11253656355E+03  0.97593916611E+02 0.  0.
        -13    1    3    3    0    0  0.17525983112E+02  0.37926705029E+02 -0.10525753773E+01  0.41793575503E+02  0.00000000000E+00 0. -1.
         13    1    3    3    0    0 -0.17525983112E+02 -0.37926705029E+02  0.57087435738E+02  0.70742988045E+02  0.00000000000E+00 0.  1.
<mgrwt>
<rscale>  0 0.97593917E+02</rscale>
<asrwt>0</asrwt>
<pdfrwt beam="2">  1        2 0.43462849E-02 0.97593917E+02</pdfrwt>
<pdfrwt beam="1">  1       -2 0.12967032E-01 0.97593917E+02</pdfrwt>
<totfact> 0.70917678E+04</totfact>
</mgrwt>
</event>
<event>
 5    1  0.1247456E+001  0.8950023E+02  0.7546771E-02  0.1304066E+00
         -1   -1    0    0    0  501 -0.00000000000E+00  0.00000000000E+00  0.25308447471E+02  0.25308447471E+02  0.00000000000E+00 0.  1.
          1   -1    0    0  501    0  0.00000000000E+00 -0.00000000000E+00 -0.79126654173E+02  0.79126654173E+02  0.00000000000E+00 0. -1.
         23    2    1    2    0    0  0.00000000000E+00  0.00000000000E+00 -0.53818206702E+02  0.10443510164E+03  0.89500229512E+02 0.  0.
        -11    1    3    3    0    0  0.38295142118E+02 -0.93014466231E+01 -0.21687712027E+01  0.39468194634E+02  0.00000000000E+00 0. -1.
         11    1    3    3    0    0 -0.38295142118E+02  0.93014466231E+01 -0.51649435499E+02  0.64966907010E+02  0.00000000000E+00 0.  1.
<mgrwt>
<rscale>  0 0.89500230E+02</rscale>
<asrwt>0</asrwt>
<pdfrwt beam="2">  1        1 0.12173331E-01 0.89500230E+02</pdfrwt>
<pdfrwt beam="1">  1       -1 0.38936073E-02 0.89500230E+02</pdfrwt>
<totfact> 0.10581671E+05</totfact>
</mgrwt>
</event>
<event>
 5    1  0.1247456E+001  0.9159237E+02  0.7546771E-02  0.1299041E+00
         -1   -1    0    0    0  501 -0.00000000000E+00  0.00000000000E+00  0.24321372320E+02  0.24321372320E+02  0.00000000000E+00 0.  1.
          1   -1    0    0  501    0  0.00000000000E+00 -0.00000000000E+00 -0.86232406437E+02  0.86232406437E+02  0.00000000000E+00 0. -1.
         23    2    1    2    0    0  0.00000000000E+00  0.00000000000E+00 -0.61911034117E+02  0.11055377876E+03  0.91592367871E+02 0.  0.
        -13    1    3    3    0    0 -0.12244728621E+02 -0.11590522219E+02 -0.82349849387E+02  0.84058142249E+02  0.00000000000E+00 0. -1.
         13    1    3    3    0    0  0.12244728621E+02  0.11590522219E+02  0.20438815270E+02  0.26495636508E+02  0.00000000000E+00 0.  1.
<mgrwt>
<rscale>  0 0.91592368E+02</rscale>
<asrwt>0</asrwt>
<pdfrwt beam="2">  1        1 0.13266524E-01 0.91592368E+02</pdfrwt>
<pdfrwt beam="1">  1       -1 0.37417496E-02 0.91592368E+02</pdfrwt>
<totfact> 0.10069120E+05</totfact>
</mgrwt>
</event>
<event>
 5    1  0.1247456E+001  0.9056448E+02  0.7546771E-02  0.1301490E+00
          2   -1    0    0  501    0  0.00000000000E+00  0.00000000000E+00  0.35721708187E+02  0.35721708187E+02  0.00000000000E+00 0. -1.
         -2   -1    0    0    0  501 -0.00000000000E+00 -0.00000000000E+00 -0.57401543271E+02  0.57401543271E+02  0.00000000000E+00 0.  1.
         23    2    1    2    0    0  0.00000000000E+00  0.00000000000E+00 -0.21679835085E+02  0.93123251458E+02  0.90564478207E+02 0.  0.
        -13    1    3    3    0    0 -0.21996380924E+02 -0.37380302588E+02  0.25413477243E+01  0.43446360533E+02  0.00000000000E+00 0.  1.
         13    1    3    3    0    0  0.21996380924E+02  0.37380302588E+02 -0.24221182809E+02  0.49676890925E+02  0.00000000000E+00 0. -1.
<mgrwt>
<rscale>  0 0.90564478E+02</rscale>
<asrwt>0</asrwt>
<pdfrwt beam="1">  1        2 0.54956475E-02 0.90564478E+02</pdfrwt>
<pdfrwt beam="2">  1       -2 0.88310065E-02 0.90564478E+02</pdfrwt>
<totfact> 0.94469890E+04</totfact>
</mgrwt>
</event>
<event>
 5    1  0.1247456E+001  0.9147290E+02  0.7546771E-02  0.1299324E+00
         -2   -1    0    0    0  501 -0.00000000000E+00  0.00000000000E+00  0.12540970254E+03  0.12540970254E+03  0.00000000000E+00 0.  1.
          2   -1    0    0  501    0  0.00000000000E+00 -0.00000000000E+00 -0.16679914124E+02  0.16679914124E+02  0.00000000000E+00 0. -1.
         23    2    1    2    0    0  0.00000000000E+00  0.00000000000E+00  0.10872978841E+03  0.14208961666E+03  0.91472904591E+02 0.  0.
        -13    1    3    3    0    0 -0.44447125113E+02 -0.68596629963E+01  0.41441121435E+02  0.61155281481E+02  0.00000000000E+00 0.  1.
         13    1    3    3    0    0  0.44447125113E+02  0.68596629963E+01  0.67288666977E+02  0.80934335179E+02  0.00000000000E+00 0. -1.
<mgrwt>
<rscale>  0 0.91472905E+02</rscale>
<asrwt>0</asrwt>
<pdfrwt beam="2">  1        2 0.25661407E-02 0.91472905E+02</pdfrwt>
<pdfrwt beam="1">  1       -2 0.19293800E-01 0.91472905E+02</pdfrwt>
<totfact> 0.73731733E+04</totfact>
</mgrwt>
</event>
<event>
 5    1  0.1247456E+001  0.1020413E+03  0.7546771E-02  0.1276061E+00
         -2   -1    0    0    0  501 -0.00000000000E+00  0.00000000000E+00  0.10005838955E+02  0.10005838955E+02  0.00000000000E+00 0.  1.
          2   -1    0    0  501    0  0.00000000000E+00 -0.00000000000E+00 -0.26015852510E+03  0.26015852510E+03  0.00000000000E+00 0. -1.
         23    2    1    2    0    0  0.00000000000E+00  0.00000000000E+00 -0.25015268615E+03  0.27016436406E+03  0.10204125254E+03 0.  0.
        -11    1    3    3    0    0  0.58406004377E+01  0.50095348943E+02 -0.10466273222E+03  0.11618065293E+03  0.00000000000E+00 0.  1.
         11    1    3    3    0    0 -0.58406004377E+01 -0.50095348943E+02 -0.14548995392E+03  0.15398371113E+03  0.00000000000E+00 0. -1.
<mgrwt>
<rscale>  0 0.10204125E+03</rscale>
<asrwt>0</asrwt>
<pdfrwt beam="2">  1        2 0.40024386E-01 0.10204125E+03</pdfrwt>
<pdfrwt beam="1">  1       -2 0.15393600E-02 0.10204125E+03</pdfrwt>
<totfact> 0.12578789E+05</totfact>
</mgrwt>
</event>
<event>
 5    1  0.1247456E+001  0.9021707E+02  0.7546771E-02  0.1302327E+00
         -1   -1    0    0    0  501 -0.00000000000E+00  0.00000000000E+00  0.15136836694E+03  0.15136836694E+03  0.00000000000E+00 0.  1.
          1   -1    0    0  501    0  0.00000000000E+00 -0.00000000000E+00 -0.13442570694E+02  0.13442570694E+02  0.00000000000E+00 0. -1.
         23    2    1    2    0    0  0.00000000000E+00  0.00000000000E+00  0.13792579624E+03  0.16481093763E+03  0.90217070968E+02 0.  0.
        -11    1    3    3    0    0  0.40937576008E+02 -0.12834423908E+02  0.94418950998E+02  0.10370894790E+03  0.00000000000E+00 0.  1.
         11    1    3    3    0    0 -0.40937576008E+02  0.12834423908E+02  0.43506845247E+02  0.61101989737E+02  0.00000000000E+00 0. -1.
<mgrwt>
<rscale>  0 0.90217071E+02</rscale>
<asrwt>0</asrwt>
<pdfrwt beam="2">  1        1 0.20680879E-02 0.90217071E+02</pdfrwt>
<pdfrwt beam="1">  1       -1 0.23287440E-01 0.90217071E+02</pdfrwt>
<totfact> 0.76705742E+04</totfact>
</mgrwt>
</event>
<event>
 5    1  0.1247456E+001  0.9558409E+02  0.7546771E-02  0.1289866E+00
         -1   -1    0    0    0  501 -0.00000000000E+00  0.00000000000E+00  0.14448655186E+03  0.14448655186E+03  0.00000000000E+00 0.  1.
          1   -1    0    0  501    0  0.00000000000E+00 -0.00000000000E+00 -0.15808250751E+02  0.15808250751E+02  0.00000000000E+00 0. -1.
         23    2    1    2    0    0  0.00000000000E+00  0.00000000000E+00  0.12867830111E+03  0.16029480262E+03  0.95584091606E+02 0.  0.
        -13    1    3    3    0    0  0.29878135433E+02  0.14239027163E+02  0.12215628691E+03  0.12656070205E+03  0.00000000000E+00 0.  1.
         13    1    3    3    0    0 -0.29878135433E+02 -0.14239027163E+02  0.65220141979E+01  0.33734100562E+02  0.00000000000E+00 0. -1.
<mgrwt>
<rscale>  0 0.95584092E+02</rscale>
<asrwt>0</asrwt>
<pdfrwt beam="2">  1        1 0.24320387E-02 0.95584092E+02</pdfrwt>
<pdfrwt beam="1">  1       -1 0.22228699E-01 0.95584092E+02</pdfrwt>
<totfact> 0.66729637E+04</totfact>
</mgrwt>
</event>
<event>
 5    1  0.1247456E+001  0.9058383E+02  0.7546771E-02  0.1301444E+00
          1   -1    0    0  501    0  0.00000000000E+00  0.00000000000E+00  0.11986383524E+03  0.11986383524E+03  0.00000000000E+00 0. -1.
         -1   -1    0    0    0  501 -0.00000000000E+00 -0.00000000000E+00 -0.17114064940E+02  0.17114064940E+02  0.00000000000E+00 0.  1.
         23    2    1    2    0    0  0.00000000000E+00  0.00000000000E+00  0.10274977029E+03  0.13697790018E+03  0.90583827700E+02 0.  0.
        -13    1    3    3    0    0 -0.39352333701E+01 -0.26575478001E+02  0.10651438838E+03  0.10985015714E+03  0.00000000000E+00 0. -1.
         13    1    3    3    0    0  0.39352333701E+01  0.26575478001E+02 -0.37646180848E+01  0.27127743032E+02  0.00000000000E+00 0.  1.
<mgrwt>
<rscale>  0 0.90583828E+02</rscale>
<asrwt>0</asrwt>
<pdfrwt beam="1">  1        1 0.18440589E-01 0.90583828E+02</pdfrwt>
<pdfrwt beam="2">  1       -1 0.26329331E-02 0.90583828E+02</pdfrwt>
<totfact> 0.10963912E+05</totfact>
</mgrwt>
</event>
<event>
 5    1  0.1247456E+001  0.7792428E+02  0.7546771E-02  0.1335047E+00
          1   -1    0    0  501    0  0.00000000000E+00  0.00000000000E+00  0.45394850592E+02  0.45394850592E+02  0.00000000000E+00 0. -1.
         -1   -1    0    0    0  501 -0.00000000000E+00 -0.00000000000E+00 -0.33440981911E+02  0.33440981911E+02  0.00000000000E+00 0.  1.
         23    2    1    2    0    0  0.00000000000E+00  0.00000000000E+00  0.11953868681E+02  0.78835832504E+02  0.77924280620E+02 0.  0.
        -13    1    3    3    0    0  0.82349463206E+01 -0.15330347953E+02 -0.29290780633E+02  0.34070276479E+02  0.00000000000E+00 0.  1.
         13    1    3    3    0    0 -0.82349463206E+01  0.15330347953E+02  0.41244649313E+02  0.44765556025E+02  0.00000000000E+00 0. -1.
<mgrwt>
<rscale>  0 0.77924281E+02</rscale>
<asrwt>0</asrwt>
<pdfrwt beam="1">  1        1 0.69838232E-02 0.77924281E+02</pdfrwt>
<pdfrwt beam="2">  1       -1 0.51447664E-02 0.77924281E+02</pdfrwt>
<totfact> 0.14280133E+05</totfact>
</mgrwt>
</event>
<event>
 5    1  0.1247456E+001  0.9495412E+02  0.7546771E-02  0.1291279E+00
          1   -1    0    0  501    0  0.00000000000E+00  0.00000000000E+00  0.12638026269E+03  0.12638026269E+03  0.00000000000E+00 0. -1.
         -1   -1    0    0    0  501 -0.00000000000E+00 -0.00000000000E+00 -0.17835628681E+02  0.17835628681E+02  0.00000000000E+00 0.  1.
         23    2    1    2    0    0  0.00000000000E+00  0.00000000000E+00  0.10854463401E+03  0.14421589137E+03  0.94954124457E+02 0.  0.
        -11    1    3    3    0    0 -0.51951187848E+01 -0.46572104567E+02  0.42693431051E+02  0.63393053546E+02  0.00000000000E+00 0.  1.
         11    1    3    3    0    0  0.51951187848E+01  0.46572104567E+02  0.65851202955E+02  0.80822837822E+02  0.00000000000E+00 0. -1.
<mgrwt>
<rscale>  0 0.94954124E+02</rscale>
<asrwt>0</asrwt>
<pdfrwt beam="1">  1        1 0.19443117E-01 0.94954124E+02</pdfrwt>
<pdfrwt beam="2">  1       -1 0.27439430E-02 0.94954124E+02</pdfrwt>
<totfact> 0.97366258E+04</totfact>
</mgrwt>
</event>
<event>
 5    1  0.1247456E+001  0.9238334E+02  0.7546771E-02  0.1297181E+00
          3   -1    0    0  501    0  0.00000000000E+00  0.00000000000E+00  0.45860218887E+02  0.45860218887E+02  0.00000000000E+00 0. -1.
         -3   -1    0    0    0  501 -0.00000000000E+00 -0.00000000000E+00 -0.46525512072E+02  0.46525512072E+02  0.00000000000E+00 0.  1.
         23    2    1    2    0    0  0.00000000000E+00  0.00000000000E+00 -0.66529318538E+00  0.92385730958E+02  0.92383335454E+02 0.  0.
        -13    1    3    3    0    0 -0.81942110143E+01  0.29854941408E+02 -0.34614835758E+02  0.46439740257E+02  0.00000000000E+00 0.  1.
         13    1    3    3    0    0  0.81942110143E+01 -0.29854941408E+02  0.33949542572E+02  0.45945990701E+02  0.00000000000E+00 0. -1.
<mgrwt>
<rscale>  0 0.92383335E+02</rscale>
<asrwt>0</asrwt>
<pdfrwt beam="1">  1        3 0.70554182E-02 0.92383335E+02</pdfrwt>
<pdfrwt beam="2">  1       -3 0.71577711E-02 0.92383335E+02</pdfrwt>
<totfact> 0.34002801E+04</totfact>
</mgrwt>
</event>
<event>
 5    1  0.1247456E+001  0.9095980E+02  0.7546771E-02  0.1300544E+00
         -1   -1    0    0    0  501 -0.00000000000E+00  0.00000000000E+00  0.11073450075E+02  0.11073450075E+02  0.00000000000E+00 0.  1.
          1   -1    0    0  501    0  0.00000000000E+00 -0.00000000000E+00 -0.18679104113E+03  0.18679104113E+03  0.00000000000E+00 0. -1.
         23    2    1    2    0    0  0.00000000000E+00  0.00000000000E+00 -0.17571759106E+03  0.19786449121E+03  0.90959799219E+02 0.  0.
        -13    1    3    3    0    0 -0.75089537601E+01  0.33751370208E+02 -0.15212699182E+03  0.15600692618E+03  0.00000000000E+00 0. -1.
         13    1    3    3    0    0  0.75089537601E+01 -0.33751370208E+02 -0.23590599242E+02  0.41857565028E+02  0.00000000000E+00 0.  1.
<mgrwt>
<rscale>  0 0.90959799E+02</rscale>
<asrwt>0</asrwt>
<pdfrwt beam="2">  1        1 0.28737082E-01 0.90959799E+02</pdfrwt>
<pdfrwt beam="1">  1       -1 0.17036078E-02 0.90959799E+02</pdfrwt>
<totfact> 0.11760367E+05</totfact>
</mgrwt>
</event>
<event>
 5    1  0.1247456E+001  0.9096446E+02  0.7546771E-02  0.1300533E+00
         -3   -1    0    0    0  501 -0.00000000000E+00  0.00000000000E+00  0.71185995880E+01  0.71185995880E+01  0.00000000000E+00 0.  1.
          3   -1    0    0  501    0  0.00000000000E+00 -0.00000000000E+00 -0.29059550631E+03  0.29059550631E+03  0.00000000000E+00 0. -1.
         23    2    1    2    0    0  0.00000000000E+00  0.00000000000E+00 -0.28347690672E+03  0.29771410590E+03  0.90964455729E+02 0.  0.
        -11    1    3    3    0    0  0.10836681962E+02  0.36854379859E+02 -0.62042143895E+02  0.72971957695E+02  0.00000000000E+00 0.  1.
         11    1    3    3    0    0 -0.10836681962E+02 -0.36854379859E+02 -0.22143476283E+03  0.22474214820E+03  0.00000000000E+00 0. -1.
<mgrwt>
<rscale>  0 0.90964456E+02</rscale>
<asrwt>0</asrwt>
<pdfrwt beam="2">  1        3 0.44707013E-01 0.90964456E+02</pdfrwt>
<pdfrwt beam="1">  1       -3 0.10951689E-02 0.90964456E+02</pdfrwt>
<totfact> 0.24271445E+04</totfact>
</mgrwt>
</event>
<event>
 5    1  0.1247456E+001  0.8968697E+02  0.7546771E-02  0.1303612E+00
         -1   -1    0    0    0  501 -0.00000000000E+00  0.00000000000E+00  0.28787223975E+02  0.28787223975E+02  0.00000000000E+00 0.  1.
          1   -1    0    0  501    0  0.00000000000E+00 -0.00000000000E+00 -0.69855223014E+02  0.69855223014E+02  0.00000000000E+00 0. -1.
         23    2    1    2    0    0  0.00000000000E+00  0.00000000000E+00 -0.41067999040E+02  0.98642446989E+02  0.89686965624E+02 0.  0.
        -11    1    3    3    0    0  0.28309527335E+02 -0.36970144409E+01  0.17499927688E+02  0.33486485674E+02  0.00000000000E+00 0.  1.
         11    1    3    3    0    0 -0.28309527335E+02  0.36970144409E+01 -0.58567926727E+02  0.65155961315E+02  0.00000000000E+00 0. -1.
<mgrwt>
<rscale>  0 0.89686966E+02</rscale>
<asrwt>0</asrwt>
<pdfrwt beam="2">  1        1 0.10746957E-01 0.89686966E+02</pdfrwt>
<pdfrwt beam="1">  1       -1 0.44288037E-02 0.89686966E+02</pdfrwt>
<totfact> 0.10321164E+05</totfact>
</mgrwt>
</event>
<event>
 5    1  0.1247456E+001  0.9011503E+02  0.7546771E-02  0.1302573E+00
         -2   -1    0    0    0  501 -0.00000000000E+00  0.00000000000E+00  0.93644522322E+02  0.93644522322E+02  0.00000000000E+00 0.  1.
          2   -1    0    0  501    0  0.00000000000E+00 -0.00000000000E+00 -0.21679640352E+02  0.21679640352E+02  0.00000000000E+00 0. -1.
         23    2    1    2    0    0  0.00000000000E+00  0.00000000000E+00  0.71964881970E+02  0.11532416267E+03  0.90115027934E+02 0.  0.
        -11    1    3    3    0    0  0.14607366929E+02  0.24869312783E+02  0.80283060168E+02  0.85306668185E+02  0.00000000000E+00 0.  1.
         11    1    3    3    0    0 -0.14607366929E+02 -0.24869312783E+02 -0.83181781978E+01  0.30017494489E+02  0.00000000000E+00 0. -1.
<mgrwt>
<rscale>  0 0.90115028E+02</rscale>
<asrwt>0</asrwt>
<pdfrwt beam="2">  1        2 0.33353293E-02 0.90115028E+02</pdfrwt>
<pdfrwt beam="1">  1       -2 0.14406849E-01 0.90115028E+02</pdfrwt>
<totfact> 0.83761946E+04</totfact>
</mgrwt>
</event>
<event>
 5    1  0.1247456E+001  0.9094880E+02  0.7546771E-02  0.1300570E+00
         -2   -1    0    0    0  501 -0.00000000000E+00  0.00000000000E+00  0.20463180006E+02  0.20463180006E+02  0.00000000000E+00 0. -1.
          2   -1    0    0  501    0  0.00000000000E+00 -0.00000000000E+00 -0.10105570133E+03  0.10105570133E+03  0.00000000000E+00 0.  1.
         23    2    1    2    0    0  0.00000000000E+00  0.00000000000E+00 -0.80592521321E+02  0.12151888133E+03  0.90948798936E+02 0.  0.
        -11    1    3    3    0    0 -0.57645405623E+01 -0.44476879567E+02 -0.50339281010E+02  0.67420070873E+02  0.00000000000E+00 0. -1.
         11    1    3    3    0    0  0.57645405623E+01  0.44476879567E+02 -0.30253240311E+02  0.54098810461E+02  0.00000000000E+00 0.  1.
<mgrwt>
<rscale>  0 0.90948799E+02</rscale>
<asrwt>0</asrwt>
<pdfrwt beam="2">  1        2 0.15547031E-01 0.90948799E+02</pdfrwt>
<pdfrwt beam="1">  1       -2 0.31481816E-02 0.90948799E+02</pdfrwt>
<totfact> 0.12392079E+05</totfact>
</mgrwt>
</event>
<event>
 5    1  0.1247456E+001  0.9124333E+02  0.7546771E-02  0.1299868E+00
         -3   -1    0    0    0  501 -0.00000000000E+00  0.00000000000E+00  0.19525333358E+03  0.19525333358E+03  0.00000000000E+00 0.  1.
          3   -1    0    0  501    0  0.00000000000E+00 -0.00000000000E+00 -0.10659671745E+02  0.10659671745E+02  0.00000000000E+00 0. -1.
         23    2    1    2    0    0  0.00000000000E+00  0.00000000000E+00  0.18459366184E+03  0.20591300533E+03  0.91243332755E+02 0.  0.
        -13    1    3    3    0    0 -0.28994383157E+02 -0.30882901145E+02  0.54071220930E+02  0.68688607284E+02  0.00000000000E+00 0. -1.
         13    1    3    3    0    0  0.28994383157E+02  0.30882901145E+02  0.13052244091E+03  0.13722439804E+03  0.00000000000E+00 0.  1.
<mgrwt>
<rscale>  0 0.91243333E+02</rscale>
<asrwt>0</asrwt>
<pdfrwt beam="2">  1        3 0.16399497E-02 0.91243333E+02</pdfrwt>
<pdfrwt beam="1">  1       -3 0.30038972E-01 0.91243333E+02</pdfrwt>
<totfact> 0.28138666E+04</totfact>
</mgrwt>
</event>
<event>
 5    1  0.1247456E+001  0.9414407E+02  0.7546771E-02  0.1293116E+00
         -2   -1    0    0    0  501 -0.00000000000E+00  0.00000000000E+00  0.71594420133E+02  0.71594420133E+02  0.00000000000E+00 0. -1.
          2   -1    0    0  501    0  0.00000000000E+00 -0.00000000000E+00 -0.30949010066E+02  0.30949010066E+02  0.00000000000E+00 0.  1.
         23    2    1    2    0    0  0.00000000000E+00  0.00000000000E+00  0.40645410067E+02  0.10254343020E+03  0.94144068946E+02 0.  0.
        -11    1    3    3    0    0  0.37947532134E+02  0.21595258643E+02  0.39481988762E+02  0.58865930958E+02  0.00000000000E+00 0. -1.
         11    1    3    3    0    0 -0.37947532134E+02 -0.21595258643E+02  0.11634213050E+01  0.43677499242E+02  0.00000000000E+00 0.  1.
<mgrwt>
<rscale>  0 0.94144069E+02</rscale>
<asrwt>0</asrwt>
<pdfrwt beam="2">  1        2 0.47613862E-02 0.94144069E+02</pdfrwt>
<pdfrwt beam="1">  1       -2 0.11014526E-01 0.94144069E+02</pdfrwt>
<totfact> 0.81099520E+04</totfact>
</mgrwt>
</event>
<event>
 5    1  0.1247456E+001  0.8850716E+02  0.7546771E-02  0.1306508E+00
         -1   -1    0    0    0  501 -0.00000000000E+00  0.00000000000E+00  0.30073313873E+02  0.30073313873E+02  0.00000000000E+00 0.  1.
          1   -1    0    0  501    0  0.00000000000E+00 -0.00000000000E+00 -0.65120177054E+02  0.65120177054E+02  0.00000000000E+00 0. -1.
         23    2    1    2    0    0  0.00000000000E+00  0.00000000000E+00 -0.35046863181E+02  0.95193490927E+02  0.88507164095E+02 0.  0.
        -11    1    3    3    0    0  0.30216810751E+02 -0.34668132703E+01  0.17050049530E+02  0.34868017368E+02  0.00000000000E+00 0.  1.
         11    1    3    3    0    0 -0.30216810751E+02  0.34668132703E+01 -0.52096912710E+02  0.60325473559E+02  0.00000000000E+00 0. -1.
<mgrwt>
<rscale>  0 0.88507164E+02</rscale>
<asrwt>0</asrwt>
<pdfrwt beam="2">  1        1 0.10018489E-01 0.88507164E+02</pdfrwt>
<pdfrwt beam="1">  1       -1 0.46266637E-02 0.88507164E+02</pdfrwt>
<totfact> 0.10590924E+05</totfact>
</mgrwt>
</event>
<event>
 5    1  0.1247456E+001  0.9147426E+02  0.7546771E-02  0.1299320E+00
         -1   -1    0    0    0  501 -0.00000000000E+00  0.00000000000E+00  0.82564988929E+01  0.82564988929E+01  0.00000000000E+00 0.  1.
          1   -1    0    0  501    0  0.00000000000E+00 -0.00000000000E+00 -0.25336224955E+03  0.25336224955E+03  0.00000000000E+00 0. -1.
         23    2    1    2    0    0  0.00000000000E+00  0.00000000000E+00 -0.24510575065E+03  0.26161874844E+03  0.91474261580E+02 0.  0.
        -11    1    3    3    0    0  0.43669919269E+02  0.11755849979E+02 -0.10302426496E+03  0.11251338155E+03  0.00000000000E+00 0.  1.
         11    1    3    3    0    0 -0.43669919269E+02 -0.11755849979E+02 -0.14208148569E+03  0.14910536689E+03  0.00000000000E+00 0. -1.
<mgrwt>
<rscale>  0 0.91474262E+02</rscale>
<asrwt>0</asrwt>
<pdfrwt beam="2">  1        1 0.38978805E-01 0.91474262E+02</pdfrwt>
<pdfrwt beam="1">  1       -1 0.12702307E-02 0.91474262E+02</pdfrwt>
<totfact> 0.12291716E+05</totfact>
</mgrwt>
</event>
<event>
 5    1  0.1247456E+001  0.9203292E+02  0.7546771E-02  0.1298002E+00
          3   -1    0    0  501    0  0.00000000000E+00  0.00000000000E+00  0.81062131331E+02  0.81062131331E+02  0.00000000000E+00 0. -1.
         -3   -1    0    0    0  501 -0.00000000000E+00 -0.00000000000E+00 -0.26122116809E+02  0.26122116809E+02  0.00000000000E+00 0.  1.
         23    2    1    2    0    0  0.00000000000E+00  0.00000000000E+00  0.54940014522E+02  0.10718424814E+03  0.92032917229E+02 0.  0.
        -11    1    3    3    0    0 -0.37580500806E+02  0.24057744714E+02  0.14373991322E+02  0.46879427771E+02  0.00000000000E+00 0.  1.
         11    1    3    3    0    0  0.37580500806E+02 -0.24057744714E+02  0.40566023200E+02  0.60304820370E+02  0.00000000000E+00 0. -1.
<mgrwt>
<rscale>  0 0.92032917E+02</rscale>
<asrwt>0</asrwt>
<pdfrwt beam="1">  1        3 0.12471097E-01 0.92032917E+02</pdfrwt>
<pdfrwt beam="2">  1       -3 0.40187872E-02 0.92032917E+02</pdfrwt>
<totfact> 0.33287749E+04</totfact>
</mgrwt>
</event>
<event>
 5    1  0.1247456E+001  0.9142022E+02  0.7546771E-02  0.1299448E+00
          2   -1    0    0  501    0  0.00000000000E+00  0.00000000000E+00  0.37698414452E+03  0.37698414452E+03  0.00000000000E+00 0.  1.
         -2   -1    0    0    0  501 -0.00000000000E+00 -0.00000000000E+00 -0.55424462026E+01  0.55424462026E+01  0.00000000000E+00 0. -1.
         23    2    1    2    0    0  0.00000000000E+00  0.00000000000E+00  0.37144169832E+03  0.38252659072E+03  0.91420224026E+02 0.  0.
        -13    1    3    3    0    0 -0.35013195948E+01  0.43768282033E+02  0.23889439812E+03  0.24289597610E+03  0.00000000000E+00 0. -1.
         13    1    3    3    0    0  0.35013195948E+01 -0.43768282033E+02  0.13254730020E+03  0.13963061463E+03  0.00000000000E+00 0.  1.
<mgrwt>
<rscale>  0 0.91420224E+02</rscale>
<asrwt>0</asrwt>
<pdfrwt beam="1">  1        2 0.57997541E-01 0.91420224E+02</pdfrwt>
<pdfrwt beam="2">  1       -2 0.85268433E-03 0.91420224E+02</pdfrwt>
<totfact> 0.19402700E+05</totfact>
</mgrwt>
</event>
<event>
 5    1  0.1247456E+001  0.9112363E+02  0.7546771E-02  0.1300153E+00
         -1   -1    0    0    0  501 -0.00000000000E+00  0.00000000000E+00  0.62486814067E+02  0.62486814067E+02  0.00000000000E+00 0.  1.
          1   -1    0    0  501    0  0.00000000000E+00 -0.00000000000E+00 -0.33221074799E+02  0.33221074799E+02  0.00000000000E+00 0. -1.
         23    2    1    2    0    0  0.00000000000E+00  0.00000000000E+00  0.29265739268E+02  0.95707888866E+02  0.91123633028E+02 0.  0.
        -13    1    3    3    0    0 -0.36981020902E+02  0.14091010726E+02 -0.90800687885E+01  0.40602957274E+02  0.00000000000E+00 0. -1.
         13    1    3    3    0    0  0.36981020902E+02 -0.14091010726E+02  0.38345808057E+02  0.55104931592E+02  0.00000000000E+00 0.  1.
<mgrwt>
<rscale>  0 0.91123633E+02</rscale>
<asrwt>0</asrwt>
<pdfrwt beam="2">  1        1 0.51109346E-02 0.91123633E+02</pdfrwt>
<pdfrwt beam="1">  1       -1 0.96133560E-02 0.91123633E+02</pdfrwt>
<totfact> 0.88249865E+04</totfact>
</mgrwt>
</event>
<event>
 5    1  0.1247456E+001  0.1189437E+03  0.7546771E-02  0.1244850E+00
         -1   -1    0    0    0  501 -0.00000000000E+00  0.00000000000E+00  0.65780293353E+02  0.65780293353E+02  0.00000000000E+00 0.  1.
          1   -1    0    0  501    0  0.00000000000E+00 -0.00000000000E+00 -0.53768423935E+02  0.53768423935E+02  0.00000000000E+00 0. -1.
         23    2    1    2    0    0  0.00000000000E+00  0.00000000000E+00  0.12011869418E+02  0.11954871729E+03  0.11894372955E+03 0.  0.
        -11    1    3    3    0    0  0.60044364038E+01  0.58299333287E+02 -0.41467896496E+01  0.58754245656E+02  0.00000000000E+00 0. -1.
         11    1    3    3    0    0 -0.60044364038E+01 -0.58299333287E+02  0.16158659067E+02  0.60794471632E+02  0.00000000000E+00 0.  1.
<mgrwt>
<rscale>  0 0.11894373E+03</rscale>
<asrwt>0</asrwt>
<pdfrwt beam="2">  1        1 0.82720652E-02 0.11894373E+03</pdfrwt>
<pdfrwt beam="1">  1       -1 0.10120045E-01 0.11894373E+03</pdfrwt>
<totfact> 0.44438143E+04</totfact>
</mgrwt>
</event>
<event>
 5    1  0.1247456E+001  0.1020892E+03  0.7546771E-02  0.1275963E+00
          1   -1    0    0  501    0  0.00000000000E+00  0.00000000000E+00  0.16551062463E+03  0.16551062463E+03  0.00000000000E+00 0. -1.
         -1   -1    0    0    0  501 -0.00000000000E+00 -0.00000000000E+00 -0.15742486299E+02  0.15742486299E+02  0.00000000000E+00 0.  1.
         23    2    1    2    0    0  0.00000000000E+00  0.00000000000E+00  0.14976813834E+03  0.18125311093E+03  0.10208915203E+03 0.  0.
        -13    1    3    3    0    0  0.11274460864E+02 -0.49225710156E+02  0.61685407130E+02  0.79720596215E+02  0.00000000000E+00 0.  1.
         13    1    3    3    0    0 -0.11274460864E+02  0.49225710156E+02  0.88082731206E+02  0.10153251472E+03  0.00000000000E+00 0. -1.
<mgrwt>
<rscale>  0 0.10208915E+03</rscale>
<asrwt>0</asrwt>
<pdfrwt beam="1">  1        1 0.25463172E-01 0.10208915E+03</pdfrwt>
<pdfrwt beam="2">  1       -1 0.24219211E-02 0.10208915E+03</pdfrwt>
<totfact> 0.84055160E+04</totfact>
</mgrwt>
</event>
<event>
 5    1  0.1247456E+001  0.9693461E+02  0.7546771E-02  0.1286877E+00
         -2   -1    0    0    0  501 -0.00000000000E+00  0.00000000000E+00  0.23114817942E+03  0.23114817942E+03  0.00000000000E+00 0.  1.
          2   -1    0    0  501    0  0.00000000000E+00 -0.00000000000E+00 -0.10162657830E+02  0.10162657830E+02  0.00000000000E+00 0. -1.
         23    2    1    2    0    0  0.00000000000E+00  0.00000000000E+00  0.22098552159E+03  0.24131083724E+03  0.96934614156E+02 0.  0.
        -11    1    3    3    0    0  0.26088385913E+02 -0.40325930111E+02  0.12668266142E+03  0.13548166379E+03  0.00000000000E+00 0.  1.
         11    1    3    3    0    0 -0.26088385913E+02  0.40325930111E+02  0.94302860167E+02  0.10582917346E+03  0.00000000000E+00 0. -1.
<mgrwt>
<rscale>  0 0.96934614E+02</rscale>
<asrwt>0</asrwt>
<pdfrwt beam="2">  1        2 0.15634860E-02 0.96934614E+02</pdfrwt>
<pdfrwt beam="1">  1       -2 0.35561254E-01 0.96934614E+02</pdfrwt>
<totfact> 0.49873036E+04</totfact>
</mgrwt>
</event>
<event>
 5    1  0.1247456E+001  0.9205733E+02  0.7546771E-02  0.1297945E+00
          1   -1    0    0  501    0  0.00000000000E+00  0.00000000000E+00  0.32359963676E+03  0.32359963676E+03  0.00000000000E+00 0. -1.
         -1   -1    0    0    0  501 -0.00000000000E+00 -0.00000000000E+00 -0.65470960856E+01  0.65470960856E+01  0.00000000000E+00 0.  1.
         23    2    1    2    0    0  0.00000000000E+00  0.00000000000E+00  0.31705254068E+03  0.33014673285E+03  0.92057328120E+02 0.  0.
        -13    1    3    3    0    0 -0.24586775441E+02 -0.36537561397E+02  0.11052653343E+03  0.11897738235E+03  0.00000000000E+00 0.  1.
         13    1    3    3    0    0  0.24586775441E+02  0.36537561397E+02  0.20652600725E+03  0.21116935049E+03  0.00000000000E+00 0. -1.
<mgrwt>
<rscale>  0 0.92057328E+02</rscale>
<asrwt>0</asrwt>
<pdfrwt beam="1">  1        1 0.49784547E-01 0.92057328E+02</pdfrwt>
<pdfrwt beam="2">  1       -1 0.10072458E-02 0.92057328E+02</pdfrwt>
<totfact> 0.12667545E+05</totfact>
</mgrwt>
</event>
<event>
 5    1  0.1247456E+001  0.9644190E+02  0.7546771E-02  0.1287961E+00
         -3   -1    0    0    0  501 -0.00000000000E+00  0.00000000000E+00  0.25563895267E+03  0.25563895267E+03  0.00000000000E+00 0.  1.
          3   -1    0    0  501    0  0.00000000000E+00 -0.00000000000E+00 -0.90958755477E+01  0.90958755477E+01  0.00000000000E+00 0. -1.
         23    2    1    2    0    0  0.00000000000E+00  0.00000000000E+00  0.24654307712E+03  0.26473482822E+03  0.96441901654E+02 0.  0.
        -11    1    3    3    0    0  0.23629981586E+02 -0.29497005420E+02  0.20547606190E+03  0.20892309918E+03  0.00000000000E+00 0.  1.
         11    1    3    3    0    0 -0.23629981586E+02  0.29497005420E+02  0.41067015222E+02  0.55811729034E+02  0.00000000000E+00 0. -1.
<mgrwt>
<rscale>  0 0.96441902E+02</rscale>
<asrwt>0</asrwt>
<pdfrwt beam="2">  1        3 0.13993657E-02 0.96441902E+02</pdfrwt>
<pdfrwt beam="1">  1       -3 0.39329064E-01 0.96441902E+02</pdfrwt>
<totfact> 0.21877137E+04</totfact>
</mgrwt>
</event>
<event>
 5    1  0.1247456E+001  0.9155040E+02  0.7546771E-02  0.1299140E+00
          2   -1    0    0  501    0  0.00000000000E+00  0.00000000000E+00  0.18464543693E+03  0.18464543693E+03  0.00000000000E+00 0. -1.
         -2   -1    0    0    0  501 -0.00000000000E+00 -0.00000000000E+00 -0.11348068026E+02  0.11348068026E+02  0.00000000000E+00 0.  1.
         23    2    1    2    0    0  0.00000000000E+00  0.00000000000E+00  0.17329736890E+03  0.19599350496E+03  0.91550400960E+02 0.  0.
        -11    1    3    3    0    0 -0.35210306240E+02  0.20435853962E+02  0.13145179481E+03  0.13761164250E+03  0.00000000000E+00 0. -1.
         11    1    3    3    0    0  0.35210306240E+02 -0.20435853962E+02  0.41845574097E+02  0.58381862459E+02  0.00000000000E+00 0.  1.
<mgrwt>
<rscale>  0 0.91550401E+02</rscale>
<asrwt>0</asrwt>
<pdfrwt beam="1">  1        2 0.28406988E-01 0.91550401E+02</pdfrwt>
<pdfrwt beam="2">  1       -2 0.17458568E-02 0.91550401E+02</pdfrwt>
<totfact> 0.14865294E+05</totfact>
</mgrwt>
</event>
<event>
 5    1  0.1247456E+001  0.9338468E+02  0.7546771E-02  0.1294856E+00
         -1   -1    0    0    0  501 -0.00000000000E+00  0.00000000000E+00  0.82235686942E+01  0.82235686942E+01  0.00000000000E+00 0.  1.
          1   -1    0    0  501    0  0.00000000000E+00 -0.00000000000E+00 -0.26511296423E+03  0.26511296423E+03  0.00000000000E+00 0. -1.
         23    2    1    2    0    0  0.00000000000E+00  0.00000000000E+00 -0.25688939553E+03  0.27333653292E+03  0.93384681250E+02 0.  0.
        -13    1    3    3    0    0 -0.25541728422E+02  0.26775156611E+02 -0.45095412425E+02  0.58334253438E+02  0.00000000000E+00 0.  1.
         13    1    3    3    0    0  0.25541728422E+02 -0.26775156611E+02 -0.21179398311E+03  0.21500227948E+03  0.00000000000E+00 0. -1.
<mgrwt>
<rscale>  0 0.93384681E+02</rscale>
<asrwt>0</asrwt>
<pdfrwt beam="2">  1        1 0.40786612E-01 0.93384681E+02</pdfrwt>
<pdfrwt beam="1">  1       -1 0.12651644E-02 0.93384681E+02</pdfrwt>
<totfact> 0.11734203E+05</totfact>
</mgrwt>
</event>
<event>
 5    1  0.1247456E+001  0.9038372E+02  0.7546771E-02  0.1301925E+00
         -2   -1    0    0    0  501 -0.00000000000E+00  0.00000000000E+00  0.11447403749E+03  0.11447403749E+03  0.00000000000E+00 0.  1.
          2   -1    0    0  501    0  0.00000000000E+00 -0.00000000000E+00 -0.17840762345E+02  0.17840762345E+02  0.00000000000E+00 0. -1.
         23    2    1    2    0    0  0.00000000000E+00  0.00000000000E+00  0.96633275150E+02  0.13231479984E+03  0.90383717508E+02 0.  0.
        -11    1    3    3    0    0  0.30841292665E+02  0.11508529703E+02  0.93643260273E+02  0.99260726291E+02  0.00000000000E+00 0.  1.
         11    1    3    3    0    0 -0.30841292665E+02 -0.11508529703E+02  0.29900148762E+01  0.33054073549E+02  0.00000000000E+00 0. -1.
<mgrwt>
<rscale>  0 0.90383718E+02</rscale>
<asrwt>0</asrwt>
<pdfrwt beam="2">  1        2 0.27447327E-02 0.90383718E+02</pdfrwt>
<pdfrwt beam="1">  1       -2 0.17611390E-01 0.90383718E+02</pdfrwt>
<totfact> 0.78254747E+04</totfact>
</mgrwt>
</event>
<event>
 5    1  0.1247456E+001  0.8388561E+02  0.7546771E-02  0.1318373E+00
         -2   -1    0    0    0  501 -0.00000000000E+00  0.00000000000E+00  0.21481926880E+03  0.21481926880E+03  0.00000000000E+00 0.  1.
          2   -1    0    0  501    0  0.00000000000E+00 -0.00000000000E+00 -0.81892036076E+01  0.81892036076E+01  0.00000000000E+00 0. -1.
         23    2    1    2    0    0  0.00000000000E+00  0.00000000000E+00  0.20663006519E+03  0.22300847241E+03  0.83885606179E+02 0.  0.
        -11    1    3    3    0    0 -0.40575027505E+02  0.33434610603E+01  0.13012318826E+03  0.13634352097E+03  0.00000000000E+00 0.  1.
         11    1    3    3    0    0  0.40575027505E+02 -0.33434610603E+01  0.76506876934E+02  0.86664951434E+02  0.00000000000E+00 0. -1.
<mgrwt>
<rscale>  0 0.83885606E+02</rscale>
<asrwt>0</asrwt>
<pdfrwt beam="2">  1        2 0.12598776E-02 0.83885606E+02</pdfrwt>
<pdfrwt beam="1">  1       -2 0.33049114E-01 0.83885606E+02</pdfrwt>
<totfact> 0.74692786E+04</totfact>
</mgrwt>
</event>
<event>
 5    1  0.1247456E+001  0.9278151E+02  0.7546771E-02  0.1296252E+00
         -2   -1    0    0    0  501 -0.00000000000E+00  0.00000000000E+00  0.55810929447E+02  0.55810929447E+02  0.00000000000E+00 0.  1.
          2   -1    0    0  501    0  0.00000000000E+00 -0.00000000000E+00 -0.38560589557E+02  0.38560589557E+02  0.00000000000E+00 0. -1.
         23    2    1    2    0    0  0.00000000000E+00  0.00000000000E+00  0.17250339891E+02  0.94371519004E+02  0.92781514176E+02 0.  0.
        -13    1    3    3    0    0  0.11192745361E+02 -0.12977718806E+02  0.52473141747E+02  0.55200809223E+02  0.00000000000E+00 0.  1.
         13    1    3    3    0    0 -0.11192745361E+02  0.12977718806E+02 -0.35222801856E+02  0.39170709781E+02  0.00000000000E+00 0. -1.
<mgrwt>
<rscale>  0 0.92781514E+02</rscale>
<asrwt>0</asrwt>
<pdfrwt beam="2">  1        2 0.59323984E-02 0.92781514E+02</pdfrwt>
<pdfrwt beam="1">  1       -2 0.85862969E-02 0.92781514E+02</pdfrwt>
<totfact> 0.89805329E+04</totfact>
</mgrwt>
</event>
<event>
 5    1  0.1247456E+001  0.9090362E+02  0.7546771E-02  0.1300678E+00
          4   -1    0    0  501    0  0.00000000000E+00  0.00000000000E+00  0.37796180103E+03  0.37796180103E+03  0.00000000000E+00 0. -1.
         -4   -1    0    0    0  501 -0.00000000000E+00 -0.00000000000E+00 -0.54658089780E+01  0.54658089780E+01  0.00000000000E+00 0.  1.
         23    2    1    2    0    0  0.00000000000E+00  0.00000000000E+00  0.37249599205E+03  0.38342761001E+03  0.90903619409E+02 0.  0.
        -11    1    3    3    0    0  0.40613601931E+02 -0.18578881611E+02  0.22184603408E+03  0.22629693401E+03  0.00000000000E+00 0. -1.
         11    1    3    3    0    0 -0.40613601931E+02  0.18578881611E+02  0.15064995797E+03  0.15713067600E+03  0.00000000000E+00 0.  1.
<mgrwt>
<rscale>  0 0.90903619E+02</rscale>
<asrwt>0</asrwt>
<pdfrwt beam="1">  1        4 0.58147949E-01 0.90903619E+02</pdfrwt>
<pdfrwt beam="2">  1       -4 0.84089398E-03 0.90903619E+02</pdfrwt>
<totfact> 0.15669640E+04</totfact>
</mgrwt>
</event>
<event>
 5    1  0.1247456E+001  0.8912937E+02  0.7546771E-02  0.1304974E+00
          3   -1    0    0  501    0  0.00000000000E+00  0.00000000000E+00  0.16302882648E+03  0.16302882648E+03  0.00000000000E+00 0. -1.
         -3   -1    0    0    0  501 -0.00000000000E+00 -0.00000000000E+00 -0.12181962684E+02  0.12181962684E+02  0.00000000000E+00 0.  1.
         23    2    1    2    0    0  0.00000000000E+00  0.00000000000E+00  0.15084686380E+03  0.17521078916E+03  0.89129368461E+02 0.  0.
        -11    1    3    3    0    0 -0.42093065416E+02  0.10502745903E+02  0.55387929158E+02  0.70355927426E+02  0.00000000000E+00 0.  1.
         11    1    3    3    0    0  0.42093065416E+02 -0.10502745903E+02  0.95458934639E+02  0.10485486174E+03  0.00000000000E+00 0. -1.
<mgrwt>
<rscale>  0 0.89129368E+02</rscale>
<asrwt>0</asrwt>
<pdfrwt beam="1">  1        3 0.25081356E-01 0.89129368E+02</pdfrwt>
<pdfrwt beam="2">  1       -3 0.18741482E-02 0.89129368E+02</pdfrwt>
<totfact> 0.31715225E+04</totfact>
</mgrwt>
</event>
<event>
 5    1  0.1247456E+001  0.8950012E+02  0.7546771E-02  0.1304067E+00
          2   -1    0    0  501    0  0.00000000000E+00  0.00000000000E+00  0.24466743716E+02  0.24466743716E+02  0.00000000000E+00 0.  1.
         -2   -1    0    0    0  501 -0.00000000000E+00 -0.00000000000E+00 -0.81848570907E+02  0.81848570907E+02  0.00000000000E+00 0. -1.
         23    2    1    2    0    0  0.00000000000E+00  0.00000000000E+00 -0.57381827191E+02  0.10631531462E+03  0.89500123081E+02 0.  0.
        -11    1    3    3    0    0  0.11691031046E+02  0.85731247932E+01  0.21599866395E+02  0.26014090488E+02  0.00000000000E+00 0.  1.
         11    1    3    3    0    0 -0.11691031046E+02 -0.85731247932E+01 -0.78981693586E+02  0.80301224134E+02  0.00000000000E+00 0. -1.
<mgrwt>
<rscale>  0 0.89500123E+02</rscale>
<asrwt>0</asrwt>
<pdfrwt beam="1">  1        2 0.37641144E-02 0.89500123E+02</pdfrwt>
<pdfrwt beam="2">  1       -2 0.12592088E-01 0.89500123E+02</pdfrwt>
<totfact> 0.88489909E+04</totfact>
</mgrwt>
</event>
<event>
 5    1  0.1247456E+001  0.1181349E+03  0.7546771E-02  0.1246206E+00
         -1   -1    0    0    0  501 -0.00000000000E+00  0.00000000000E+00  0.74019272835E+02  0.74019272835E+02  0.00000000000E+00 0. -1.
          1   -1    0    0  501    0  0.00000000000E+00 -0.00000000000E+00 -0.47135866223E+02  0.47135866223E+02  0.00000000000E+00 0.  1.
         23    2    1    2    0    0  0.00000000000E+00  0.00000000000E+00  0.26883406612E+02  0.12115513906E+03  0.11813488126E+03 0.  0.
        -13    1    3    3    0    0  0.40988907246E+01  0.21199238248E+02  0.69826898590E+02  0.73089016782E+02  0.00000000000E+00 0. -1.
         13    1    3    3    0    0 -0.40988907246E+01 -0.21199238248E+02 -0.42943491977E+02  0.48066122277E+02  0.00000000000E+00 0.  1.
<mgrwt>
<rscale>  0 0.11813488E+03</rscale>
<asrwt>0</asrwt>
<pdfrwt beam="2">  1        1 0.72516717E-02 0.11813488E+03</pdfrwt>
<pdfrwt beam="1">  1       -1 0.11387580E-01 0.11813488E+03</pdfrwt>
<totfact> 0.44218617E+04</totfact>
</mgrwt>
</event>
<event>
 5    1  0.1247456E+001  0.9102767E+02  0.7546771E-02  0.1300382E+00
          2   -1    0    0  501    0  0.00000000000E+00  0.00000000000E+00  0.24253086308E+03  0.24253086308E+03  0.00000000000E+00 0.  1.
         -2   -1    0    0    0  501 -0.00000000000E+00 -0.00000000000E+00 -0.85412185145E+01  0.85412185145E+01  0.00000000000E+00 0. -1.
         23    2    1    2    0    0  0.00000000000E+00  0.00000000000E+00  0.23398964457E+03  0.25107208159E+03  0.91027668279E+02 0.  0.
        -13    1    3    3    0    0  0.37188698614E+02  0.16046168970E+01  0.18923295080E+03  0.19285923304E+03  0.00000000000E+00 0.  1.
         13    1    3    3    0    0 -0.37188698614E+02 -0.16046168970E+01  0.44756693761E+02  0.58212848551E+02  0.00000000000E+00 0. -1.
<mgrwt>
<rscale>  0 0.91027668E+02</rscale>
<asrwt>0</asrwt>
<pdfrwt beam="1">  1        2 0.37312435E-01 0.91027668E+02</pdfrwt>
<pdfrwt beam="2">  1       -2 0.13140338E-02 0.91027668E+02</pdfrwt>
<totfact> 0.16671892E+05</totfact>
</mgrwt>
</event>
<event>
 5    1  0.1247456E+001  0.8916514E+02  0.7546771E-02  0.1304886E+00
         -3   -1    0    0    0  501 -0.00000000000E+00  0.00000000000E+00  0.49238996930E+02  0.49238996930E+02  0.00000000000E+00 0.  1.
          3   -1    0    0  501    0  0.00000000000E+00 -0.00000000000E+00 -0.40366492295E+02  0.40366492295E+02  0.00000000000E+00 0. -1.
         23    2    1    2    0    0  0.00000000000E+00  0.00000000000E+00  0.88725046352E+01  0.89605489224E+02  0.89165140950E+02 0.  0.
        -13    1    3    3    0    0  0.18848200760E+02  0.29003057276E+02 -0.23830466898E+02  0.42003846917E+02  0.00000000000E+00 0. -1.
         13    1    3    3    0    0 -0.18848200760E+02 -0.29003057276E+02  0.32702971533E+02  0.47601642307E+02  0.00000000000E+00 0.  1.
<mgrwt>
<rscale>  0 0.89165141E+02</rscale>
<asrwt>0</asrwt>
<pdfrwt beam="2">  1        3 0.62102296E-02 0.89165141E+02</pdfrwt>
<pdfrwt beam="1">  1       -3 0.75752303E-02 0.89165141E+02</pdfrwt>
<totfact> 0.37677135E+04</totfact>
</mgrwt>
</event>
<event>
 5    1  0.1247456E+001  0.8557086E+02  0.7546771E-02  0.1313946E+00
         -2   -1    0    0    0  501 -0.00000000000E+00  0.00000000000E+00  0.19234267250E+02  0.19234267250E+02  0.00000000000E+00 0.  1.
          2   -1    0    0  501    0  0.00000000000E+00 -0.00000000000E+00 -0.95173534416E+02  0.95173534416E+02  0.00000000000E+00 0. -1.
         23    2    1    2    0    0  0.00000000000E+00  0.00000000000E+00 -0.75939267166E+02  0.11440780167E+03  0.85570864108E+02 0.  0.
        -11    1    3    3    0    0  0.23062785207E+02 -0.33238615212E+02 -0.19352462374E+02  0.44846576265E+02  0.00000000000E+00 0. -1.
         11    1    3    3    0    0 -0.23062785207E+02  0.33238615212E+02 -0.56586804792E+02  0.69561225401E+02  0.00000000000E+00 0.  1.
<mgrwt>
<rscale>  0 0.85570864E+02</rscale>
<asrwt>0</asrwt>
<pdfrwt beam="2">  1        2 0.14642082E-01 0.85570864E+02</pdfrwt>
<pdfrwt beam="1">  1       -2 0.29591180E-02 0.85570864E+02</pdfrwt>
<totfact> 0.14383667E+05</totfact>
</mgrwt>
</event>
<event>
 5    1  0.1247456E+001  0.9156272E+02  0.7546771E-02  0.1299111E+00
         -3   -1    0    0    0  501 -0.00000000000E+00  0.00000000000E+00  0.83371554975E+02  0.83371554975E+02  0.00000000000E+00 0.  1.
          3   -1    0    0  501    0  0.00000000000E+00 -0.00000000000E+00 -0.25139664397E+02  0.25139664397E+02  0.00000000000E+00 0. -1.
         23    2    1    2    0    0  0.00000000000E+00  0.00000000000E+00  0.58231890578E+02  0.10851121937E+03  0.91562719757E+02 0.  0.
        -11    1    3    3    0    0  0.41676582735E+02 -0.55605220500E+01  0.50581551727E+02  0.65774997751E+02  0.00000000000E+00 0. -1.
         11    1    3    3    0    0 -0.41676582735E+02  0.55605220500E+01  0.76503388501E+01  0.42736221621E+02  0.00000000000E+00 0.  1.
<mgrwt>
<rscale>  0 0.91562720E+02</rscale>
<asrwt>0</asrwt>
<pdfrwt beam="2">  1        3 0.38676407E-02 0.91562720E+02</pdfrwt>
<pdfrwt beam="1">  1       -3 0.12826393E-01 0.91562720E+02</pdfrwt>
<totfact> 0.33663336E+04</totfact>
</mgrwt>
</event>
<event>
 5    1  0.1247456E+001  0.9025069E+02  0.7546771E-02  0.1302246E+00
          2   -1    0    0  501    0  0.00000000000E+00  0.00000000000E+00  0.32336648056E+02  0.32336648056E+02  0.00000000000E+00 0. -1.
         -2   -1    0    0    0  501 -0.00000000000E+00 -0.00000000000E+00 -0.62971799992E+02  0.62971799992E+02  0.00000000000E+00 0.  1.
         23    2    1    2    0    0  0.00000000000E+00  0.00000000000E+00 -0.30635151936E+02  0.95308448048E+02  0.90250693821E+02 0.  0.
        -13    1    3    3    0    0 -0.69715529349E+01  0.42775097776E+02 -0.20439579105E+01  0.43387663039E+02  0.00000000000E+00 0. -1.
         13    1    3    3    0    0  0.69715529349E+01 -0.42775097776E+02 -0.28591194026E+02  0.51920785008E+02  0.00000000000E+00 0.  1.
<mgrwt>
<rscale>  0 0.90250694E+02</rscale>
<asrwt>0</asrwt>
<pdfrwt beam="1">  1        2 0.49748689E-02 0.90250694E+02</pdfrwt>
<pdfrwt beam="2">  1       -2 0.96879692E-02 0.90250694E+02</pdfrwt>
<totfact> 0.92996019E+04</totfact>
</mgrwt>
</event>
<event>
 5    1  0.1247456E+001  0.8866853E+02  0.7546771E-02  0.1306108E+00
         -2   -1    0    0    0  501 -0.00000000000E+00  0.00000000000E+00  0.78683551945E+01  0.78683551945E+01  0.00000000000E+00 0.  1.
          2   -1    0    0  501    0  0.00000000000E+00 -0.00000000000E+00 -0.24980152942E+03  0.24980152942E+03  0.00000000000E+00 0. -1.
         23    2    1    2    0    0  0.00000000000E+00  0.00000000000E+00 -0.24193317422E+03  0.25766988461E+03  0.88668532447E+02 0.  0.
        -11    1    3    3    0    0 -0.32026707652E+02 -0.17732730571E+02 -0.19363769316E+03  0.19706779531E+03  0.00000000000E+00 0. -1.
         11    1    3    3    0    0  0.32026707652E+02  0.17732730571E+02 -0.48295481065E+02  0.60602089302E+02  0.00000000000E+00 0.  1.
<mgrwt>
<rscale>  0 0.88668532E+02</rscale>
<asrwt>0</asrwt>
<pdfrwt beam="2">  1        2 0.38431000E-01 0.88668532E+02</pdfrwt>
<pdfrwt beam="1">  1       -2 0.12105163E-02 0.88668532E+02</pdfrwt>
<totfact> 0.18079842E+05</totfact>
</mgrwt>
</event>
<event>
 5    1  0.1247456E+001  0.9105274E+02  0.7546771E-02  0.1300322E+00
         -3   -1    0    0    0  501 -0.00000000000E+00  0.00000000000E+00  0.97345884723E+02  0.97345884723E+02  0.00000000000E+00 0.  1.
          3   -1    0    0  501    0  0.00000000000E+00 -0.00000000000E+00 -0.21291606664E+02  0.21291606664E+02  0.00000000000E+00 0. -1.
         23    2    1    2    0    0  0.00000000000E+00  0.00000000000E+00  0.76054278059E+02  0.11863749139E+03  0.91052738298E+02 0.  0.
        -11    1    3    3    0    0 -0.18951008869E+02  0.26613406950E+02  0.79337880170E+02  0.85801593205E+02  0.00000000000E+00 0.  1.
         11    1    3    3    0    0  0.18951008869E+02 -0.26613406950E+02 -0.32836021106E+01  0.32835898182E+02  0.00000000000E+00 0. -1.
<mgrwt>
<rscale>  0 0.91052738E+02</rscale>
<asrwt>0</asrwt>
<pdfrwt beam="2">  1        3 0.32756319E-02 0.91052738E+02</pdfrwt>
<pdfrwt beam="1">  1       -3 0.14976290E-01 0.91052738E+02</pdfrwt>
<totfact> 0.33465231E+04</totfact>
</mgrwt>
</event>
<event>
 5    1  0.1247456E+001  0.9253915E+02  0.7546771E-02  0.1296817E+00
          2   -1    0    0  501    0  0.00000000000E+00  0.00000000000E+00  0.27007867590E+03  0.27007867590E+03  0.00000000000E+00 0. -1.
         -2   -1    0    0    0  501 -0.00000000000E+00 -0.00000000000E+00 -0.79268513502E+01  0.79268513502E+01  0.00000000000E+00 0.  1.
         23    2    1    2    0    0  0.00000000000E+00  0.00000000000E+00  0.26215182455E+03  0.27800552725E+03  0.92539148834E+02 0.  0.
        -13    1    3    3    0    0  0.33406894308E+02  0.27393533601E+02  0.81307089426E+02  0.92072086222E+02  0.00000000000E+00 0.  1.
         13    1    3    3    0    0 -0.33406894308E+02 -0.27393533601E+02  0.18084473512E+03  0.18593344103E+03  0.00000000000E+00 0. -1.
<mgrwt>
<rscale>  0 0.92539149E+02</rscale>
<asrwt>0</asrwt>
<pdfrwt beam="1">  1        2 0.41550559E-01 0.92539149E+02</pdfrwt>
<pdfrwt beam="2">  1       -2 0.12195158E-02 0.92539149E+02</pdfrwt>
<totfact> 0.16602908E+05</totfact>
</mgrwt>
</event>
<event>
 5    1  0.1247456E+001  0.9076984E+02  0.7546771E-02  0.1300998E+00
          1   -1    0    0  501    0  0.00000000000E+00  0.00000000000E+00  0.96209112857E+02  0.96209112857E+02  0.00000000000E+00 0. -1.
         -1   -1    0    0    0  501 -0.00000000000E+00 -0.00000000000E+00 -0.21409521442E+02  0.21409521442E+02  0.00000000000E+00 0.  1.
         23    2    1    2    0    0  0.00000000000E+00  0.00000000000E+00  0.74799591416E+02  0.11761863430E+03  0.90769842230E+02 0.  0.
        -13    1    3    3    0    0  0.37205263792E+02 -0.25868569406E+02  0.40671896514E+02  0.60890210239E+02  0.00000000000E+00 0.  1.
         13    1    3    3    0    0 -0.37205263792E+02  0.25868569406E+02  0.34127694902E+02  0.56728424060E+02  0.00000000000E+00 0. -1.
<mgrwt>
<rscale>  0 0.90769842E+02</rscale>
<asrwt>0</asrwt>
<pdfrwt beam="1">  1        1 0.14801402E-01 0.90769842E+02</pdfrwt>
<pdfrwt beam="2">  1       -1 0.32937726E-02 0.90769842E+02</pdfrwt>
<totfact> 0.10506006E+05</totfact>
</mgrwt>
</event>
<event>
 5    1  0.1247456E+001  0.9104209E+02  0.7546771E-02  0.1300348E+00
          1   -1    0    0  501    0  0.00000000000E+00  0.00000000000E+00  0.41615887378E+02  0.41615887378E+02  0.00000000000E+00 0. -1.
         -1   -1    0    0    0  501 -0.00000000000E+00 -0.00000000000E+00 -0.49792659673E+02  0.49792659673E+02  0.00000000000E+00 0.  1.
         23    2    1    2    0    0  0.00000000000E+00  0.00000000000E+00 -0.81767722949E+01  0.91408547051E+02  0.91042093939E+02 0.  0.
        -11    1    3    3    0    0 -0.11768876679E+02 -0.95775006749E+01  0.39002082351E+02  0.41849700180E+02  0.00000000000E+00 0. -1.
         11    1    3    3    0    0  0.11768876679E+02  0.95775006749E+01 -0.47178854646E+02  0.49558846871E+02  0.00000000000E+00 0.  1.
<mgrwt>
<rscale>  0 0.91042094E+02</rscale>
<asrwt>0</asrwt>
<pdfrwt beam="1">  1        1 0.64024442E-02 0.91042094E+02</pdfrwt>
<pdfrwt beam="2">  1       -1 0.76604092E-02 0.91042094E+02</pdfrwt>
<totfact> 0.91591214E+04</totfact>
</mgrwt>
</event>
<event>
 5    1  0.1247456E+001  0.9227152E+02  0.7546771E-02  0.1297442E+00
         -1   -1    0    0    0  501 -0.00000000000E+00  0.00000000000E+00  0.34459583669E+02  0.34459583669E+02  0.00000000000E+00 0.  1.
          1   -1    0    0  501    0  0.00000000000E+00 -0.00000000000E+00 -0.61768251247E+02  0.61768251247E+02  0.00000000000E+00 0. -1.
         23    2    1    2    0    0  0.00000000000E+00  0.00000000000E+00 -0.27308667578E+02  0.96227834917E+02  0.92271517208E+02 0.  0.
        -13    1    3    3    0    0 -0.26841386750E+02  0.37202129968E+02 -0.18768654172E+02  0.49565319491E+02  0.00000000000E+00 0.  1.
         13    1    3    3    0    0  0.26841386750E+02 -0.37202129968E+02 -0.85400134058E+01  0.46662515425E+02  0.00000000000E+00 0. -1.
<mgrwt>
<rscale>  0 0.92271517E+02</rscale>
<asrwt>0</asrwt>
<pdfrwt beam="2">  1        1 0.95028078E-02 0.92271517E+02</pdfrwt>
<pdfrwt beam="1">  1       -1 0.53014745E-02 0.92271517E+02</pdfrwt>
<totfact> 0.93642257E+04</totfact>
</mgrwt>
</event>
<event>
 5    1  0.1247456E+001  0.9049156E+02  0.7546771E-02  0.1301666E+00
          4   -1    0    0  501    0  0.00000000000E+00  0.00000000000E+00  0.41539411893E+02  0.41539411893E+02  0.00000000000E+00 0. -1.
         -4   -1    0    0    0  501 -0.00000000000E+00 -0.00000000000E+00 -0.49282851331E+02  0.49282851331E+02  0.00000000000E+00 0.  1.
         23    2    1    2    0    0  0.00000000000E+00  0.00000000000E+00 -0.77434394386E+01  0.90822263224E+02  0.90491561169E+02 0.  0.
        -11    1    3    3    0    0  0.26700564450E+02 -0.28349734288E+02 -0.26989634642E+02  0.47382148054E+02  0.00000000000E+00 0.  1.
         11    1    3    3    0    0 -0.26700564450E+02  0.28349734288E+02  0.19246195204E+02  0.43440115170E+02  0.00000000000E+00 0. -1.
<mgrwt>
<rscale>  0 0.90491561E+02</rscale>
<asrwt>0</asrwt>
<pdfrwt beam="1">  1        4 0.63906787E-02 0.90491561E+02</pdfrwt>
<pdfrwt beam="2">  1       -4 0.75819772E-02 0.90491561E+02</pdfrwt>
<totfact> 0.27597794E+04</totfact>
</mgrwt>
</event>
<event>
 5    1  0.1247456E+001  0.9583710E+02  0.7546771E-02  0.1289302E+00
          2   -1    0    0  501    0  0.00000000000E+00  0.00000000000E+00  0.90048526188E+01  0.90048526188E+01  0.00000000000E+00 0. -1.
         -2   -1    0    0    0  501 -0.00000000000E+00 -0.00000000000E+00 -0.25499446993E+03  0.25499446993E+03  0.00000000000E+00 0.  1.
         23    2    1    2    0    0  0.00000000000E+00  0.00000000000E+00 -0.24598961731E+03  0.26399932254E+03  0.95837103886E+02 0.  0.
        -13    1    3    3    0    0 -0.16662034961E+02 -0.36297443606E+02 -0.19593160157E+03  0.19996079695E+03  0.00000000000E+00 0.  1.
         13    1    3    3    0    0  0.16662034961E+02  0.36297443606E+02 -0.50058015736E+02  0.64038525598E+02  0.00000000000E+00 0. -1.
<mgrwt>
<rscale>  0 0.95837104E+02</rscale>
<asrwt>0</asrwt>
<pdfrwt beam="1">  1        2 0.13853620E-02 0.95837104E+02</pdfrwt>
<pdfrwt beam="2">  1       -2 0.39229916E-01 0.95837104E+02</pdfrwt>
<totfact> 0.48929226E+04</totfact>
</mgrwt>
</event>
<event>
 5    1  0.1247456E+001  0.8792523E+02  0.7546771E-02  0.1307955E+00
          3   -1    0    0  501    0  0.00000000000E+00  0.00000000000E+00  0.10224921726E+02  0.10224921726E+02  0.00000000000E+00 0. -1.
         -3   -1    0    0    0  501 -0.00000000000E+00 -0.00000000000E+00 -0.18901969480E+03  0.18901969480E+03  0.00000000000E+00 0.  1.
         23    2    1    2    0    0  0.00000000000E+00  0.00000000000E+00 -0.17879477308E+03  0.19924461653E+03  0.87925231512E+02 0.  0.
        -11    1    3    3    0    0  0.27400934459E+02 -0.22528624093E+02 -0.14824372564E+03  0.15242884342E+03  0.00000000000E+00 0. -1.
         11    1    3    3    0    0 -0.27400934459E+02  0.22528624093E+02 -0.30551047431E+02  0.46815773110E+02  0.00000000000E+00 0.  1.
<mgrwt>
<rscale>  0 0.87925232E+02</rscale>
<asrwt>0</asrwt>
<pdfrwt beam="1">  1        3 0.15730650E-02 0.87925232E+02</pdfrwt>
<pdfrwt beam="2">  1       -3 0.29079951E-01 0.87925232E+02</pdfrwt>
<totfact> 0.31463222E+04</totfact>
</mgrwt>
</event>
<event>
 5    1  0.1247456E+001  0.9169444E+02  0.7546771E-02  0.1298799E+00
          2   -1    0    0  501    0  0.00000000000E+00  0.00000000000E+00  0.24551236628E+02  0.24551236628E+02  0.00000000000E+00 0. -1.
         -2   -1    0    0    0  501 -0.00000000000E+00 -0.00000000000E+00 -0.85615540323E+02  0.85615540323E+02  0.00000000000E+00 0.  1.
         23    2    1    2    0    0  0.00000000000E+00  0.00000000000E+00 -0.61064303695E+02  0.11016677695E+03  0.91694435807E+02 0.  0.
        -13    1    3    3    0    0  0.14754032937E+02 -0.41184447701E+02 -0.47011249277E+02  0.64217581540E+02  0.00000000000E+00 0.  1.
         13    1    3    3    0    0 -0.14754032937E+02  0.41184447701E+02 -0.14053054418E+02  0.45949195410E+02  0.00000000000E+00 0. -1.
<mgrwt>
<rscale>  0 0.91694436E+02</rscale>
<asrwt>0</asrwt>
<pdfrwt beam="1">  1        2 0.37771134E-02 0.91694436E+02</pdfrwt>
<pdfrwt beam="2">  1       -2 0.13171621E-01 0.91694436E+02</pdfrwt>
<totfact> 0.82324118E+04</totfact>
</mgrwt>
</event>
<event>
 5    1  0.1247456E+001  0.9130450E+02  0.7546771E-02  0.1299723E+00
         -1   -1    0    0    0  501 -0.00000000000E+00  0.00000000000E+00  0.74870212561E+01  0.74870212561E+01  0.00000000000E+00 0.  1.
          1   -1    0    0  501    0  0.00000000000E+00 -0.00000000000E+00 -0.27836544441E+03  0.27836544441E+03  0.00000000000E+00 0. -1.
         23    2    1    2    0    0  0.00000000000E+00  0.00000000000E+00 -0.27087842316E+03  0.28585246567E+03  0.91304501516E+02 0.  0.
        -13    1    3    3    0    0 -0.32280359003E+02 -0.30442273837E+02 -0.10181094717E+03  0.11105954519E+03  0.00000000000E+00 0. -1.
         13    1    3    3    0    0  0.32280359003E+02  0.30442273837E+02 -0.16906747598E+03  0.17479292048E+03  0.00000000000E+00 0.  1.
<mgrwt>
<rscale>  0 0.91304502E+02</rscale>
<asrwt>0</asrwt>
<pdfrwt beam="2">  1        1 0.42825454E-01 0.91304502E+02</pdfrwt>
<pdfrwt beam="1">  1       -1 0.11518494E-02 0.91304502E+02</pdfrwt>
<totfact> 0.12581886E+05</totfact>
</mgrwt>
</event>
<event>
 5    1  0.1247456E+001  0.8995417E+02  0.7546771E-02  0.1302963E+00
          1   -1    0    0  501    0  0.00000000000E+00  0.00000000000E+00  0.13456632541E+02  0.13456632541E+02  0.00000000000E+00 0. -1.
         -1   -1    0    0    0  501 -0.00000000000E+00 -0.00000000000E+00 -0.15033019899E+03  0.15033019899E+03  0.00000000000E+00 0.  1.
         23    2    1    2    0    0  0.00000000000E+00  0.00000000000E+00 -0.13687356645E+03  0.16378683153E+03  0.89954171614E+02 0.  0.
        -13    1    3    3    0    0 -0.44159171974E+02  0.75423615167E+01 -0.61149436683E+02  0.75803517684E+02  0.00000000000E+00 0. -1.
         13    1    3    3    0    0  0.44159171974E+02 -0.75423615167E+01 -0.75724129770E+02  0.87983313851E+02  0.00000000000E+00 0.  1.
<mgrwt>
<rscale>  0 0.89954172E+02</rscale>
<asrwt>0</asrwt>
<pdfrwt beam="1">  1        1 0.20702511E-02 0.89954172E+02</pdfrwt>
<pdfrwt beam="2">  1       -1 0.23127723E-01 0.89954172E+02</pdfrwt>
<totfact> 0.77412956E+04</totfact>
</mgrwt>
</event>
<event>
 5    1  0.1247456E+001  0.9450987E+02  0.7546771E-02  0.1292284E+00
          1   -1    0    0  501    0  0.00000000000E+00  0.00000000000E+00  0.60933475468E+02  0.60933475468E+02  0.00000000000E+00 0. -1.
         -1   -1    0    0    0  501 -0.00000000000E+00 -0.00000000000E+00 -0.36646996338E+02  0.36646996338E+02  0.00000000000E+00 0.  1.
         23    2    1    2    0    0  0.00000000000E+00  0.00000000000E+00  0.24286479130E+02  0.97580471806E+02  0.94509869375E+02 0.  0.
        -11    1    3    3    0    0  0.69105618147E+01 -0.32642407185E+02 -0.22406561993E+02  0.40191250686E+02  0.00000000000E+00 0.  1.
         11    1    3    3    0    0 -0.69105618147E+01  0.32642407185E+02  0.46693041123E+02  0.57389221120E+02  0.00000000000E+00 0. -1.
<mgrwt>
<rscale>  0 0.94509869E+02</rscale>
<asrwt>0</asrwt>
<pdfrwt beam="1">  1        1 0.93743808E-02 0.94509869E+02</pdfrwt>
<pdfrwt beam="2">  1       -1 0.56379994E-02 0.94509869E+02</pdfrwt>
<totfact> 0.87414466E+04</totfact>
</mgrwt>
</event>
<event>
 5    1  0.1247456E+001  0.9222415E+02  0.7546771E-02  0.1297553E+00
         -1   -1    0    0    0  501 -0.00000000000E+00  0.00000000000E+00  0.53182348059E+01  0.53182348059E+01  0.00000000000E+00 0.  1.
          1   -1    0    0  501    0  0.00000000000E+00 -0.00000000000E+00 -0.39981753331E+03  0.39981753331E+03  0.00000000000E+00 0. -1.
         23    2    1    2    0    0  0.00000000000E+00  0.00000000000E+00 -0.39449929850E+03  0.40513576811E+03  0.92224151319E+02 0.  0.
        -13    1    3    3    0    0  0.31813392960E+02  0.31915849673E+02 -0.24020406168E+03  0.24439456762E+03  0.00000000000E+00 0. -1.
         13    1    3    3    0    0 -0.31813392960E+02 -0.31915849673E+02 -0.15429523682E+03  0.16074120050E+03  0.00000000000E+00 0.  1.
<mgrwt>
<rscale>  0 0.92224151E+02</rscale>
<asrwt>0</asrwt>
<pdfrwt beam="2">  1        1 0.61510394E-01 0.92224151E+02</pdfrwt>
<pdfrwt beam="1">  1       -1 0.81818991E-03 0.92224151E+02</pdfrwt>
<totfact> 0.13084811E+05</totfact>
</mgrwt>
</event>
<event>
 5    1  0.1247456E+001  0.9158282E+02  0.7546771E-02  0.1299063E+00
         -2   -1    0    0    0  501 -0.00000000000E+00  0.00000000000E+00  0.12486966188E+02  0.12486966188E+02  0.00000000000E+00 0.  1.
          2   -1    0    0  501    0  0.00000000000E+00 -0.00000000000E+00 -0.16792336165E+03  0.16792336165E+03  0.00000000000E+00 0. -1.
         23    2    1    2    0    0  0.00000000000E+00  0.00000000000E+00 -0.15543639546E+03  0.18041032784E+03  0.91582822386E+02 0.  0.
        -11    1    3    3    0    0  0.25151524793E+02  0.33072538451E+02 -0.39802520375E+02  0.57538097181E+02  0.00000000000E+00 0.  1.
         11    1    3    3    0    0 -0.25151524793E+02 -0.33072538451E+02 -0.11563387508E+03  0.12287223065E+03  0.00000000000E+00 0. -1.
<mgrwt>
<rscale>  0 0.91582822E+02</rscale>
<asrwt>0</asrwt>
<pdfrwt beam="2">  1        2 0.25834363E-01 0.91582822E+02</pdfrwt>
<pdfrwt beam="1">  1       -2 0.19210718E-02 0.91582822E+02</pdfrwt>
<totfact> 0.14361509E+05</totfact>
</mgrwt>
</event>
<event>
 5    1  0.1247456E+001  0.8733055E+02  0.7546771E-02  0.1309448E+00
          2   -1    0    0  501    0  0.00000000000E+00  0.00000000000E+00  0.22792172309E+02  0.22792172309E+02  0.00000000000E+00 0. -1.
         -2   -1    0    0    0  501 -0.00000000000E+00 -0.00000000000E+00 -0.83653997646E+02  0.83653997646E+02  0.00000000000E+00 0.  1.
         23    2    1    2    0    0  0.00000000000E+00  0.00000000000E+00 -0.60861825337E+02  0.10644616995E+03  0.87330552012E+02 0.  0.
        -13    1    3    3    0    0 -0.17218044842E+02  0.14789938459E+02 -0.75898101381E+02  0.79219474506E+02  0.00000000000E+00 0.  1.
         13    1    3    3    0    0  0.17218044842E+02 -0.14789938459E+02  0.15036276043E+02  0.27226695449E+02  0.00000000000E+00 0. -1.
<mgrwt>
<rscale>  0 0.87330552E+02</rscale>
<asrwt>0</asrwt>
<pdfrwt beam="1">  1        2 0.35064881E-02 0.87330552E+02</pdfrwt>
<pdfrwt beam="2">  1       -2 0.12869846E-01 0.87330552E+02</pdfrwt>
<totfact> 0.93440991E+04</totfact>
</mgrwt>
</event>
<event>
 5    1  0.1247456E+001  0.1012664E+03  0.7546771E-02  0.1277655E+00
         -1   -1    0    0    0  501 -0.00000000000E+00  0.00000000000E+00  0.25586510808E+02  0.25586510808E+02  0.00000000000E+00 0.  1.
          1   -1    0    0  501    0  0.00000000000E+00 -0.00000000000E+00 -0.10019807130E+03  0.10019807130E+03  0.00000000000E+00 0. -1.
         23    2    1    2    0    0  0.00000000000E+00  0.00000000000E+00 -0.74611560489E+02  0.12578458210E+03  0.10126636232E+03 0.  0.
        -13    1    3    3    0    0 -0.26508939444E+02  0.40854704720E+02 -0.20099523032E+02  0.52686066416E+02  0.00000000000E+00 0.  1.
         13    1    3    3    0    0  0.26508939444E+02 -0.40854704720E+02 -0.54512037457E+02  0.73098515689E+02  0.00000000000E+00 0. -1.
<mgrwt>
<rscale>  0 0.10126636E+03</rscale>
<asrwt>0</asrwt>
<pdfrwt beam="2">  1        1 0.15415088E-01 0.10126636E+03</pdfrwt>
<pdfrwt beam="1">  1       -1 0.39363863E-02 0.10126636E+03</pdfrwt>
<totfact> 0.78320564E+04</totfact>
</mgrwt>
</event>
<event>
 5    1  0.1247456E+001  0.8970714E+02  0.7546771E-02  0.1303562E+00
          1   -1    0    0  501    0  0.00000000000E+00  0.00000000000E+00  0.49968447507E+02  0.49968447507E+02  0.00000000000E+00 0. -1.
         -1   -1    0    0    0  501 -0.00000000000E+00 -0.00000000000E+00 -0.40262265774E+02  0.40262265774E+02  0.00000000000E+00 0.  1.
         23    2    1    2    0    0  0.00000000000E+00  0.00000000000E+00  0.97061817329E+01  0.90230713280E+02  0.89707143836E+02 0.  0.
        -11    1    3    3    0    0 -0.86973099581E+01  0.28820529771E+02 -0.28591186368E+02  0.41517732051E+02  0.00000000000E+00 0.  1.
         11    1    3    3    0    0  0.86973099581E+01 -0.28820529771E+02  0.38297368100E+02  0.48712981229E+02  0.00000000000E+00 0. -1.
<mgrwt>
<rscale>  0 0.89707144E+02</rscale>
<asrwt>0</asrwt>
<pdfrwt beam="1">  1        1 0.76874535E-02 0.89707144E+02</pdfrwt>
<pdfrwt beam="2">  1       -1 0.61941947E-02 0.89707144E+02</pdfrwt>
<totfact> 0.98102703E+04</totfact>
</mgrwt>
</event>
<event>
 5    1  0.1247456E+001  0.8848547E+02  0.7546771E-02  0.1306561E+00
          2   -1    0    0  501    0  0.00000000000E+00  0.00000000000E+00  0.29591778570E+02  0.29591778570E+02  0.00000000000E+00 0.  1.
         -2   -1    0    0    0  501 -0.00000000000E+00 -0.00000000000E+00 -0.66147420455E+02  0.66147420455E+02  0.00000000000E+00 0. -1.
         23    2    1    2    0    0  0.00000000000E+00  0.00000000000E+00 -0.36555641885E+02  0.95739199026E+02  0.88485474946E+02 0.  0.
        -11    1    3    3    0    0  0.18154866660E+02  0.29760741525E+02 -0.47752870869E+02  0.59123917291E+02  0.00000000000E+00 0. -1.
         11    1    3    3    0    0 -0.18154866660E+02 -0.29760741525E+02  0.11197228985E+02  0.36615281735E+02  0.00000000000E+00 0.  1.
<mgrwt>
<rscale>  0 0.88485475E+02</rscale>
<asrwt>0</asrwt>
<pdfrwt beam="1">  1        2 0.45525813E-02 0.88485475E+02</pdfrwt>
<pdfrwt beam="2">  1       -2 0.10176526E-01 0.88485475E+02</pdfrwt>
<totfact> 0.96311313E+04</totfact>
</mgrwt>
</event>
<event>
 5    1  0.1247456E+001  0.9271100E+02  0.7546771E-02  0.1296416E+00
         -1   -1    0    0    0  501 -0.00000000000E+00  0.00000000000E+00  0.48596817259E+02  0.48596817259E+02  0.00000000000E+00 0.  1.
          1   -1    0    0  501    0  0.00000000000E+00 -0.00000000000E+00 -0.44217556123E+02  0.44217556123E+02  0.00000000000E+00 0. -1.
         23    2    1    2    0    0  0.00000000000E+00  0.00000000000E+00  0.43792611361E+01  0.92814373382E+02  0.92711002466E+02 0.  0.
        -13    1    3    3    0    0  0.12791280306E+02  0.20689947540E+02  0.41694263374E+02  0.48271134018E+02  0.00000000000E+00 0.  1.
         13    1    3    3    0    0 -0.12791280306E+02 -0.20689947540E+02 -0.37315002238E+02  0.44543239365E+02  0.00000000000E+00 0. -1.
<mgrwt>
<rscale>  0 0.92711002E+02</rscale>
<asrwt>0</asrwt>
<pdfrwt beam="2">  1        1 0.68027010E-02 0.92711002E+02</pdfrwt>
<pdfrwt beam="1">  1       -1 0.74764334E-02 0.92711002E+02</pdfrwt>
<totfact> 0.87820981E+04</totfact>
</mgrwt>
</event>
<event>
 5    1  0.1247456E+001  0.9128927E+02  0.7546771E-02  0.1299759E+00
         -1   -1    0    0    0  501 -0.00000000000E+00  0.00000000000E+00  0.14748708188E+02  0.14748708188E+02  0.00000000000E+00 0.  1.
          1   -1    0    0  501    0  0.00000000000E+00 -0.00000000000E+00 -0.14126206020E+03  0.14126206020E+03  0.00000000000E+00 0. -1.
         23    2    1    2    0    0  0.00000000000E+00  0.00000000000E+00 -0.12651335201E+03  0.15601076839E+03  0.91289274375E+02 0.  0.
        -11    1    3    3    0    0  0.40491317173E+02  0.18181717591E+02 -0.81448297006E+02  0.92757461727E+02  0.00000000000E+00 0. -1.
         11    1    3    3    0    0 -0.40491317173E+02 -0.18181717591E+02 -0.45065055008E+02  0.63253306663E+02  0.00000000000E+00 0.  1.
<mgrwt>
<rscale>  0 0.91289274E+02</rscale>
<asrwt>0</asrwt>
<pdfrwt beam="2">  1        1 0.21732624E-01 0.91289274E+02</pdfrwt>
<pdfrwt beam="1">  1       -1 0.22690321E-02 0.91289274E+02</pdfrwt>
<totfact> 0.11054127E+05</totfact>
</mgrwt>
</event>
<event>
 5    1  0.1247456E+001  0.9367129E+02  0.7546771E-02  0.1294197E+00
          2   -1    0    0  501    0  0.00000000000E+00  0.00000000000E+00  0.42853886178E+02  0.42853886178E+02  0.00000000000E+00 0. -1.
         -2   -1    0    0    0  501 -0.00000000000E+00 -0.00000000000E+00 -0.51187370273E+02  0.51187370273E+02  0.00000000000E+00 0.  1.
         23    2    1    2    0    0  0.00000000000E+00  0.00000000000E+00 -0.83334840951E+01  0.94041256451E+02  0.93671292069E+02 0.  0.
        -11    1    3    3    0    0 -0.20561254581E+02 -0.13129059710E+02 -0.44305148639E+02  0.50577500875E+02  0.00000000000E+00 0.  1.
         11    1    3    3    0    0  0.20561254581E+02  0.13129059710E+02  0.35971664544E+02  0.43463755577E+02  0.00000000000E+00 0. -1.
<mgrwt>
<rscale>  0 0.93671292E+02</rscale>
<asrwt>0</asrwt>
<pdfrwt beam="1">  1        2 0.65929055E-02 0.93671292E+02</pdfrwt>
<pdfrwt beam="2">  1       -2 0.78749801E-02 0.93671292E+02</pdfrwt>
<totfact> 0.89811277E+04</totfact>
</mgrwt>
</event>
<event>
 5    1  0.1247456E+001  0.9007747E+02  0.7546771E-02  0.1302664E+00
         -1   -1    0    0    0  501 -0.00000000000E+00  0.00000000000E+00  0.69551314779E+02  0.69551314779E+02  0.00000000000E+00 0.  1.
          1   -1    0    0  501    0  0.00000000000E+00 -0.00000000000E+00 -0.29165336148E+02  0.29165336148E+02  0.00000000000E+00 0. -1.
         23    2    1    2    0    0  0.00000000000E+00  0.00000000000E+00  0.40385978632E+02  0.98716650927E+02  0.90077466107E+02 0.  0.
        -11    1    3    3    0    0  0.31452770284E+02 -0.15137743416E+02  0.51384233313E+02  0.62118978319E+02  0.00000000000E+00 0.  1.
         11    1    3    3    0    0 -0.31452770284E+02  0.15137743416E+02 -0.10998254681E+02  0.36597672608E+02  0.00000000000E+00 0. -1.
<mgrwt>
<rscale>  0 0.90077466E+02</rscale>
<asrwt>0</asrwt>
<pdfrwt beam="2">  1        1 0.44869748E-02 0.90077466E+02</pdfrwt>
<pdfrwt beam="1">  1       -1 0.10700202E-01 0.90077466E+02</pdfrwt>
<totfact> 0.89347128E+04</totfact>
</mgrwt>
</event>
<event>
 5    1  0.1247456E+001  0.9096554E+02  0.7546771E-02  0.1300530E+00
         -2   -1    0    0    0  501 -0.00000000000E+00  0.00000000000E+00  0.15144516824E+02  0.15144516824E+02  0.00000000000E+00 0.  1.
          2   -1    0    0  501    0  0.00000000000E+00 -0.00000000000E+00 -0.13659612716E+03  0.13659612716E+03  0.00000000000E+00 0. -1.
         23    2    1    2    0    0  0.00000000000E+00  0.00000000000E+00 -0.12145161033E+03  0.15174064398E+03  0.90965539536E+02 0.  0.
        -11    1    3    3    0    0 -0.13755798854E+02  0.18924705237E+02 -0.12578890065E+03  0.12794613710E+03  0.00000000000E+00 0. -1.
         11    1    3    3    0    0  0.13755798854E+02 -0.18924705237E+02  0.43372903218E+01  0.23794506882E+02  0.00000000000E+00 0.  1.
<mgrwt>
<rscale>  0 0.90965540E+02</rscale>
<asrwt>0</asrwt>
<pdfrwt beam="2">  1        2 0.21014788E-01 0.90965540E+02</pdfrwt>
<pdfrwt beam="1">  1       -2 0.23299257E-02 0.90965540E+02</pdfrwt>
<totfact> 0.13633554E+05</totfact>
</mgrwt>
</event>
<event>
 5    1  0.1247456E+001  0.9033600E+02  0.7546771E-02  0.1302040E+00
          1   -1    0    0  501    0  0.00000000000E+00  0.00000000000E+00  0.13242526074E+02  0.13242526074E+02  0.00000000000E+00 0. -1.
         -1   -1    0    0    0  501 -0.00000000000E+00 -0.00000000000E+00 -0.15406035156E+03  0.15406035156E+03  0.00000000000E+00 0.  1.
         23    2    1    2    0    0  0.00000000000E+00  0.00000000000E+00 -0.14081782549E+03  0.16730287763E+03  0.90335999966E+02 0.  0.
        -11    1    3    3    0    0  0.89825399462E+01 -0.25033443518E+02 -0.27969974197E+01  0.26742896492E+02  0.00000000000E+00 0. -1.
         11    1    3    3    0    0 -0.89825399462E+01  0.25033443518E+02 -0.13802082807E+03  0.14055998114E+03  0.00000000000E+00 0.  1.
<mgrwt>
<rscale>  0 0.90336000E+02</rscale>
<asrwt>0</asrwt>
<pdfrwt beam="1">  1        1 0.20373118E-02 0.90336000E+02</pdfrwt>
<pdfrwt beam="2">  1       -1 0.23701591E-01 0.90336000E+02</pdfrwt>
<totfact> 0.76126242E+04</totfact>
</mgrwt>
</event>
<event>
 5    1  0.1247456E+001  0.8998292E+02  0.7546771E-02  0.1302893E+00
         -2   -1    0    0    0  501 -0.00000000000E+00  0.00000000000E+00  0.97610557313E+01  0.97610557313E+01  0.00000000000E+00 0. -1.
          2   -1    0    0  501    0  0.00000000000E+00 -0.00000000000E+00 -0.20737832241E+03  0.20737832241E+03  0.00000000000E+00 0.  1.
         23    2    1    2    0    0  0.00000000000E+00  0.00000000000E+00 -0.19761726668E+03  0.21713937814E+03  0.89982917545E+02 0.  0.
        -11    1    3    3    0    0  0.42315554339E+02  0.15217058489E+02 -0.95339820053E+02  0.10541274257E+03  0.00000000000E+00 0.  1.
         11    1    3    3    0    0 -0.42315554339E+02 -0.15217058489E+02 -0.10227744662E+03  0.11172663557E+03  0.00000000000E+00 0. -1.
<mgrwt>
<rscale>  0 0.89982918E+02</rscale>
<asrwt>0</asrwt>
<pdfrwt beam="2">  1        2 0.31904355E-01 0.89982918E+02</pdfrwt>
<pdfrwt beam="1">  1       -2 0.15017010E-02 0.89982918E+02</pdfrwt>
<totfact> 0.16237344E+05</totfact>
</mgrwt>
</event>
<event>
 5    1  0.1247456E+001  0.9351309E+02  0.7546771E-02  0.1294561E+00
          4   -1    0    0  501    0  0.00000000000E+00  0.00000000000E+00  0.36971051484E+03  0.36971051484E+03  0.00000000000E+00 0. -1.
         -4   -1    0    0    0  501 -0.00000000000E+00 -0.00000000000E+00 -0.59132058091E+01  0.59132058091E+01  0.00000000000E+00 0.  1.
         23    2    1    2    0    0  0.00000000000E+00  0.00000000000E+00  0.36379730903E+03  0.37562372065E+03  0.93513087085E+02 0.  0.
        -11    1    3    3    0    0  0.26501874626E+02  0.33596875590E+02  0.25758902601E+03  0.26111914087E+03  0.00000000000E+00 0.  1.
         11    1    3    3    0    0 -0.26501874626E+02 -0.33596875590E+02  0.10620828302E+03  0.11450457978E+03  0.00000000000E+00 0. -1.
<mgrwt>
<rscale>  0 0.93513087E+02</rscale>
<asrwt>0</asrwt>
<pdfrwt beam="1">  1        4 0.56878523E-01 0.93513087E+02</pdfrwt>
<pdfrwt beam="2">  1       -4 0.90972426E-03 0.93513087E+02</pdfrwt>
<totfact> 0.14714733E+04</totfact>
</mgrwt>
</event>
<event>
 5    1  0.1247456E+001  0.9187006E+02  0.7546771E-02  0.1298385E+00
          4   -1    0    0  501    0  0.00000000000E+00  0.00000000000E+00  0.18001290703E+02  0.18001290703E+02  0.00000000000E+00 0. -1.
         -4   -1    0    0    0  501 -0.00000000000E+00 -0.00000000000E+00 -0.11721532868E+03  0.11721532868E+03  0.00000000000E+00 0.  1.
         23    2    1    2    0    0  0.00000000000E+00  0.00000000000E+00 -0.99214037972E+02  0.13521661938E+03  0.91870064904E+02 0.  0.
        -11    1    3    3    0    0  0.31199754766E+02 -0.24642812677E+02 -0.15744359336E+02  0.42761872796E+02  0.00000000000E+00 0.  1.
         11    1    3    3    0    0 -0.31199754766E+02  0.24642812677E+02 -0.83469678635E+02  0.92454746582E+02  0.00000000000E+00 0. -1.
<mgrwt>
<rscale>  0 0.91870065E+02</rscale>
<asrwt>0</asrwt>
<pdfrwt beam="1">  1        4 0.27694295E-02 0.91870065E+02</pdfrwt>
<pdfrwt beam="2">  1       -4 0.18033127E-01 0.91870065E+02</pdfrwt>
<totfact> 0.23942223E+04</totfact>
</mgrwt>
</event>
<event>
 5    1  0.1247456E+001  0.9404770E+02  0.7546771E-02  0.1293335E+00
          1   -1    0    0  501    0  0.00000000000E+00  0.00000000000E+00  0.19213223702E+03  0.19213223702E+03  0.00000000000E+00 0. -1.
         -1   -1    0    0    0  501 -0.00000000000E+00 -0.00000000000E+00 -0.11508960673E+02  0.11508960673E+02  0.00000000000E+00 0.  1.
         23    2    1    2    0    0  0.00000000000E+00  0.00000000000E+00  0.18062327635E+03  0.20364119769E+03  0.94047697681E+02 0.  0.
        -13    1    3    3    0    0  0.26834775118E+02  0.25759186190E+02  0.28020234557E+02  0.46570101712E+02  0.00000000000E+00 0.  1.
         13    1    3    3    0    0 -0.26834775118E+02 -0.25759186190E+02  0.15260304179E+03  0.15707109598E+03  0.00000000000E+00 0. -1.
<mgrwt>
<rscale>  0 0.94047698E+02</rscale>
<asrwt>0</asrwt>
<pdfrwt beam="1">  1        1 0.29558803E-01 0.94047698E+02</pdfrwt>
<pdfrwt beam="2">  1       -1 0.17706095E-02 0.94047698E+02</pdfrwt>
<totfact> 0.10808813E+05</totfact>
</mgrwt>
</event>
<event>
 5    1  0.1247456E+001  0.9189382E+02  0.7546771E-02  0.1298329E+00
         -2   -1    0    0    0  501 -0.00000000000E+00  0.00000000000E+00  0.22997696990E+02  0.22997696990E+02  0.00000000000E+00 0.  1.
          2   -1    0    0  501    0  0.00000000000E+00 -0.00000000000E+00 -0.91796960699E+02  0.91796960699E+02  0.00000000000E+00 0. -1.
         23    2    1    2    0    0  0.00000000000E+00  0.00000000000E+00 -0.68799263710E+02  0.11479465769E+03  0.91893823225E+02 0.  0.
        -11    1    3    3    0    0 -0.21478108308E+01 -0.28067395486E+02  0.10964519451E+02  0.30209476453E+02  0.00000000000E+00 0.  1.
         11    1    3    3    0    0  0.21478108308E+01  0.28067395486E+02 -0.79763783160E+02  0.84585181237E+02  0.00000000000E+00 0. -1.
<mgrwt>
<rscale>  0 0.91893823E+02</rscale>
<asrwt>0</asrwt>
<pdfrwt beam="2">  1        2 0.14122609E-01 0.91893823E+02</pdfrwt>
<pdfrwt beam="1">  1       -2 0.35381073E-02 0.91893823E+02</pdfrwt>
<totfact> 0.11699396E+05</totfact>
</mgrwt>
</event>
<event>
 5    1  0.1247456E+001  0.8958163E+02  0.7546771E-02  0.1303868E+00
          3   -1    0    0  501    0  0.00000000000E+00  0.00000000000E+00  0.95603542703E+02  0.95603542703E+02  0.00000000000E+00 0. -1.
         -3   -1    0    0    0  501 -0.00000000000E+00 -0.00000000000E+00 -0.20984758273E+02  0.20984758273E+02  0.00000000000E+00 0.  1.
         23    2    1    2    0    0  0.00000000000E+00  0.00000000000E+00  0.74618784430E+02  0.11658830098E+03  0.89581632797E+02 0.  0.
        -11    1    3    3    0    0 -0.15955654289E+02  0.13519331126E+02 -0.14240572642E+02  0.25301168491E+02  0.00000000000E+00 0.  1.
         11    1    3    3    0    0  0.15955654289E+02 -0.13519331126E+02  0.88859357073E+02  0.91287132484E+02  0.00000000000E+00 0. -1.
<mgrwt>
<rscale>  0 0.89581633E+02</rscale>
<asrwt>0</asrwt>
<pdfrwt beam="1">  1        3 0.14708237E-01 0.89581633E+02</pdfrwt>
<pdfrwt beam="2">  1       -3 0.32284244E-02 0.89581633E+02</pdfrwt>
<totfact> 0.35121717E+04</totfact>
</mgrwt>
</event>
<event>
 5    1  0.1247456E+001  0.8973128E+02  0.7546771E-02  0.1303504E+00
          2   -1    0    0  501    0  0.00000000000E+00  0.00000000000E+00  0.12081467828E+02  0.12081467828E+02  0.00000000000E+00 0.  1.
         -2   -1    0    0    0  501 -0.00000000000E+00 -0.00000000000E+00 -0.16661265522E+03  0.16661265522E+03  0.00000000000E+00 0. -1.
         23    2    1    2    0    0  0.00000000000E+00  0.00000000000E+00 -0.15453118739E+03  0.17869412304E+03  0.89731275120E+02 0.  0.
        -13    1    3    3    0    0 -0.25617342486E+02 -0.15708053582E+02 -0.10919545978E+02  0.31972295315E+02  0.00000000000E+00 0.  1.
         13    1    3    3    0    0  0.25617342486E+02  0.15708053582E+02 -0.14361164141E+03  0.14672182773E+03  0.00000000000E+00 0. -1.
<mgrwt>
<rscale>  0 0.89731275E+02</rscale>
<asrwt>0</asrwt>
<pdfrwt beam="1">  1        2 0.18586875E-02 0.89731275E+02</pdfrwt>
<pdfrwt beam="2">  1       -2 0.25632714E-01 0.89731275E+02</pdfrwt>
<totfact> 0.69937213E+04</totfact>
</mgrwt>
</event>
<event>
 5    1  0.1247456E+001  0.8669426E+02  0.7546771E-02  0.1311060E+00
         -1   -1    0    0    0  501 -0.00000000000E+00  0.00000000000E+00  0.81280562660E+02  0.81280562660E+02  0.00000000000E+00 0.  1.
          1   -1    0    0  501    0  0.00000000000E+00 -0.00000000000E+00 -0.23117132951E+02  0.23117132951E+02  0.00000000000E+00 0. -1.
         23    2    1    2    0    0  0.00000000000E+00  0.00000000000E+00  0.58163429710E+02  0.10439769561E+03  0.86694257556E+02 0.  0.
        -11    1    3    3    0    0 -0.64496407300E+01 -0.11988810921E+02 -0.20476044243E+02  0.24588571343E+02  0.00000000000E+00 0. -1.
         11    1    3    3    0    0  0.64496407300E+01  0.11988810921E+02  0.78639473953E+02  0.79809124268E+02  0.00000000000E+00 0.  1.
<mgrwt>
<rscale>  0 0.86694258E+02</rscale>
<asrwt>0</asrwt>
<pdfrwt beam="2">  1        1 0.35564820E-02 0.86694258E+02</pdfrwt>
<pdfrwt beam="1">  1       -1 0.12504702E-01 0.86694258E+02</pdfrwt>
<totfact> 0.96039443E+04</totfact>
</mgrwt>
</event>
<event>
 5    1  0.1247456E+001  0.9012933E+02  0.7546771E-02  0.1302539E+00
          2   -1    0    0  501    0  0.00000000000E+00  0.00000000000E+00  0.10310530113E+03  0.10310530113E+03  0.00000000000E+00 0. -1.
         -2   -1    0    0    0  501 -0.00000000000E+00 -0.00000000000E+00 -0.19696600003E+02  0.19696600003E+02  0.00000000000E+00 0.  1.
         23    2    1    2    0    0  0.00000000000E+00  0.00000000000E+00  0.83408701130E+02  0.12280190114E+03  0.90129326518E+02 0.  0.
        -11    1    3    3    0    0  0.29983808532E+02 -0.12868951058E+02 -0.64718433664E+00  0.32635219058E+02  0.00000000000E+00 0.  1.
         11    1    3    3    0    0 -0.29983808532E+02  0.12868951058E+02  0.84055885467E+02  0.90166682078E+02  0.00000000000E+00 0. -1.
<mgrwt>
<rscale>  0 0.90129327E+02</rscale>
<asrwt>0</asrwt>
<pdfrwt beam="1">  1        2 0.15862354E-01 0.90129327E+02</pdfrwt>
<pdfrwt beam="2">  1       -2 0.30302462E-02 0.90129327E+02</pdfrwt>
<totfact> 0.12782032E+05</totfact>
</mgrwt>
</event>
<event>
 5    1  0.1247456E+001  0.8948895E+02  0.7546771E-02  0.1304094E+00
          1   -1    0    0  501    0  0.00000000000E+00  0.00000000000E+00  0.19920407408E+02  0.19920407408E+02  0.00000000000E+00 0. -1.
         -1   -1    0    0    0  501 -0.00000000000E+00 -0.00000000000E+00 -0.10050336126E+03  0.10050336126E+03  0.00000000000E+00 0.  1.
         23    2    1    2    0    0  0.00000000000E+00  0.00000000000E+00 -0.80582953850E+02  0.12042376866E+03  0.89488946850E+02 0.  0.
        -11    1    3    3    0    0  0.20524495530E+02 -0.16161943219E+02  0.85922966455E+01  0.27500743390E+02  0.00000000000E+00 0. -1.
         11    1    3    3    0    0 -0.20524495530E+02  0.16161943219E+02 -0.89175250495E+02  0.92923025275E+02  0.00000000000E+00 0.  1.
<mgrwt>
<rscale>  0 0.89488947E+02</rscale>
<asrwt>0</asrwt>
<pdfrwt beam="1">  1        1 0.30646781E-02 0.89488947E+02</pdfrwt>
<pdfrwt beam="2">  1       -1 0.15462055E-01 0.89488947E+02</pdfrwt>
<totfact> 0.85297748E+04</totfact>
</mgrwt>
</event>
<event>
 5    1  0.1247456E+001  0.9059334E+02  0.7546771E-02  0.1301421E+00
          1   -1    0    0  501    0  0.00000000000E+00  0.00000000000E+00  0.37493296226E+02  0.37493296226E+02  0.00000000000E+00 0. -1.
         -1   -1    0    0    0  501 -0.00000000000E+00 -0.00000000000E+00 -0.54724136953E+02  0.54724136953E+02  0.00000000000E+00 0.  1.
         23    2    1    2    0    0  0.00000000000E+00  0.00000000000E+00 -0.17230840728E+02  0.92217433179E+02  0.90593339214E+02 0.  0.
        -11    1    3    3    0    0 -0.19206877344E+01 -0.32611123420E+02  0.23325669861E+02  0.40140519261E+02  0.00000000000E+00 0. -1.
         11    1    3    3    0    0  0.19206877344E+01  0.32611123420E+02 -0.40556510589E+02  0.52076913918E+02  0.00000000000E+00 0.  1.
<mgrwt>
<rscale>  0 0.90593339E+02</rscale>
<asrwt>0</asrwt>
<pdfrwt beam="1">  1        1 0.57681994E-02 0.90593339E+02</pdfrwt>
<pdfrwt beam="2">  1       -1 0.84190980E-02 0.90593339E+02</pdfrwt>
<totfact> 0.91419071E+04</totfact>
</mgrwt>
</event>
<event>
 5    1  0.1247456E+001  0.9276631E+02  0.7546771E-02  0.1296288E+00
         -2   -1    0    0    0  501 -0.00000000000E+00  0.00000000000E+00  0.12677028471E+02  0.12677028471E+02  0.00000000000E+00 0.  1.
          2   -1    0    0  501    0  0.00000000000E+00 -0.00000000000E+00 -0.16970829598E+03  0.16970829598E+03  0.00000000000E+00 0. -1.
         23    2    1    2    0    0  0.00000000000E+00  0.00000000000E+00 -0.15703126750E+03  0.18238532445E+03  0.92766306381E+02 0.  0.
        -13    1    3    3    0    0 -0.40365534521E+02 -0.21460446324E+02 -0.63101099532E+02  0.77920959284E+02  0.00000000000E+00 0.  1.
         13    1    3    3    0    0  0.40365534521E+02  0.21460446324E+02 -0.93930167972E+02  0.10446436516E+03  0.00000000000E+00 0. -1.
<mgrwt>
<rscale>  0 0.92766306E+02</rscale>
<asrwt>0</asrwt>
<pdfrwt beam="2">  1        2 0.26108969E-01 0.92766306E+02</pdfrwt>
<pdfrwt beam="1">  1       -2 0.19503121E-02 0.92766306E+02</pdfrwt>
<totfact> 0.13921752E+05</totfact>
</mgrwt>
</event>
<event>
 5    1  0.1247456E+001  0.9032322E+02  0.7546771E-02  0.1302071E+00
          2   -1    0    0  501    0  0.00000000000E+00  0.00000000000E+00  0.26160398777E+03  0.26160398777E+03  0.00000000000E+00 0. -1.
         -2   -1    0    0    0  501 -0.00000000000E+00 -0.00000000000E+00 -0.77964055967E+01  0.77964055967E+01  0.00000000000E+00 0.  1.
         23    2    1    2    0    0  0.00000000000E+00  0.00000000000E+00  0.25380758217E+03  0.26940039336E+03  0.90323215052E+02 0.  0.
        -13    1    3    3    0    0  0.30066094495E+02  0.26847969318E+02  0.18764893465E+03  0.19192943018E+03  0.00000000000E+00 0.  1.
         13    1    3    3    0    0 -0.30066094495E+02 -0.26847969318E+02  0.66158647523E+02  0.77470963185E+02  0.00000000000E+00 0. -1.
<mgrwt>
<rscale>  0 0.90323215E+02</rscale>
<asrwt>0</asrwt>
<pdfrwt beam="1">  1        2 0.40246761E-01 0.90323215E+02</pdfrwt>
<pdfrwt beam="2">  1       -2 0.11994472E-02 0.90323215E+02</pdfrwt>
<totfact> 0.17505922E+05</totfact>
</mgrwt>
</event>
<event>
 5    1  0.1247456E+001  0.9233505E+02  0.7546771E-02  0.1297294E+00
          3   -1    0    0  501    0  0.00000000000E+00  0.00000000000E+00  0.80063332868E+02  0.80063332868E+02  0.00000000000E+00 0. -1.
         -3   -1    0    0    0  501 -0.00000000000E+00 -0.00000000000E+00 -0.26621928509E+02  0.26621928509E+02  0.00000000000E+00 0.  1.
         23    2    1    2    0    0  0.00000000000E+00  0.00000000000E+00  0.53441404359E+02  0.10668526138E+03  0.92335049116E+02 0.  0.
        -11    1    3    3    0    0 -0.13582956610E+02 -0.32070441381E+02 -0.82948490023E+01  0.35802436238E+02  0.00000000000E+00 0.  1.
         11    1    3    3    0    0  0.13582956610E+02  0.32070441381E+02  0.61736253361E+02  0.70882825139E+02  0.00000000000E+00 0. -1.
<mgrwt>
<rscale>  0 0.92335049E+02</rscale>
<asrwt>0</asrwt>
<pdfrwt beam="1">  1        3 0.12317436E-01 0.92335049E+02</pdfrwt>
<pdfrwt beam="2">  1       -3 0.40956814E-02 0.92335049E+02</pdfrwt>
<totfact> 0.33026222E+04</totfact>
</mgrwt>
</event>
<event>
 5    1  0.1247456E+001  0.8637694E+02  0.7546771E-02  0.1311870E+00
          2   -1    0    0  501    0  0.00000000000E+00  0.00000000000E+00  0.24914469772E+02  0.24914469772E+02  0.00000000000E+00 0.  1.
         -2   -1    0    0    0  501 -0.00000000000E+00 -0.00000000000E+00 -0.74865894338E+02  0.74865894338E+02  0.00000000000E+00 0. -1.
         23    2    1    2    0    0  0.00000000000E+00  0.00000000000E+00 -0.49951424566E+02  0.99780364110E+02  0.86376942790E+02 0.  0.
        -13    1    3    3    0    0 -0.11983540045E+02  0.41454731840E+02 -0.22927423824E+02  0.48864780641E+02  0.00000000000E+00 0.  1.
         13    1    3    3    0    0  0.11983540045E+02 -0.41454731840E+02 -0.27024000742E+02  0.50915583469E+02  0.00000000000E+00 0. -1.
<mgrwt>
<rscale>  0 0.86376943E+02</rscale>
<asrwt>0</asrwt>
<pdfrwt beam="1">  1        2 0.38329954E-02 0.86376943E+02</pdfrwt>
<pdfrwt beam="2">  1       -2 0.11517830E-01 0.86376943E+02</pdfrwt>
<totfact> 0.98897517E+04</totfact>
</mgrwt>
</event>
<event>
 5    1  0.1247456E+001  0.7092321E+02  0.7546771E-02  0.1356981E+00
         -1   -1    0    0    0  501 -0.00000000000E+00  0.00000000000E+00  0.16860900880E+02  0.16860900880E+02  0.00000000000E+00 0.  1.
          1   -1    0    0  501    0  0.00000000000E+00 -0.00000000000E+00 -0.74582346736E+02  0.74582346736E+02  0.00000000000E+00 0. -1.
         23    2    1    2    0    0  0.00000000000E+00  0.00000000000E+00 -0.57721445856E+02  0.91443247616E+02  0.70923213568E+02 0.  0.
        -11    1    3    3    0    0 -0.12085415311E+02  0.30014627996E+02 -0.10150346732E+02  0.33911129379E+02  0.00000000000E+00 0. -1.
         11    1    3    3    0    0  0.12085415311E+02 -0.30014627996E+02 -0.47571099123E+02  0.57532118237E+02  0.00000000000E+00 0.  1.
<mgrwt>
<rscale>  0 0.70923214E+02</rscale>
<asrwt>0</asrwt>
<pdfrwt beam="2">  1        1 0.11474207E-01 0.70923214E+02</pdfrwt>
<pdfrwt beam="1">  1       -1 0.25939848E-02 0.70923214E+02</pdfrwt>
<totfact> 0.19646391E+05</totfact>
</mgrwt>
</event>
<event>
 5    1  0.1247456E+001  0.9353093E+02  0.7546771E-02  0.1294519E+00
          2   -1    0    0  501    0  0.00000000000E+00  0.00000000000E+00  0.18115486968E+02  0.18115486968E+02  0.00000000000E+00 0. -1.
         -2   -1    0    0    0  501 -0.00000000000E+00 -0.00000000000E+00 -0.12072591658E+03  0.12072591658E+03  0.00000000000E+00 0.  1.
         23    2    1    2    0    0  0.00000000000E+00  0.00000000000E+00 -0.10261042961E+03  0.13884140355E+03  0.93530931108E+02 0.  0.
        -13    1    3    3    0    0  0.42660626080E+02  0.16927035758E+02 -0.64628476501E+02  0.79267228612E+02  0.00000000000E+00 0.  1.
         13    1    3    3    0    0 -0.42660626080E+02 -0.16927035758E+02 -0.37981953110E+02  0.59574174935E+02  0.00000000000E+00 0. -1.
<mgrwt>
<rscale>  0 0.93530931E+02</rscale>
<asrwt>0</asrwt>
<pdfrwt beam="1">  1        2 0.27869979E-02 0.93530931E+02</pdfrwt>
<pdfrwt beam="2">  1       -2 0.18573219E-01 0.93530931E+02</pdfrwt>
<totfact> 0.70600218E+04</totfact>
</mgrwt>
</event>
<event>
 5    1  0.1247456E+001  0.9195814E+02  0.7546771E-02  0.1298178E+00
          2   -1    0    0  501    0  0.00000000000E+00  0.00000000000E+00  0.25051031636E+02  0.25051031636E+02  0.00000000000E+00 0. -1.
         -2   -1    0    0    0  501 -0.00000000000E+00 -0.00000000000E+00 -0.84390726372E+02  0.84390726372E+02  0.00000000000E+00 0.  1.
         23    2    1    2    0    0  0.00000000000E+00  0.00000000000E+00 -0.59339694736E+02  0.10944175801E+03  0.91958137348E+02 0.  0.
        -13    1    3    3    0    0 -0.11169840299E+02  0.12532815669E+02  0.21273072378E+02  0.27099454041E+02  0.00000000000E+00 0. -1.
         13    1    3    3    0    0  0.11169840299E+02 -0.12532815669E+02 -0.80612767114E+02  0.82342303967E+02  0.00000000000E+00 0.  1.
<mgrwt>
<rscale>  0 0.91958137E+02</rscale>
<asrwt>0</asrwt>
<pdfrwt beam="1">  1        2 0.38540048E-02 0.91958137E+02</pdfrwt>
<pdfrwt beam="2">  1       -2 0.12983189E-01 0.91958137E+02</pdfrwt>
<totfact> 0.82076515E+04</totfact>
</mgrwt>
</event>
<event>
 5    1  0.1247456E+001  0.8995611E+02  0.7546771E-02  0.1302958E+00
          1   -1    0    0  501    0  0.00000000000E+00  0.00000000000E+00  0.63486515322E+02  0.63486515322E+02  0.00000000000E+00 0. -1.
         -1   -1    0    0    0  501 -0.00000000000E+00 -0.00000000000E+00 -0.31865434057E+02  0.31865434057E+02  0.00000000000E+00 0.  1.
         23    2    1    2    0    0  0.00000000000E+00  0.00000000000E+00  0.31621081265E+02  0.95351949379E+02  0.89956108575E+02 0.  0.
        -11    1    3    3    0    0 -0.42593238321E+02  0.66428553149E+00  0.50855037663E+00  0.42601453607E+02  0.00000000000E+00 0.  1.
         11    1    3    3    0    0  0.42593238321E+02 -0.66428553149E+00  0.31112530888E+02  0.52750495772E+02  0.00000000000E+00 0. -1.
<mgrwt>
<rscale>  0 0.89956109E+02</rscale>
<asrwt>0</asrwt>
<pdfrwt beam="1">  1        1 0.97671562E-02 0.89956109E+02</pdfrwt>
<pdfrwt beam="2">  1       -1 0.49023745E-02 0.89956109E+02</pdfrwt>
<totfact> 0.10088923E+05</totfact>
</mgrwt>
</event>
<event>
 5    1  0.1247456E+001  0.9944696E+02  0.7546771E-02  0.1281463E+00
          1   -1    0    0  501    0  0.00000000000E+00  0.00000000000E+00  0.10648557284E+03  0.10648557284E+03  0.00000000000E+00 0. -1.
         -1   -1    0    0    0  501 -0.00000000000E+00 -0.00000000000E+00 -0.23218399469E+02  0.23218399469E+02  0.00000000000E+00 0.  1.
         23    2    1    2    0    0  0.00000000000E+00  0.00000000000E+00  0.83267173368E+02  0.12970397231E+03  0.99446962103E+02 0.  0.
        -13    1    3    3    0    0  0.31396635114E+02 -0.30882844422E+02  0.11524670296E+02  0.45522706439E+02  0.00000000000E+00 0.  1.
         13    1    3    3    0    0 -0.31396635114E+02  0.30882844422E+02  0.71742503072E+02  0.84181265868E+02  0.00000000000E+00 0. -1.
<mgrwt>
<rscale>  0 0.99446962E+02</rscale>
<asrwt>0</asrwt>
<pdfrwt beam="1">  1        1 0.16382395E-01 0.99446962E+02</pdfrwt>
<pdfrwt beam="2">  1       -1 0.35720615E-02 0.99446962E+02</pdfrwt>
<totfact> 0.83221236E+04</totfact>
</mgrwt>
</event>
<event>
 5    1  0.1247456E+001  0.1125533E+03  0.7546771E-02  0.1255913E+00
         -3   -1    0    0    0  501 -0.00000000000E+00  0.00000000000E+00  0.45921986858E+02  0.45921986858E+02  0.00000000000E+00 0. -1.
          3   -1    0    0  501    0  0.00000000000E+00 -0.00000000000E+00 -0.68966095208E+02  0.68966095208E+02  0.00000000000E+00 0.  1.
         23    2    1    2    0    0  0.00000000000E+00  0.00000000000E+00 -0.23044108350E+02  0.11488808207E+03  0.11255327837E+03 0.  0.
        -13    1    3    3    0    0  0.50851640283E+02 -0.22155639672E+02 -0.18223848801E+01  0.55498493452E+02  0.00000000000E+00 0. -1.
         13    1    3    3    0    0 -0.50851640283E+02  0.22155639672E+02 -0.21221723470E+02  0.59389588615E+02  0.00000000000E+00 0.  1.
<mgrwt>
<rscale>  0 0.11255328E+03</rscale>
<asrwt>0</asrwt>
<pdfrwt beam="2">  1        3 0.10610169E-01 0.11255328E+03</pdfrwt>
<pdfrwt beam="1">  1       -3 0.70649210E-02 0.11255328E+03</pdfrwt>
<totfact> 0.18812041E+04</totfact>
</mgrwt>
</event>
<event>
 5    1  0.1247456E+001  0.9330285E+02  0.7546771E-02  0.1295045E+00
          1   -1    0    0  501    0  0.00000000000E+00  0.00000000000E+00  0.21430197696E+02  0.21430197696E+02  0.00000000000E+00 0. -1.
         -1   -1    0    0    0  501 -0.00000000000E+00 -0.00000000000E+00 -0.10155555249E+03  0.10155555249E+03  0.00000000000E+00 0.  1.
         23    2    1    2    0    0  0.00000000000E+00  0.00000000000E+00 -0.80125354792E+02  0.12298575018E+03  0.93302852410E+02 0.  0.
        -13    1    3    3    0    0  0.23280808166E+02 -0.29458972812E+02 -0.76556891477E+02  0.85268896677E+02  0.00000000000E+00 0.  1.
         13    1    3    3    0    0 -0.23280808166E+02  0.29458972812E+02 -0.35684633154E+01  0.37716853507E+02  0.00000000000E+00 0. -1.
<mgrwt>
<rscale>  0 0.93302852E+02</rscale>
<asrwt>0</asrwt>
<pdfrwt beam="1">  1        1 0.32969535E-02 0.93302852E+02</pdfrwt>
<pdfrwt beam="2">  1       -1 0.15623931E-01 0.93302852E+02</pdfrwt>
<totfact> 0.76452899E+04</totfact>
</mgrwt>
</event>
<event>
 5    1  0.1247456E+001  0.8615200E+02  0.7546771E-02  0.1312447E+00
          1   -1    0    0  501    0  0.00000000000E+00  0.00000000000E+00  0.17496752664E+03  0.17496752664E+03  0.00000000000E+00 0. -1.
         -1   -1    0    0    0  501 -0.00000000000E+00 -0.00000000000E+00 -0.10605062927E+02  0.10605062927E+02  0.00000000000E+00 0.  1.
         23    2    1    2    0    0  0.00000000000E+00  0.00000000000E+00  0.16436246371E+03  0.18557258957E+03  0.86151996614E+02 0.  0.
        -13    1    3    3    0    0 -0.23493116221E+02  0.35972386331E+02  0.75506380645E+02  0.86874349530E+02  0.00000000000E+00 0. -1.
         13    1    3    3    0    0  0.23493116221E+02 -0.35972386331E+02  0.88856083069E+02  0.98698240037E+02  0.00000000000E+00 0.  1.
<mgrwt>
<rscale>  0 0.86151997E+02</rscale>
<asrwt>0</asrwt>
<pdfrwt beam="1">  1        1 0.26918079E-01 0.86151997E+02</pdfrwt>
<pdfrwt beam="2">  1       -1 0.16315483E-02 0.86151997E+02</pdfrwt>
<totfact> 0.13432258E+05</totfact>
</mgrwt>
</event>
<event>
 5    1  0.1247456E+001  0.8963723E+02  0.7546771E-02  0.1303733E+00
         -1   -1    0    0    0  501 -0.00000000000E+00  0.00000000000E+00  0.34844170072E+02  0.34844170072E+02  0.00000000000E+00 0.  1.
          1   -1    0    0  501    0  0.00000000000E+00 -0.00000000000E+00 -0.57648325242E+02  0.57648325242E+02  0.00000000000E+00 0. -1.
         23    2    1    2    0    0  0.00000000000E+00  0.00000000000E+00 -0.22804155170E+02  0.92492495314E+02  0.89637225505E+02 0.  0.
        -11    1    3    3    0    0  0.14251690128E+02 -0.34916143303E+02  0.13586262335E+02  0.40085337206E+02  0.00000000000E+00 0.  1.
         11    1    3    3    0    0 -0.14251690128E+02  0.34916143303E+02 -0.36390417505E+02  0.52407158107E+02  0.00000000000E+00 0. -1.
<mgrwt>
<rscale>  0 0.89637226E+02</rscale>
<asrwt>0</asrwt>
<pdfrwt beam="2">  1        1 0.88689731E-02 0.89637226E+02</pdfrwt>
<pdfrwt beam="1">  1       -1 0.53606416E-02 0.89637226E+02</pdfrwt>
<totfact> 0.10042202E+05</totfact>
</mgrwt>
</event>
<event>
 5    1  0.1247456E+001  0.9157835E+02  0.7546771E-02  0.1299074E+00
          3   -1    0    0  501    0  0.00000000000E+00  0.00000000000E+00  0.12385711164E+03  0.12385711164E+03  0.00000000000E+00 0. -1.
         -3   -1    0    0    0  501 -0.00000000000E+00 -0.00000000000E+00 -0.16927961497E+02  0.16927961497E+02  0.00000000000E+00 0.  1.
         23    2    1    2    0    0  0.00000000000E+00  0.00000000000E+00  0.10692915014E+03  0.14078507313E+03  0.91578347154E+02 0.  0.
        -11    1    3    3    0    0  0.26954769367E+02  0.59752703877E+00 -0.34314042395E+01  0.27178873509E+02  0.00000000000E+00 0.  1.
         11    1    3    3    0    0 -0.26954769367E+02 -0.59752703877E+00  0.11036055438E+03  0.11360619962E+03  0.00000000000E+00 0. -1.
<mgrwt>
<rscale>  0 0.91578347E+02</rscale>
<asrwt>0</asrwt>
<pdfrwt beam="1">  1        3 0.19054940E-01 0.91578347E+02</pdfrwt>
<pdfrwt beam="2">  1       -3 0.26043018E-02 0.91578347E+02</pdfrwt>
<totfact> 0.31502343E+04</totfact>
</mgrwt>
</event>
<event>
 5    1  0.1247456E+001  0.9097911E+02  0.7546771E-02  0.1300498E+00
          3   -1    0    0  501    0  0.00000000000E+00  0.00000000000E+00  0.19994532255E+03  0.19994532255E+03  0.00000000000E+00 0. -1.
         -3   -1    0    0    0  501 -0.00000000000E+00 -0.00000000000E+00 -0.10349326585E+02  0.10349326585E+02  0.00000000000E+00 0.  1.
         23    2    1    2    0    0  0.00000000000E+00  0.00000000000E+00  0.18959599596E+03  0.21029464913E+03  0.90979106222E+02 0.  0.
        -11    1    3    3    0    0 -0.36989431106E+02 -0.21486165077E+02  0.13056415983E+03  0.13739313350E+03  0.00000000000E+00 0.  1.
         11    1    3    3    0    0  0.36989431106E+02  0.21486165077E+02  0.59031836137E+02  0.72901515629E+02  0.00000000000E+00 0. -1.
<mgrwt>
<rscale>  0 0.90979106E+02</rscale>
<asrwt>0</asrwt>
<pdfrwt beam="1">  1        3 0.30760816E-01 0.90979106E+02</pdfrwt>
<pdfrwt beam="2">  1       -3 0.15922043E-02 0.90979106E+02</pdfrwt>
<totfact> 0.28139282E+04</totfact>
</mgrwt>
</event>
<event>
 5    1  0.1247456E+001  0.8609312E+02  0.7546771E-02  0.1312598E+00
         -3   -1    0    0    0  501 -0.00000000000E+00  0.00000000000E+00  0.29186589874E+02  0.29186589874E+02  0.00000000000E+00 0.  1.
          3   -1    0    0  501    0  0.00000000000E+00 -0.00000000000E+00 -0.63488280720E+02  0.63488280720E+02  0.00000000000E+00 0. -1.
         23    2    1    2    0    0  0.00000000000E+00  0.00000000000E+00 -0.34301690846E+02  0.92674870595E+02  0.86093121937E+02 0.  0.
        -13    1    3    3    0    0 -0.39586417213E+02 -0.16024293979E+02 -0.22962074638E+02  0.48488341867E+02  0.00000000000E+00 0.  1.
         13    1    3    3    0    0  0.39586417213E+02  0.16024293979E+02 -0.11339616208E+02  0.44186528728E+02  0.00000000000E+00 0. -1.
<mgrwt>
<rscale>  0 0.86093122E+02</rscale>
<asrwt>0</asrwt>
<pdfrwt beam="2">  1        3 0.97674277E-02 0.86093122E+02</pdfrwt>
<pdfrwt beam="1">  1       -3 0.44902447E-02 0.86093122E+02</pdfrwt>
<totfact> 0.41150300E+04</totfact>
</mgrwt>
</event>
<event>
 5    1  0.1247456E+001  0.9242171E+02  0.7546771E-02  0.1297091E+00
          1   -1    0    0  501    0  0.00000000000E+00  0.00000000000E+00  0.14580026024E+03  0.14580026024E+03  0.00000000000E+00 0. -1.
         -1   -1    0    0    0  501 -0.00000000000E+00 -0.00000000000E+00 -0.14646358750E+02  0.14646358750E+02  0.00000000000E+00 0.  1.
         23    2    1    2    0    0  0.00000000000E+00  0.00000000000E+00  0.13115390149E+03  0.16044661899E+03  0.92421705620E+02 0.  0.
        -13    1    3    3    0    0  0.34275150386E+02  0.42073807548E+01  0.11888613767E+03  0.12379984538E+03  0.00000000000E+00 0. -1.
         13    1    3    3    0    0 -0.34275150386E+02 -0.42073807548E+01  0.12267763821E+02  0.36646773609E+02  0.00000000000E+00 0.  1.
<mgrwt>
<rscale>  0 0.92421706E+02</rscale>
<asrwt>0</asrwt>
<pdfrwt beam="1">  1        1 0.22430808E-01 0.92421706E+02</pdfrwt>
<pdfrwt beam="2">  1       -1 0.22532861E-02 0.92421706E+02</pdfrwt>
<totfact> 0.10753432E+05</totfact>
</mgrwt>
</event>
<event>
 5    1  0.1247456E+001  0.9449531E+02  0.7546771E-02  0.1292317E+00
         -2   -1    0    0    0  501 -0.00000000000E+00  0.00000000000E+00  0.81564505923E+02  0.81564505923E+02  0.00000000000E+00 0.  1.
          2   -1    0    0  501    0  0.00000000000E+00 -0.00000000000E+00 -0.27369025177E+02  0.27369025177E+02  0.00000000000E+00 0. -1.
         23    2    1    2    0    0  0.00000000000E+00  0.00000000000E+00  0.54195480746E+02  0.10893353110E+03  0.94495312395E+02 0.  0.
        -13    1    3    3    0    0  0.36460187673E+01 -0.27606618118E+02 -0.16903963796E+02  0.32575493992E+02  0.00000000000E+00 0. -1.
         13    1    3    3    0    0 -0.36460187673E+01  0.27606618118E+02  0.71099444543E+02  0.76358037108E+02  0.00000000000E+00 0.  1.
<mgrwt>
<rscale>  0 0.94495312E+02</rscale>
<asrwt>0</asrwt>
<pdfrwt beam="2">  1        2 0.42106193E-02 0.94495312E+02</pdfrwt>
<pdfrwt beam="1">  1       -2 0.12548385E-01 0.94495312E+02</pdfrwt>
<totfact> 0.77498615E+04</totfact>
</mgrwt>
</event>
<event>
 5    1  0.1247456E+001  0.9135009E+02  0.7546771E-02  0.1299615E+00
          1   -1    0    0  501    0  0.00000000000E+00  0.00000000000E+00  0.12870775465E+02  0.12870775465E+02  0.00000000000E+00 0. -1.
         -1   -1    0    0    0  501 -0.00000000000E+00 -0.00000000000E+00 -0.16208888556E+03  0.16208888556E+03  0.00000000000E+00 0.  1.
         23    2    1    2    0    0  0.00000000000E+00  0.00000000000E+00 -0.14921811010E+03  0.17495966103E+03  0.91350088154E+02 0.  0.
        -13    1    3    3    0    0 -0.32841224020E+02 -0.30844137902E+02 -0.88980287235E+02  0.99736644993E+02  0.00000000000E+00 0.  1.
         13    1    3    3    0    0  0.32841224020E+02  0.30844137902E+02 -0.60237822864E+02  0.75223016035E+02  0.00000000000E+00 0. -1.
<mgrwt>
<rscale>  0 0.91350088E+02</rscale>
<asrwt>0</asrwt>
<pdfrwt beam="1">  1        1 0.19801193E-02 0.91350088E+02</pdfrwt>
<pdfrwt beam="2">  1       -1 0.24936751E-01 0.91350088E+02</pdfrwt>
<totfact> 0.73047671E+04</totfact>
</mgrwt>
</event>
<event>
 5    1  0.1247456E+001  0.9257713E+02  0.7546771E-02  0.1296728E+00
         -3   -1    0    0    0  501 -0.00000000000E+00  0.00000000000E+00  0.86127409931E+01  0.86127409931E+01  0.00000000000E+00 0.  1.
          3   -1    0    0  501    0  0.00000000000E+00 -0.00000000000E+00 -0.24877459411E+03  0.24877459411E+03  0.00000000000E+00 0. -1.
         23    2    1    2    0    0  0.00000000000E+00  0.00000000000E+00 -0.24016185311E+03  0.25738733510E+03  0.92577127730E+02 0.  0.
        -11    1    3    3    0    0 -0.34221049941E+02 -0.11682493361E+02 -0.39738494733E+02  0.53728101342E+02  0.00000000000E+00 0.  1.
         11    1    3    3    0    0  0.34221049941E+02  0.11682493361E+02 -0.20042335838E+03  0.20365923376E+03  0.00000000000E+00 0. -1.
<mgrwt>
<rscale>  0 0.92577128E+02</rscale>
<asrwt>0</asrwt>
<pdfrwt beam="2">  1        3 0.38273017E-01 0.92577128E+02</pdfrwt>
<pdfrwt beam="1">  1       -3 0.13250370E-02 0.92577128E+02</pdfrwt>
<totfact> 0.24741732E+04</totfact>
</mgrwt>
</event>
<event>
 5    1  0.1247456E+001  0.9097546E+02  0.7546771E-02  0.1300507E+00
          1   -1    0    0  501    0  0.00000000000E+00  0.00000000000E+00  0.25744448090E+02  0.25744448090E+02  0.00000000000E+00 0. -1.
         -1   -1    0    0    0  501 -0.00000000000E+00 -0.00000000000E+00 -0.80372025335E+02  0.80372025335E+02  0.00000000000E+00 0.  1.
         23    2    1    2    0    0  0.00000000000E+00  0.00000000000E+00 -0.54627577245E+02  0.10611647342E+03  0.90975456781E+02 0.  0.
        -13    1    3    3    0    0  0.35307150654E+02  0.27903517009E+02 -0.35045051880E+02  0.57038204828E+02  0.00000000000E+00 0. -1.
         13    1    3    3    0    0 -0.35307150654E+02 -0.27903517009E+02 -0.19582525364E+02  0.49078268596E+02  0.00000000000E+00 0.  1.
<mgrwt>
<rscale>  0 0.90975457E+02</rscale>
<asrwt>0</asrwt>
<pdfrwt beam="1">  1        1 0.39606843E-02 0.90975457E+02</pdfrwt>
<pdfrwt beam="2">  1       -1 0.12364927E-01 0.90975457E+02</pdfrwt>
<totfact> 0.85064594E+04</totfact>
</mgrwt>
</event>
<event>
 5    1  0.1247456E+001  0.9196881E+02  0.7546771E-02  0.1298153E+00
          3   -1    0    0  501    0  0.00000000000E+00  0.00000000000E+00  0.12657547740E+03  0.12657547740E+03  0.00000000000E+00 0. -1.
         -3   -1    0    0    0  501 -0.00000000000E+00 -0.00000000000E+00 -0.16705965914E+02  0.16705965914E+02  0.00000000000E+00 0.  1.
         23    2    1    2    0    0  0.00000000000E+00  0.00000000000E+00  0.10986951149E+03  0.14328144331E+03  0.91968812344E+02 0.  0.
        -11    1    3    3    0    0  0.24161994542E+02 -0.33692158919E+01 -0.57929882549E+01  0.25074136255E+02  0.00000000000E+00 0.  1.
         11    1    3    3    0    0 -0.24161994542E+02  0.33692158919E+01  0.11566249974E+03  0.11820730706E+03  0.00000000000E+00 0. -1.
<mgrwt>
<rscale>  0 0.91968812E+02</rscale>
<asrwt>0</asrwt>
<pdfrwt beam="1">  1        3 0.19473150E-01 0.91968812E+02</pdfrwt>
<pdfrwt beam="2">  1       -3 0.25701487E-02 0.91968812E+02</pdfrwt>
<totfact> 0.30986875E+04</totfact>
</mgrwt>
</event>
<event>
 5    1  0.1247456E+001  0.9027478E+02  0.7546771E-02  0.1302188E+00
         -1   -1    0    0    0  501 -0.00000000000E+00  0.00000000000E+00  0.10459939321E+03  0.10459939321E+03  0.00000000000E+00 0.  1.
          1   -1    0    0  501    0  0.00000000000E+00 -0.00000000000E+00 -0.19477969460E+02  0.19477969460E+02  0.00000000000E+00 0. -1.
         23    2    1    2    0    0  0.00000000000E+00  0.00000000000E+00  0.85121423747E+02  0.12407736267E+03  0.90274775800E+02 0.  0.
        -11    1    3    3    0    0 -0.20855778478E+02 -0.29232780372E+02  0.49737092917E+01  0.36252678912E+02  0.00000000000E+00 0. -1.
         11    1    3    3    0    0  0.20855778478E+02  0.29232780372E+02  0.80147714455E+02  0.87824683755E+02  0.00000000000E+00 0.  1.
<mgrwt>
<rscale>  0 0.90274776E+02</rscale>
<asrwt>0</asrwt>
<pdfrwt beam="2">  1        1 0.29966107E-02 0.90274776E+02</pdfrwt>
<pdfrwt beam="1">  1       -1 0.16092214E-01 0.90274776E+02</pdfrwt>
<totfact> 0.82778522E+04</totfact>
</mgrwt>
</event>
<event>
 5    1  0.1247456E+001  0.9314400E+02  0.7546771E-02  0.1295412E+00
         -2   -1    0    0    0  501 -0.00000000000E+00  0.00000000000E+00  0.18960529223E+02  0.18960529223E+02  0.00000000000E+00 0. -1.
          2   -1    0    0  501    0  0.00000000000E+00 -0.00000000000E+00 -0.11439295979E+03  0.11439295979E+03  0.00000000000E+00 0.  1.
         23    2    1    2    0    0  0.00000000000E+00  0.00000000000E+00 -0.95432430570E+02  0.13335348902E+03  0.93143997276E+02 0.  0.
        -11    1    3    3    0    0  0.41452324941E+02  0.39147258216E+01 -0.17844567726E+02  0.45299546561E+02  0.00000000000E+00 0. -1.
         11    1    3    3    0    0 -0.41452324941E+02 -0.39147258216E+01 -0.77587862844E+02  0.88053942456E+02  0.00000000000E+00 0.  1.
<mgrwt>
<rscale>  0 0.93143997E+02</rscale>
<asrwt>0</asrwt>
<pdfrwt beam="2">  1        2 0.17598917E-01 0.93143997E+02</pdfrwt>
<pdfrwt beam="1">  1       -2 0.29170046E-02 0.93143997E+02</pdfrwt>
<totfact> 0.12062310E+05</totfact>
</mgrwt>
</event>
<event>
 5    1  0.1247456E+001  0.8652915E+02  0.7546771E-02  0.1311481E+00
         -1   -1    0    0    0  501 -0.00000000000E+00  0.00000000000E+00  0.66004129922E+01  0.66004129922E+01  0.00000000000E+00 0.  1.
          1   -1    0    0  501    0  0.00000000000E+00 -0.00000000000E+00 -0.28359188282E+03  0.28359188282E+03  0.00000000000E+00 0. -1.
         23    2    1    2    0    0  0.00000000000E+00  0.00000000000E+00 -0.27699146983E+03  0.29019229582E+03  0.86529152264E+02 0.  0.
        -13    1    3    3    0    0  0.37401387142E+02  0.13614091219E+02 -0.81619585944E+02  0.90807290729E+02  0.00000000000E+00 0.  1.
         13    1    3    3    0    0 -0.37401387142E+02 -0.13614091219E+02 -0.19537188389E+03  0.19938500509E+03  0.00000000000E+00 0. -1.
<mgrwt>
<rscale>  0 0.86529152E+02</rscale>
<asrwt>0</asrwt>
<pdfrwt beam="2">  1        1 0.43629511E-01 0.86529152E+02</pdfrwt>
<pdfrwt beam="1">  1       -1 0.10154484E-02 0.86529152E+02</pdfrwt>
<totfact> 0.14565531E+05</totfact>
</mgrwt>
</event>
<event>
 5    1  0.1247456E+001  0.7980672E+02  0.7546771E-02  0.1329601E+00
         -2   -1    0    0    0  501 -0.00000000000E+00  0.00000000000E+00  0.14659100138E+02  0.14659100138E+02  0.00000000000E+00 0.  1.
          2   -1    0    0  501    0  0.00000000000E+00 -0.00000000000E+00 -0.10862045247E+03  0.10862045247E+03  0.00000000000E+00 0. -1.
         23    2    1    2    0    0  0.00000000000E+00  0.00000000000E+00 -0.93961352334E+02  0.12327955261E+03  0.79806718760E+02 0.  0.
        -13    1    3    3    0    0 -0.37462471520E+02 -0.12585554908E+02 -0.38457323158E+02  0.55143437227E+02  0.00000000000E+00 0. -1.
         13    1    3    3    0    0  0.37462471520E+02  0.12585554908E+02 -0.55504029176E+02  0.68136115383E+02  0.00000000000E+00 0.  1.
<mgrwt>
<rscale>  0 0.79806719E+02</rscale>
<asrwt>0</asrwt>
<pdfrwt beam="2">  1        2 0.16710839E-01 0.79806719E+02</pdfrwt>
<pdfrwt beam="1">  1       -2 0.22552462E-02 0.79806719E+02</pdfrwt>
<totfact> 0.18071074E+05</totfact>
</mgrwt>
</event>
<event>
 5    1  0.1247456E+001  0.9260074E+02  0.7546771E-02  0.1296673E+00
          1   -1    0    0  501    0  0.00000000000E+00  0.00000000000E+00  0.13687831024E+03  0.13687831024E+03  0.00000000000E+00 0. -1.
         -1   -1    0    0    0  501 -0.00000000000E+00 -0.00000000000E+00 -0.15661535174E+02  0.15661535174E+02  0.00000000000E+00 0.  1.
         23    2    1    2    0    0  0.00000000000E+00  0.00000000000E+00  0.12121677506E+03  0.15253984541E+03  0.92600744499E+02 0.  0.
        -13    1    3    3    0    0  0.23646429018E+02 -0.19309389236E+02  0.11794996899E+03  0.12183678140E+03  0.00000000000E+00 0. -1.
         13    1    3    3    0    0 -0.23646429018E+02  0.19309389236E+02  0.32668060795E+01  0.30703064015E+02  0.00000000000E+00 0.  1.
<mgrwt>
<rscale>  0 0.92600744E+02</rscale>
<asrwt>0</asrwt>
<pdfrwt beam="1">  1        1 0.21058201E-01 0.92600744E+02</pdfrwt>
<pdfrwt beam="2">  1       -1 0.24094670E-02 0.92600744E+02</pdfrwt>
<totfact> 0.10574765E+05</totfact>
</mgrwt>
</event>
<event>
 5    1  0.1247456E+001  0.8984170E+02  0.7546771E-02  0.1303235E+00
          1   -1    0    0  501    0  0.00000000000E+00  0.00000000000E+00  0.51619470645E+02  0.51619470645E+02  0.00000000000E+00 0. -1.
         -1   -1    0    0    0  501 -0.00000000000E+00 -0.00000000000E+00 -0.39091504929E+02  0.39091504929E+02  0.00000000000E+00 0.  1.
         23    2    1    2    0    0  0.00000000000E+00  0.00000000000E+00  0.12527965716E+02  0.90710975574E+02  0.89841700588E+02 0.  0.
        -11    1    3    3    0    0 -0.96728326380E+01 -0.40912957755E+02 -0.97147197565E+01  0.43148691561E+02  0.00000000000E+00 0.  1.
         11    1    3    3    0    0  0.96728326380E+01  0.40912957755E+02  0.22242685473E+02  0.47562284013E+02  0.00000000000E+00 0. -1.
<mgrwt>
<rscale>  0 0.89841701E+02</rscale>
<asrwt>0</asrwt>
<pdfrwt beam="1">  1        1 0.79414570E-02 0.89841701E+02</pdfrwt>
<pdfrwt beam="2">  1       -1 0.60140777E-02 0.89841701E+02</pdfrwt>
<totfact> 0.98165778E+04</totfact>
</mgrwt>
</event>
<event>
 5    1  0.1247456E+001  0.8732583E+02  0.7546771E-02  0.1309460E+00
          3   -1    0    0  501    0  0.00000000000E+00  0.00000000000E+00  0.90521377667E+01  0.90521377667E+01  0.00000000000E+00 0.  1.
         -3   -1    0    0    0  501 -0.00000000000E+00 -0.00000000000E+00 -0.21060773003E+03  0.21060773003E+03  0.00000000000E+00 0. -1.
         23    2    1    2    0    0  0.00000000000E+00  0.00000000000E+00 -0.20155559226E+03  0.21965986779E+03  0.87325830930E+02 0.  0.
        -13    1    3    3    0    0  0.21886278102E+01 -0.33125190730E+02 -0.17211878390E+03  0.17529102694E+03  0.00000000000E+00 0. -1.
         13    1    3    3    0    0 -0.21886278102E+01  0.33125190730E+02 -0.29436808356E+02  0.44368840855E+02  0.00000000000E+00 0.  1.
<mgrwt>
<rscale>  0 0.87325831E+02</rscale>
<asrwt>0</asrwt>
<pdfrwt beam="1">  1        3 0.13926366E-02 0.87325831E+02</pdfrwt>
<pdfrwt beam="2">  1       -3 0.32401189E-01 0.87325831E+02</pdfrwt>
<totfact> 0.30889732E+04</totfact>
</mgrwt>
</event>
<event>
 5    1  0.1247456E+001  0.9108040E+02  0.7546771E-02  0.1300256E+00
          1   -1    0    0  501    0  0.00000000000E+00  0.00000000000E+00  0.23692038109E+03  0.23692038109E+03  0.00000000000E+00 0. -1.
         -1   -1    0    0    0  501 -0.00000000000E+00 -0.00000000000E+00 -0.87536146338E+01  0.87536146338E+01  0.00000000000E+00 0.  1.
         23    2    1    2    0    0  0.00000000000E+00  0.00000000000E+00  0.22816676645E+03  0.24567399572E+03  0.91080397780E+02 0.  0.
        -13    1    3    3    0    0  0.16193489246E+02  0.34860104379E+02  0.17995869067E+03  0.18401789674E+03  0.00000000000E+00 0. -1.
         13    1    3    3    0    0 -0.16193489246E+02 -0.34860104379E+02  0.48208075778E+02  0.61656098980E+02  0.00000000000E+00 0.  1.
<mgrwt>
<rscale>  0 0.91080398E+02</rscale>
<asrwt>0</asrwt>
<pdfrwt beam="1">  1        1 0.36449285E-01 0.91080398E+02</pdfrwt>
<pdfrwt beam="2">  1       -1 0.13467101E-02 0.91080398E+02</pdfrwt>
<totfact> 0.12272809E+05</totfact>
</mgrwt>
</event>
<event>
 5    1  0.1247456E+001  0.8931274E+02  0.7546771E-02  0.1304525E+00
          3   -1    0    0  501    0  0.00000000000E+00  0.00000000000E+00  0.17604509154E+02  0.17604509154E+02  0.00000000000E+00 0. -1.
         -3   -1    0    0    0  501 -0.00000000000E+00 -0.00000000000E+00 -0.11327730113E+03  0.11327730113E+03  0.00000000000E+00 0.  1.
         23    2    1    2    0    0  0.00000000000E+00  0.00000000000E+00 -0.95672791978E+02  0.13088181028E+03  0.89312737830E+02 0.  0.
        -11    1    3    3    0    0  0.43272277173E+02 -0.10712575147E+02 -0.51697483588E+02  0.68263306742E+02  0.00000000000E+00 0. -1.
         11    1    3    3    0    0 -0.43272277173E+02  0.10712575147E+02 -0.43975308390E+02  0.62618503543E+02  0.00000000000E+00 0.  1.
<mgrwt>
<rscale>  0 0.89312738E+02</rscale>
<asrwt>0</asrwt>
<pdfrwt beam="1">  1        3 0.27083861E-02 0.89312738E+02</pdfrwt>
<pdfrwt beam="2">  1       -3 0.17427277E-01 0.89312738E+02</pdfrwt>
<totfact> 0.34388657E+04</totfact>
</mgrwt>
</event>
<event>
 5    1  0.1247456E+001  0.9284780E+02  0.7546771E-02  0.1296098E+00
          3   -1    0    0  501    0  0.00000000000E+00  0.00000000000E+00  0.97534023766E+02  0.97534023766E+02  0.00000000000E+00 0. -1.
         -3   -1    0    0    0  501 -0.00000000000E+00 -0.00000000000E+00 -0.22096685632E+02  0.22096685632E+02  0.00000000000E+00 0.  1.
         23    2    1    2    0    0  0.00000000000E+00  0.00000000000E+00  0.75437338134E+02  0.11963070940E+03  0.92847803671E+02 0.  0.
        -11    1    3    3    0    0  0.43921869247E+00  0.35714402054E+02 -0.49166856313E+00  0.35720486630E+02  0.00000000000E+00 0.  1.
         11    1    3    3    0    0 -0.43921869247E+00 -0.35714402054E+02  0.75929006697E+02  0.83910222769E+02  0.00000000000E+00 0. -1.
<mgrwt>
<rscale>  0 0.92847804E+02</rscale>
<asrwt>0</asrwt>
<pdfrwt beam="1">  1        3 0.15005234E-01 0.92847804E+02</pdfrwt>
<pdfrwt beam="2">  1       -3 0.33994902E-02 0.92847804E+02</pdfrwt>
<totfact> 0.31666175E+04</totfact>
</mgrwt>
</event>
<event>
 5    1  0.1247456E+001  0.8922036E+02  0.7546771E-02  0.1304751E+00
         -2   -1    0    0    0  501 -0.00000000000E+00  0.00000000000E+00  0.21723514567E+02  0.21723514567E+02  0.00000000000E+00 0.  1.
          2   -1    0    0  501    0  0.00000000000E+00 -0.00000000000E+00 -0.91608948444E+02  0.91608948444E+02  0.00000000000E+00 0. -1.
         23    2    1    2    0    0  0.00000000000E+00  0.00000000000E+00 -0.69885433877E+02  0.11333246301E+03  0.89220363730E+02 0.  0.
        -11    1    3    3    0    0  0.34741242906E+02 -0.27951792506E+02 -0.33232980931E+02  0.55611938327E+02  0.00000000000E+00 0. -1.
         11    1    3    3    0    0 -0.34741242906E+02  0.27951792506E+02 -0.36652452946E+02  0.57720524685E+02  0.00000000000E+00 0.  1.
<mgrwt>
<rscale>  0 0.89220364E+02</rscale>
<asrwt>0</asrwt>
<pdfrwt beam="2">  1        2 0.14093684E-01 0.89220364E+02</pdfrwt>
<pdfrwt beam="1">  1       -2 0.33420792E-02 0.89220364E+02</pdfrwt>
<totfact> 0.12684545E+05</totfact>
</mgrwt>
</event>
<event>
 5    1  0.1247456E+001  0.8531204E+02  0.7546771E-02  0.1314619E+00
         -1   -1    0    0    0  501 -0.00000000000E+00  0.00000000000E+00  0.56976657438E+01  0.56976657438E+01  0.00000000000E+00 0.  1.
          1   -1    0    0  501    0  0.00000000000E+00 -0.00000000000E+00 -0.31934761309E+03  0.31934761309E+03  0.00000000000E+00 0. -1.
         23    2    1    2    0    0  0.00000000000E+00  0.00000000000E+00 -0.31364994735E+03  0.32504527884E+03  0.85312037966E+02 0.  0.
        -13    1    3    3    0    0 -0.41796218244E+02 -0.66800008901E+01 -0.17698228226E+03  0.18197327964E+03  0.00000000000E+00 0. -1.
         13    1    3    3    0    0  0.41796218244E+02  0.66800008901E+01 -0.13666766509E+03  0.14307199919E+03  0.00000000000E+00 0.  1.
<mgrwt>
<rscale>  0 0.85312038E+02</rscale>
<asrwt>0</asrwt>
<pdfrwt beam="2">  1        1 0.49130395E-01 0.85312038E+02</pdfrwt>
<pdfrwt beam="1">  1       -1 0.87656409E-03 0.85312038E+02</pdfrwt>
<totfact> 0.15463899E+05</totfact>
</mgrwt>
</event>
<event>
 5    1  0.1247456E+001  0.9527251E+02  0.7546771E-02  0.1290564E+00
         -2   -1    0    0    0  501 -0.00000000000E+00  0.00000000000E+00  0.19187068713E+03  0.19187068713E+03  0.00000000000E+00 0. -1.
          2   -1    0    0  501    0  0.00000000000E+00 -0.00000000000E+00 -0.11826782353E+02  0.11826782353E+02  0.00000000000E+00 0.  1.
         23    2    1    2    0    0  0.00000000000E+00  0.00000000000E+00  0.18004390478E+03  0.20369746948E+03  0.95272511389E+02 0.  0.
        -13    1    3    3    0    0 -0.34974959676E+02  0.31830282884E+02  0.10226649743E+03  0.11267143032E+03  0.00000000000E+00 0.  1.
         13    1    3    3    0    0  0.34974959676E+02 -0.31830282884E+02  0.77777407350E+02  0.91026039169E+02  0.00000000000E+00 0. -1.
<mgrwt>
<rscale>  0 0.95272511E+02</rscale>
<asrwt>0</asrwt>
<pdfrwt beam="2">  1        2 0.18195051E-02 0.95272511E+02</pdfrwt>
<pdfrwt beam="1">  1       -2 0.29518565E-01 0.95272511E+02</pdfrwt>
<totfact> 0.56700447E+04</totfact>
</mgrwt>
</event>
<event>
 5    1  0.1247456E+001  0.9024499E+02  0.7546771E-02  0.1302259E+00
         -1   -1    0    0    0  501 -0.00000000000E+00  0.00000000000E+00  0.27247911302E+02  0.27247911302E+02  0.00000000000E+00 0.  1.
          1   -1    0    0  501    0  0.00000000000E+00 -0.00000000000E+00 -0.74722781515E+02  0.74722781515E+02  0.00000000000E+00 0. -1.
         23    2    1    2    0    0  0.00000000000E+00  0.00000000000E+00 -0.47474870213E+02  0.10197069282E+03  0.90244993722E+02 0.  0.
        -13    1    3    3    0    0  0.36442195454E+02 -0.26440694218E+02 -0.20367319321E+02  0.49416309217E+02  0.00000000000E+00 0. -1.
         13    1    3    3    0    0 -0.36442195454E+02  0.26440694218E+02 -0.27107550891E+02  0.52554383600E+02  0.00000000000E+00 0.  1.
<mgrwt>
<rscale>  0 0.90244994E+02</rscale>
<asrwt>0</asrwt>
<pdfrwt beam="2">  1        1 0.11495812E-01 0.90244994E+02</pdfrwt>
<pdfrwt beam="1">  1       -1 0.41919864E-02 0.90244994E+02</pdfrwt>
<totfact> 0.10252488E+05</totfact>
</mgrwt>
</event>
<event>
 5    1  0.1247456E+001  0.9453171E+02  0.7546771E-02  0.1292234E+00
         -1   -1    0    0    0  501 -0.00000000000E+00  0.00000000000E+00  0.35394379523E+03  0.35394379523E+03  0.00000000000E+00 0.  1.
          1   -1    0    0  501    0  0.00000000000E+00 -0.00000000000E+00 -0.63119087577E+01  0.63119087577E+01  0.00000000000E+00 0. -1.
         23    2    1    2    0    0  0.00000000000E+00  0.00000000000E+00  0.34763188647E+03  0.36025570399E+03  0.94531707714E+02 0.  0.
        -11    1    3    3    0    0  0.11480054158E+02 -0.44834493795E+02  0.21039659916E+03  0.21542667526E+03  0.00000000000E+00 0.  1.
         11    1    3    3    0    0 -0.11480054158E+02  0.44834493795E+02  0.13723528731E+03  0.14482902872E+03  0.00000000000E+00 0. -1.
<mgrwt>
<rscale>  0 0.94531708E+02</rscale>
<asrwt>0</asrwt>
<pdfrwt beam="2">  1        1 0.97106316E-03 0.94531708E+02</pdfrwt>
<pdfrwt beam="1">  1       -1 0.54452876E-01 0.94531708E+02</pdfrwt>
<totfact> 0.51392322E+04</totfact>
</mgrwt>
</event>
<event>
 5    1  0.1247456E+001  0.9040226E+02  0.7546771E-02  0.1301880E+00
         -4   -1    0    0    0  501 -0.00000000000E+00  0.00000000000E+00  0.13156605632E+03  0.13156605632E+03  0.00000000000E+00 0.  1.
          4   -1    0    0  501    0  0.00000000000E+00 -0.00000000000E+00 -0.15529401762E+02  0.15529401762E+02  0.00000000000E+00 0. -1.
         23    2    1    2    0    0  0.00000000000E+00  0.00000000000E+00  0.11603665456E+03  0.14709545808E+03  0.90402259856E+02 0.  0.
        -13    1    3    3    0    0 -0.17789451088E+02  0.27778779907E+02  0.10830182956E+03  0.11321400739E+03  0.00000000000E+00 0.  1.
         13    1    3    3    0    0  0.17789451088E+02 -0.27778779907E+02  0.77348249961E+01  0.33881450690E+02  0.00000000000E+00 0. -1.
<mgrwt>
<rscale>  0 0.90402260E+02</rscale>
<asrwt>0</asrwt>
<pdfrwt beam="2">  1        4 0.23891388E-02 0.90402260E+02</pdfrwt>
<pdfrwt beam="1">  1       -4 0.20240931E-01 0.90402260E+02</pdfrwt>
<totfact> 0.24372034E+04</totfact>
</mgrwt>
</event>
<event>
 5    1  0.1247456E+001  0.9152753E+02  0.7546771E-02  0.1299194E+00
          1   -1    0    0  501    0  0.00000000000E+00  0.00000000000E+00  0.24533759845E+02  0.24533759845E+02  0.00000000000E+00 0. -1.
         -1   -1    0    0    0  501 -0.00000000000E+00 -0.00000000000E+00 -0.85364905817E+02  0.85364905817E+02  0.00000000000E+00 0.  1.
         23    2    1    2    0    0  0.00000000000E+00  0.00000000000E+00 -0.60831145973E+02  0.10989866566E+03  0.91527528067E+02 0.  0.
        -13    1    3    3    0    0 -0.35254848862E+02 -0.17275017099E+02 -0.58651361460E+02  0.70578415859E+02  0.00000000000E+00 0.  1.
         13    1    3    3    0    0  0.35254848862E+02  0.17275017099E+02 -0.21797845128E+01  0.39320249803E+02  0.00000000000E+00 0. -1.
<mgrwt>
<rscale>  0 0.91527528E+02</rscale>
<asrwt>0</asrwt>
<pdfrwt beam="1">  1        1 0.37744246E-02 0.91527528E+02</pdfrwt>
<pdfrwt beam="2">  1       -1 0.13133062E-01 0.91527528E+02</pdfrwt>
<totfact> 0.82893996E+04</totfact>
</mgrwt>
</event>
<event>
 5    1  0.1247456E+001  0.8931414E+02  0.7546771E-02  0.1304521E+00
         -2   -1    0    0    0  501 -0.00000000000E+00  0.00000000000E+00  0.20628492088E+02  0.20628492088E+02  0.00000000000E+00 0.  1.
          2   -1    0    0  501    0  0.00000000000E+00 -0.00000000000E+00 -0.96674723709E+02  0.96674723709E+02  0.00000000000E+00 0. -1.
         23    2    1    2    0    0  0.00000000000E+00  0.00000000000E+00 -0.76046231621E+02  0.11730321580E+03  0.89314137137E+02 0.  0.
        -11    1    3    3    0    0 -0.42993791809E+02 -0.26363350850E+01 -0.22547679211E+02  0.48619072745E+02  0.00000000000E+00 0.  1.
         11    1    3    3    0    0  0.42993791809E+02  0.26363350850E+01 -0.53498552410E+02  0.68684143052E+02  0.00000000000E+00 0. -1.
<mgrwt>
<rscale>  0 0.89314137E+02</rscale>
<asrwt>0</asrwt>
<pdfrwt beam="2">  1        2 0.14873034E-01 0.89314137E+02</pdfrwt>
<pdfrwt beam="1">  1       -2 0.31736142E-02 0.89314137E+02</pdfrwt>
<totfact> 0.12851804E+05</totfact>
</mgrwt>
</event>
<event>
 5    1  0.1247456E+001  0.9075781E+02  0.7546771E-02  0.1301027E+00
          2   -1    0    0  501    0  0.00000000000E+00  0.00000000000E+00  0.19828527879E+03  0.19828527879E+03  0.00000000000E+00 0.  1.
         -2   -1    0    0    0  501 -0.00000000000E+00 -0.00000000000E+00 -0.10385264083E+02  0.10385264083E+02  0.00000000000E+00 0. -1.
         23    2    1    2    0    0  0.00000000000E+00  0.00000000000E+00  0.18790001471E+03  0.20867054287E+03  0.90757809227E+02 0.  0.
        -13    1    3    3    0    0  0.12400484909E+02  0.30298559667E+02  0.21699791351E+02  0.39276655771E+02  0.00000000000E+00 0. -1.
         13    1    3    3    0    0 -0.12400484909E+02 -0.30298559667E+02  0.16620022335E+03  0.16939388710E+03  0.00000000000E+00 0.  1.
<mgrwt>
<rscale>  0 0.90757809E+02</rscale>
<asrwt>0</asrwt>
<pdfrwt beam="1">  1        2 0.30505425E-01 0.90757809E+02</pdfrwt>
<pdfrwt beam="2">  1       -2 0.15977331E-02 0.90757809E+02</pdfrwt>
<totfact> 0.15612276E+05</totfact>
</mgrwt>
</event>
<event>
 5    1  0.1247456E+001  0.9238822E+02  0.7546771E-02  0.1297169E+00
         -1   -1    0    0    0  501 -0.00000000000E+00  0.00000000000E+00  0.27649945469E+02  0.27649945469E+02  0.00000000000E+00 0.  1.
          1   -1    0    0  501    0  0.00000000000E+00 -0.00000000000E+00 -0.77175413183E+02  0.77175413183E+02  0.00000000000E+00 0. -1.
         23    2    1    2    0    0  0.00000000000E+00  0.00000000000E+00 -0.49525467714E+02  0.10482535865E+03  0.92388223623E+02 0.  0.
        -11    1    3    3    0    0 -0.41715494671E+02  0.14791119597E+02 -0.39769587542E+02  0.59502771430E+02  0.00000000000E+00 0.  1.
         11    1    3    3    0    0  0.41715494671E+02 -0.14791119597E+02 -0.97558801722E+01  0.45322587222E+02  0.00000000000E+00 0. -1.
<mgrwt>
<rscale>  0 0.92388224E+02</rscale>
<asrwt>0</asrwt>
<pdfrwt beam="2">  1        1 0.11873140E-01 0.92388224E+02</pdfrwt>
<pdfrwt beam="1">  1       -1 0.42538378E-02 0.92388224E+02</pdfrwt>
<totfact> 0.96601155E+04</totfact>
</mgrwt>
</event>
<event>
 5    1  0.1247456E+001  0.9309458E+02  0.7546771E-02  0.1295526E+00
          2   -1    0    0  501    0  0.00000000000E+00  0.00000000000E+00  0.45561679751E+02  0.45561679751E+02  0.00000000000E+00 0. -1.
         -2   -1    0    0    0  501 -0.00000000000E+00 -0.00000000000E+00 -0.47554216493E+02  0.47554216493E+02  0.00000000000E+00 0.  1.
         23    2    1    2    0    0  0.00000000000E+00  0.00000000000E+00 -0.19925367418E+01  0.93115896243E+02  0.93094575194E+02 0.  0.
        -13    1    3    3    0    0  0.40684145330E+02 -0.96996932331E+01 -0.21430490883E+02  0.46995209006E+02  0.00000000000E+00 0.  1.
         13    1    3    3    0    0 -0.40684145330E+02  0.96996932331E+01  0.19437954141E+02  0.46120687237E+02  0.00000000000E+00 0. -1.
<mgrwt>
<rscale>  0 0.93094575E+02</rscale>
<asrwt>0</asrwt>
<pdfrwt beam="1">  1        2 0.70094892E-02 0.93094575E+02</pdfrwt>
<pdfrwt beam="2">  1       -2 0.73160333E-02 0.93094575E+02</pdfrwt>
<totfact> 0.92921608E+04</totfact>
</mgrwt>
</event>
<event>
 5    1  0.1247456E+001  0.9045102E+02  0.7546771E-02  0.1301763E+00
         -4   -1    0    0    0  501 -0.00000000000E+00  0.00000000000E+00  0.25489614495E+02  0.25489614495E+02  0.00000000000E+00 0. -1.
          4   -1    0    0  501    0  0.00000000000E+00 -0.00000000000E+00 -0.80242361747E+02  0.80242361747E+02  0.00000000000E+00 0.  1.
         23    2    1    2    0    0  0.00000000000E+00  0.00000000000E+00 -0.54752747252E+02  0.10573197624E+03  0.90451022484E+02 0.  0.
        -13    1    3    3    0    0 -0.25984371906E+02 -0.36950079044E+02 -0.29950950863E+02  0.54199219389E+02  0.00000000000E+00 0.  1.
         13    1    3    3    0    0  0.25984371906E+02  0.36950079044E+02 -0.24801796389E+02  0.51532756853E+02  0.00000000000E+00 0. -1.
<mgrwt>
<rscale>  0 0.90451022E+02</rscale>
<asrwt>0</asrwt>
<pdfrwt beam="2">  1        4 0.12344979E-01 0.90451022E+02</pdfrwt>
<pdfrwt beam="1">  1       -4 0.39214792E-02 0.90451022E+02</pdfrwt>
<totfact> 0.26677995E+04</totfact>
</mgrwt>
</event>
<event>
 5    1  0.1247456E+001  0.8917803E+02  0.7546771E-02  0.1304855E+00
         -2   -1    0    0    0  501 -0.00000000000E+00  0.00000000000E+00  0.55524156313E+01  0.55524156313E+01  0.00000000000E+00 0.  1.
          2   -1    0    0  501    0  0.00000000000E+00 -0.00000000000E+00 -0.35807482323E+03  0.35807482323E+03  0.00000000000E+00 0. -1.
         23    2    1    2    0    0  0.00000000000E+00  0.00000000000E+00 -0.35252240760E+03  0.36362723886E+03  0.89178029709E+02 0.  0.
        -13    1    3    3    0    0  0.41074635486E+02 -0.81535951121E+00 -0.10559022715E+03  0.11330086743E+03  0.00000000000E+00 0.  1.
         13    1    3    3    0    0 -0.41074635486E+02  0.81535951121E+00 -0.24693218045E+03  0.25032637143E+03  0.00000000000E+00 0. -1.
<mgrwt>
<rscale>  0 0.89178030E+02</rscale>
<asrwt>0</asrwt>
<pdfrwt beam="2">  1        2 0.55088417E-01 0.89178030E+02</pdfrwt>
<pdfrwt beam="1">  1       -2 0.85421806E-03 0.89178030E+02</pdfrwt>
<totfact> 0.20341401E+05</totfact>
</mgrwt>
</event>
<event>
 5    1  0.1247456E+001  0.9015751E+02  0.7546771E-02  0.1302471E+00
          3   -1    0    0  501    0  0.00000000000E+00  0.00000000000E+00  0.16801709008E+02  0.16801709008E+02  0.00000000000E+00 0. -1.
         -3   -1    0    0    0  501 -0.00000000000E+00 -0.00000000000E+00 -0.12094567415E+03  0.12094567415E+03  0.00000000000E+00 0.  1.
         23    2    1    2    0    0  0.00000000000E+00  0.00000000000E+00 -0.10414396514E+03  0.13774738315E+03  0.90157507125E+02 0.  0.
        -11    1    3    3    0    0  0.36848841952E+02 -0.22310468993E+02 -0.72370000127E+02  0.84220016019E+02  0.00000000000E+00 0.  1.
         11    1    3    3    0    0 -0.36848841952E+02  0.22310468993E+02 -0.31773965011E+02  0.53527367135E+02  0.00000000000E+00 0. -1.
<mgrwt>
<rscale>  0 0.90157507E+02</rscale>
<asrwt>0</asrwt>
<pdfrwt beam="1">  1        3 0.25848784E-02 0.90157507E+02</pdfrwt>
<pdfrwt beam="2">  1       -3 0.18607026E-01 0.90157507E+02</pdfrwt>
<totfact> 0.33065844E+04</totfact>
</mgrwt>
</event>
<event>
 5    1  0.1247456E+001  0.9077027E+02  0.7546771E-02  0.1300997E+00
          3   -1    0    0  501    0  0.00000000000E+00  0.00000000000E+00  0.14765815257E+02  0.14765815257E+02  0.00000000000E+00 0. -1.
         -3   -1    0    0    0  501 -0.00000000000E+00 -0.00000000000E+00 -0.13949858283E+03  0.13949858283E+03  0.00000000000E+00 0.  1.
         23    2    1    2    0    0  0.00000000000E+00  0.00000000000E+00 -0.12473276758E+03  0.15426439809E+03  0.90770266116E+02 0.  0.
        -13    1    3    3    0    0  0.34731220418E+02  0.29203927523E+02 -0.63771173633E+02  0.78268062714E+02  0.00000000000E+00 0.  1.
         13    1    3    3    0    0 -0.34731220418E+02 -0.29203927523E+02 -0.60961593946E+02  0.75996335378E+02  0.00000000000E+00 0. -1.
<mgrwt>
<rscale>  0 0.90770266E+02</rscale>
<asrwt>0</asrwt>
<pdfrwt beam="1">  1        3 0.22716638E-02 0.90770266E+02</pdfrwt>
<pdfrwt beam="2">  1       -3 0.21461321E-01 0.90770266E+02</pdfrwt>
<totfact> 0.31426753E+04</totfact>
</mgrwt>
</event>
<event>
 5    1  0.1247456E+001  0.8881415E+02  0.7546771E-02  0.1305749E+00
         -4   -1    0    0    0  501 -0.00000000000E+00  0.00000000000E+00  0.13010854361E+03  0.13010854361E+03  0.00000000000E+00 0. -1.
          4   -1    0    0  501    0  0.00000000000E+00 -0.00000000000E+00 -0.15156487395E+02  0.15156487395E+02  0.00000000000E+00 0.  1.
         23    2    1    2    0    0  0.00000000000E+00  0.00000000000E+00  0.11495205622E+03  0.14526503101E+03  0.88814154305E+02 0.  0.
        -13    1    3    3    0    0 -0.38130831903E+02  0.81631098746E+01  0.92226101613E+02  0.10013116659E+03  0.00000000000E+00 0.  1.
         13    1    3    3    0    0  0.38130831903E+02 -0.81631098746E+01  0.22725954607E+02  0.45133864417E+02  0.00000000000E+00 0. -1.
<mgrwt>
<rscale>  0 0.88814154E+02</rscale>
<asrwt>0</asrwt>
<pdfrwt beam="2">  1        4 0.23317674E-02 0.88814154E+02</pdfrwt>
<pdfrwt beam="1">  1       -4 0.20016698E-01 0.88814154E+02</pdfrwt>
<totfact> 0.25658135E+04</totfact>
</mgrwt>
</event>
<event>
 5    1  0.1247456E+001  0.9401546E+02  0.7546771E-02  0.1293409E+00
         -1   -1    0    0    0  501 -0.00000000000E+00  0.00000000000E+00  0.66923809200E+02  0.66923809200E+02  0.00000000000E+00 0.  1.
          1   -1    0    0  501    0  0.00000000000E+00 -0.00000000000E+00 -0.33018546529E+02  0.33018546529E+02  0.00000000000E+00 0. -1.
         23    2    1    2    0    0  0.00000000000E+00  0.00000000000E+00  0.33905262672E+02  0.99942355729E+02  0.94015464854E+02 0.  0.
        -13    1    3    3    0    0 -0.66830589899E+01 -0.44085669413E+02  0.11308932793E+01  0.44603681963E+02  0.00000000000E+00 0. -1.
         13    1    3    3    0    0  0.66830589899E+01  0.44085669413E+02  0.32774369393E+02  0.55338673766E+02  0.00000000000E+00 0.  1.
<mgrwt>
<rscale>  0 0.94015465E+02</rscale>
<asrwt>0</asrwt>
<pdfrwt beam="2">  1        1 0.50797764E-02 0.94015465E+02</pdfrwt>
<pdfrwt beam="1">  1       -1 0.10295971E-01 0.94015465E+02</pdfrwt>
<totfact> 0.80615836E+04</totfact>
</mgrwt>
</event>
<event>
 5    1  0.1247456E+001  0.9036759E+02  0.7546771E-02  0.1301964E+00
         -1   -1    0    0    0  501 -0.00000000000E+00  0.00000000000E+00  0.17973253766E+03  0.17973253766E+03  0.00000000000E+00 0.  1.
          1   -1    0    0  501    0  0.00000000000E+00 -0.00000000000E+00 -0.11358962230E+02  0.11358962230E+02  0.00000000000E+00 0. -1.
         23    2    1    2    0    0  0.00000000000E+00  0.00000000000E+00  0.16837357543E+03  0.19109149989E+03  0.90367585047E+02 0.  0.
        -13    1    3    3    0    0 -0.10219024640E+02 -0.27871684880E+02  0.15621734922E+03  0.15901295381E+03  0.00000000000E+00 0.  1.
         13    1    3    3    0    0  0.10219024640E+02  0.27871684880E+02  0.12156226205E+02  0.32078546073E+02  0.00000000000E+00 0. -1.
<mgrwt>
<rscale>  0 0.90367585E+02</rscale>
<asrwt>0</asrwt>
<pdfrwt beam="2">  1        1 0.17475328E-02 0.90367585E+02</pdfrwt>
<pdfrwt beam="1">  1       -1 0.27651158E-01 0.90367585E+02</pdfrwt>
<totfact> 0.73174069E+04</totfact>
</mgrwt>
</event>
<event>
 5    1  0.1247456E+001  0.9043761E+02  0.7546771E-02  0.1301795E+00
         -1   -1    0    0    0  501 -0.00000000000E+00  0.00000000000E+00  0.55406933242E+01  0.55406933242E+01  0.00000000000E+00 0. -1.
          1   -1    0    0  501    0  0.00000000000E+00 -0.00000000000E+00 -0.36904049987E+03  0.36904049987E+03  0.00000000000E+00 0.  1.
         23    2    1    2    0    0  0.00000000000E+00  0.00000000000E+00 -0.36349980654E+03  0.37458119319E+03  0.90437607973E+02 0.  0.
        -13    1    3    3    0    0 -0.44218788535E+02  0.18311532772E+01 -0.14332057501E+03  0.14999813867E+03  0.00000000000E+00 0. -1.
         13    1    3    3    0    0  0.44218788535E+02 -0.18311532772E+01 -0.22017923153E+03  0.22458305452E+03  0.00000000000E+00 0.  1.
<mgrwt>
<rscale>  0 0.90437608E+02</rscale>
<asrwt>0</asrwt>
<pdfrwt beam="2">  1        1 0.56775493E-01 0.90437608E+02</pdfrwt>
<pdfrwt beam="1">  1       -1 0.85241389E-03 0.90437608E+02</pdfrwt>
<totfact> 0.13597355E+05</totfact>
</mgrwt>
</event>
<event>
 5    1  0.1247456E+001  0.8995422E+02  0.7546771E-02  0.1302963E+00
         -1   -1    0    0    0  501 -0.00000000000E+00  0.00000000000E+00  0.61844184915E+02  0.61844184915E+02  0.00000000000E+00 0.  1.
          1   -1    0    0  501    0  0.00000000000E+00 -0.00000000000E+00 -0.32710278117E+02  0.32710278117E+02  0.00000000000E+00 0. -1.
         23    2    1    2    0    0  0.00000000000E+00  0.00000000000E+00  0.29133906798E+02  0.94554463032E+02  0.89954221435E+02 0.  0.
        -13    1    3    3    0    0  0.39082262562E+02  0.19726767173E+01  0.37873493764E+02  0.54458389898E+02  0.00000000000E+00 0.  1.
         13    1    3    3    0    0 -0.39082262562E+02 -0.19726767173E+01 -0.87395869660E+01  0.40096073134E+02  0.00000000000E+00 0. -1.
<mgrwt>
<rscale>  0 0.89954221E+02</rscale>
<asrwt>0</asrwt>
<pdfrwt beam="2">  1        1 0.50323505E-02 0.89954221E+02</pdfrwt>
<pdfrwt beam="1">  1       -1 0.95144900E-02 0.89954221E+02</pdfrwt>
<totfact> 0.91336118E+04</totfact>
</mgrwt>
</event>
<event>
 5    1  0.1247456E+001  0.9134554E+02  0.7546771E-02  0.1299626E+00
         -1   -1    0    0    0  501 -0.00000000000E+00  0.00000000000E+00  0.12501314198E+03  0.12501314198E+03  0.00000000000E+00 0.  1.
          1   -1    0    0  501    0  0.00000000000E+00 -0.00000000000E+00 -0.16686261417E+02  0.16686261417E+02  0.00000000000E+00 0. -1.
         23    2    1    2    0    0  0.00000000000E+00  0.00000000000E+00  0.10832688056E+03  0.14169940340E+03  0.91345541055E+02 0.  0.
        -11    1    3    3    0    0  0.32749072192E+02  0.47705546560E+01  0.10299054428E+03  0.10817722557E+03  0.00000000000E+00 0.  1.
         11    1    3    3    0    0 -0.32749072192E+02 -0.47705546560E+01  0.53363362809E+01  0.33522177824E+02  0.00000000000E+00 0. -1.
<mgrwt>
<rscale>  0 0.91345541E+02</rscale>
<asrwt>0</asrwt>
<pdfrwt beam="2">  1        1 0.25671172E-02 0.91345541E+02</pdfrwt>
<pdfrwt beam="1">  1       -1 0.19232790E-01 0.91345541E+02</pdfrwt>
<totfact> 0.77496009E+04</totfact>
</mgrwt>
</event>
<event>
 5    1  0.1247456E+001  0.1226050E+03  0.7546771E-02  0.1238860E+00
          1   -1    0    0  501    0  0.00000000000E+00  0.00000000000E+00  0.64130067066E+02  0.64130067066E+02  0.00000000000E+00 0. -1.
         -1   -1    0    0    0  501 -0.00000000000E+00 -0.00000000000E+00 -0.58599639167E+02  0.58599639167E+02  0.00000000000E+00 0.  1.
         23    2    1    2    0    0  0.00000000000E+00  0.00000000000E+00  0.55304278989E+01  0.12272970623E+03  0.12260503725E+03 0.  0.
        -13    1    3    3    0    0 -0.45480607046E+02  0.38675029189E+02 -0.11168540896E+02  0.60736972313E+02  0.00000000000E+00 0.  1.
         13    1    3    3    0    0  0.45480607046E+02 -0.38675029189E+02  0.16698968795E+02  0.61992733920E+02  0.00000000000E+00 0. -1.
<mgrwt>
<rscale>  0 0.12260504E+03</rscale>
<asrwt>0</asrwt>
<pdfrwt beam="1">  1        1 0.98661642E-02 0.12260504E+03</pdfrwt>
<pdfrwt beam="2">  1       -1 0.90153291E-02 0.12260504E+03</pdfrwt>
<totfact> 0.42067370E+04</totfact>
</mgrwt>
</event>
<event>
 5    1  0.1247456E+001  0.5878709E+02  0.7546771E-02  0.1402993E+00
         -3   -1    0    0    0  501 -0.00000000000E+00  0.00000000000E+00  0.58418971352E+02  0.58418971352E+02  0.00000000000E+00 0.  1.
          3   -1    0    0  501    0  0.00000000000E+00 -0.00000000000E+00 -0.14789381780E+02  0.14789381780E+02  0.00000000000E+00 0. -1.
         23    2    1    2    0    0  0.00000000000E+00  0.00000000000E+00  0.43629589572E+02  0.73208353132E+02  0.58787089417E+02 0.  0.
        -13    1    3    3    0    0 -0.19811989725E+02 -0.20192514758E+02  0.11873489305E+02  0.30679510058E+02  0.00000000000E+00 0. -1.
         13    1    3    3    0    0  0.19811989725E+02  0.20192514758E+02  0.31756100267E+02  0.42528843075E+02  0.00000000000E+00 0.  1.
<mgrwt>
<rscale>  0 0.58787089E+02</rscale>
<asrwt>0</asrwt>
<pdfrwt beam="2">  1        3 0.22752895E-02 0.58787089E+02</pdfrwt>
<pdfrwt beam="1">  1       -3 0.89875340E-02 0.58787089E+02</pdfrwt>
<totfact> 0.11787554E+05</totfact>
</mgrwt>
</event>
<event>
 5    1  0.1247456E+001  0.9177834E+02  0.7546771E-02  0.1298601E+00
          2   -1    0    0  501    0  0.00000000000E+00  0.00000000000E+00  0.30415767505E+02  0.30415767505E+02  0.00000000000E+00 0.  1.
         -2   -1    0    0    0  501 -0.00000000000E+00 -0.00000000000E+00 -0.69234350523E+02  0.69234350523E+02  0.00000000000E+00 0. -1.
         23    2    1    2    0    0  0.00000000000E+00  0.00000000000E+00 -0.38818583018E+02  0.99650118028E+02  0.91778339685E+02 0.  0.
        -11    1    3    3    0    0  0.20954543263E+02  0.24908332091E+02 -0.54530166067E+02  0.63506353243E+02  0.00000000000E+00 0. -1.
         11    1    3    3    0    0 -0.20954543263E+02 -0.24908332091E+02  0.15711583049E+02  0.36143764785E+02  0.00000000000E+00 0.  1.
<mgrwt>
<rscale>  0 0.91778340E+02</rscale>
<asrwt>0</asrwt>
<pdfrwt beam="1">  1        2 0.46793488E-02 0.91778340E+02</pdfrwt>
<pdfrwt beam="2">  1       -2 0.10651439E-01 0.91778340E+02</pdfrwt>
<totfact> 0.87074597E+04</totfact>
</mgrwt>
</event>
<event>
 5    1  0.1247456E+001  0.8931059E+02  0.7546771E-02  0.1304530E+00
         -1   -1    0    0    0  501 -0.00000000000E+00  0.00000000000E+00  0.10749851499E+02  0.10749851499E+02  0.00000000000E+00 0.  1.
          1   -1    0    0  501    0  0.00000000000E+00 -0.00000000000E+00 -0.18549980862E+03  0.18549980862E+03  0.00000000000E+00 0. -1.
         23    2    1    2    0    0  0.00000000000E+00  0.00000000000E+00 -0.17474995712E+03  0.19624966012E+03  0.89310590542E+02 0.  0.
        -11    1    3    3    0    0  0.19156556264E+01  0.36577098861E+02 -0.31243042724E+02  0.48142305888E+02  0.00000000000E+00 0.  1.
         11    1    3    3    0    0 -0.19156556264E+01 -0.36577098861E+02 -0.14350691439E+03  0.14810735423E+03  0.00000000000E+00 0. -1.
<mgrwt>
<rscale>  0 0.89310591E+02</rscale>
<asrwt>0</asrwt>
<pdfrwt beam="2">  1        1 0.28538429E-01 0.89310591E+02</pdfrwt>
<pdfrwt beam="1">  1       -1 0.16538235E-02 0.89310591E+02</pdfrwt>
<totfact> 0.12334997E+05</totfact>
</mgrwt>
</event>
<event>
 5    1  0.1247456E+001  0.1002292E+03  0.7546771E-02  0.1279815E+00
          1   -1    0    0  501    0  0.00000000000E+00  0.00000000000E+00  0.29410701106E+03  0.29410701106E+03  0.00000000000E+00 0. -1.
         -1   -1    0    0    0  501 -0.00000000000E+00 -0.00000000000E+00 -0.85393216367E+01  0.85393216367E+01  0.00000000000E+00 0.  1.
         23    2    1    2    0    0  0.00000000000E+00  0.00000000000E+00  0.28556768942E+03  0.30264633270E+03  0.10022922454E+03 0.  0.
        -13    1    3    3    0    0 -0.38564425429E+02 -0.30049946879E+02  0.17603449097E+03  0.18269744450E+03  0.00000000000E+00 0. -1.
         13    1    3    3    0    0  0.38564425429E+02  0.30049946879E+02  0.10953319846E+03  0.11994888820E+03  0.00000000000E+00 0.  1.
<mgrwt>
<rscale>  0 0.10022922E+03</rscale>
<asrwt>0</asrwt>
<pdfrwt beam="1">  1        1 0.45247225E-01 0.10022922E+03</pdfrwt>
<pdfrwt beam="2">  1       -1 0.13137420E-02 0.10022922E+03</pdfrwt>
<totfact> 0.99042666E+04</totfact>
</mgrwt>
</event>
<event>
 5    1  0.1247456E+001  0.9046447E+02  0.7546771E-02  0.1301731E+00
         -4   -1    0    0    0  501 -0.00000000000E+00  0.00000000000E+00  0.80300206871E+02  0.80300206871E+02  0.00000000000E+00 0.  1.
          4   -1    0    0  501    0  0.00000000000E+00 -0.00000000000E+00 -0.25478824516E+02  0.25478824516E+02  0.00000000000E+00 0. -1.
         23    2    1    2    0    0  0.00000000000E+00  0.00000000000E+00  0.54821382355E+02  0.10577903139E+03  0.90464465497E+02 0.  0.
        -13    1    3    3    0    0  0.21252371437E+02  0.15855164069E+02  0.70260044105E+02  0.75096759697E+02  0.00000000000E+00 0.  1.
         13    1    3    3    0    0 -0.21252371437E+02 -0.15855164069E+02 -0.15438661750E+02  0.30682271689E+02  0.00000000000E+00 0. -1.
<mgrwt>
<rscale>  0 0.90464465E+02</rscale>
<asrwt>0</asrwt>
<pdfrwt beam="2">  1        4 0.39198192E-02 0.90464465E+02</pdfrwt>
<pdfrwt beam="1">  1       -4 0.12353878E-01 0.90464465E+02</pdfrwt>
<totfact> 0.26664394E+04</totfact>
</mgrwt>
</event>
<event>
 5    1  0.1247456E+001  0.9049620E+02  0.7546771E-02  0.1301655E+00
          2   -1    0    0  501    0  0.00000000000E+00  0.00000000000E+00  0.19924508532E+02  0.19924508532E+02  0.00000000000E+00 0. -1.
         -2   -1    0    0    0  501 -0.00000000000E+00 -0.00000000000E+00 -0.10275738415E+03  0.10275738415E+03  0.00000000000E+00 0.  1.
         23    2    1    2    0    0  0.00000000000E+00  0.00000000000E+00 -0.82832875621E+02  0.12268189268E+03  0.90496196103E+02 0.  0.
        -13    1    3    3    0    0 -0.44265102563E+02  0.76067027835E+01 -0.48857647577E+02  0.66365133609E+02  0.00000000000E+00 0.  1.
         13    1    3    3    0    0  0.44265102563E+02 -0.76067027835E+01 -0.33975228044E+02  0.56316759076E+02  0.00000000000E+00 0. -1.
<mgrwt>
<rscale>  0 0.90496196E+02</rscale>
<asrwt>0</asrwt>
<pdfrwt beam="1">  1        2 0.30653091E-02 0.90496196E+02</pdfrwt>
<pdfrwt beam="2">  1       -2 0.15808828E-01 0.90496196E+02</pdfrwt>
<totfact> 0.80648666E+04</totfact>
</mgrwt>
</event>
<event>
 5    1  0.1247456E+001  0.8686548E+02  0.7546771E-02  0.1310625E+00
          2   -1    0    0  501    0  0.00000000000E+00  0.00000000000E+00  0.31879370621E+02  0.31879370621E+02  0.00000000000E+00 0. -1.
         -2   -1    0    0    0  501 -0.00000000000E+00 -0.00000000000E+00 -0.59173160528E+02  0.59173160528E+02  0.00000000000E+00 0.  1.
         23    2    1    2    0    0  0.00000000000E+00  0.00000000000E+00 -0.27293789907E+02  0.91052531148E+02  0.86865484866E+02 0.  0.
        -11    1    3    3    0    0  0.29482732066E+02 -0.30031561374E+02 -0.24901130675E+02  0.48899820834E+02  0.00000000000E+00 0.  1.
         11    1    3    3    0    0 -0.29482732066E+02  0.30031561374E+02 -0.23926592323E+01  0.42152710315E+02  0.00000000000E+00 0. -1.
<mgrwt>
<rscale>  0 0.86865485E+02</rscale>
<asrwt>0</asrwt>
<pdfrwt beam="1">  1        2 0.49045186E-02 0.86865485E+02</pdfrwt>
<pdfrwt beam="2">  1       -2 0.91035630E-02 0.86865485E+02</pdfrwt>
<totfact> 0.10362640E+05</totfact>
</mgrwt>
</event>
<event>
 5    1  0.1247456E+001  0.9275706E+02  0.7546771E-02  0.1296309E+00
          1   -1    0    0  501    0  0.00000000000E+00  0.00000000000E+00  0.34857208691E+02  0.34857208691E+02  0.00000000000E+00 0. -1.
         -1   -1    0    0    0  501 -0.00000000000E+00 -0.00000000000E+00 -0.61707985909E+02  0.61707985909E+02  0.00000000000E+00 0.  1.
         23    2    1    2    0    0  0.00000000000E+00  0.00000000000E+00 -0.26850777218E+02  0.96565194600E+02  0.92757062109E+02 0.  0.
        -13    1    3    3    0    0  0.33554521907E+02  0.15668155924E+02 -0.42492474802E+02  0.56364948907E+02  0.00000000000E+00 0.  1.
         13    1    3    3    0    0 -0.33554521907E+02 -0.15668155924E+02  0.15641697584E+02  0.40200245693E+02  0.00000000000E+00 0. -1.
<mgrwt>
<rscale>  0 0.92757062E+02</rscale>
<asrwt>0</asrwt>
<pdfrwt beam="1">  1        1 0.53626476E-02 0.92757062E+02</pdfrwt>
<pdfrwt beam="2">  1       -1 0.94935362E-02 0.92757062E+02</pdfrwt>
<totfact> 0.84520784E+04</totfact>
</mgrwt>
</event>
<event>
 5    1  0.1247456E+001  0.9172263E+02  0.7546771E-02  0.1298733E+00
         -2   -1    0    0    0  501 -0.00000000000E+00  0.00000000000E+00  0.11366822388E+03  0.11366822388E+03  0.00000000000E+00 0. -1.
          2   -1    0    0  501    0  0.00000000000E+00 -0.00000000000E+00 -0.18503500195E+02  0.18503500195E+02  0.00000000000E+00 0.  1.
         23    2    1    2    0    0  0.00000000000E+00  0.00000000000E+00  0.95164723681E+02  0.13217172407E+03  0.91722625401E+02 0.  0.
        -13    1    3    3    0    0 -0.40982748037E+02  0.17805028546E+02  0.62464089358E+02  0.76800827714E+02  0.00000000000E+00 0. -1.
         13    1    3    3    0    0  0.40982748037E+02 -0.17805028546E+02  0.32700634323E+02  0.55370896356E+02  0.00000000000E+00 0.  1.
<mgrwt>
<rscale>  0 0.91722625E+02</rscale>
<asrwt>0</asrwt>
<pdfrwt beam="2">  1        2 0.28466924E-02 0.91722625E+02</pdfrwt>
<pdfrwt beam="1">  1       -2 0.17487419E-01 0.91722625E+02</pdfrwt>
<totfact> 0.75594140E+04</totfact>
</mgrwt>
</event>
<event>
 5    1  0.1247456E+001  0.7871519E+02  0.7546771E-02  0.1332738E+00
         -1   -1    0    0    0  501 -0.00000000000E+00  0.00000000000E+00  0.36477236860E+02  0.36477236860E+02  0.00000000000E+00 0.  1.
          1   -1    0    0  501    0  0.00000000000E+00 -0.00000000000E+00 -0.42465399112E+02  0.42465399112E+02  0.00000000000E+00 0. -1.
         23    2    1    2    0    0  0.00000000000E+00  0.00000000000E+00 -0.59881622526E+01  0.78942635972E+02  0.78715193495E+02 0.  0.
        -11    1    3    3    0    0 -0.38734703476E+01  0.15281789875E+02  0.33172336054E+02  0.36727928796E+02  0.00000000000E+00 0.  1.
         11    1    3    3    0    0  0.38734703476E+01 -0.15281789875E+02 -0.39160498307E+02  0.42214707176E+02  0.00000000000E+00 0. -1.
<mgrwt>
<rscale>  0 0.78715193E+02</rscale>
<asrwt>0</asrwt>
<pdfrwt beam="2">  1        1 0.65331383E-02 0.78715193E+02</pdfrwt>
<pdfrwt beam="1">  1       -1 0.56118826E-02 0.78715193E+02</pdfrwt>
<totfact> 0.13767972E+05</totfact>
</mgrwt>
</event>
<event>
 5    1  0.1247456E+001  0.8855807E+02  0.7546771E-02  0.1306382E+00
          1   -1    0    0  501    0  0.00000000000E+00  0.00000000000E+00  0.93989564285E+02  0.93989564285E+02  0.00000000000E+00 0. -1.
         -1   -1    0    0    0  501 -0.00000000000E+00 -0.00000000000E+00 -0.20860114160E+02  0.20860114160E+02  0.00000000000E+00 0.  1.
         23    2    1    2    0    0  0.00000000000E+00  0.00000000000E+00  0.73129450124E+02  0.11484967844E+03  0.88558072266E+02 0.  0.
        -11    1    3    3    0    0  0.30964810499E+02  0.95611718851E+01 -0.25659344890E+01  0.32508760617E+02  0.00000000000E+00 0.  1.
         11    1    3    3    0    0 -0.30964810499E+02 -0.95611718851E+01  0.75695384613E+02  0.82340917828E+02  0.00000000000E+00 0. -1.
<mgrwt>
<rscale>  0 0.88558072E+02</rscale>
<asrwt>0</asrwt>
<pdfrwt beam="1">  1        1 0.14459933E-01 0.88558072E+02</pdfrwt>
<pdfrwt beam="2">  1       -1 0.32092484E-02 0.88558072E+02</pdfrwt>
<totfact> 0.11192924E+05</totfact>
</mgrwt>
</event>
<event>
 5    1  0.1247456E+001  0.9004480E+02  0.7546771E-02  0.1302743E+00
         -3   -1    0    0    0  501 -0.00000000000E+00  0.00000000000E+00  0.39226478577E+02  0.39226478577E+02  0.00000000000E+00 0.  1.
          3   -1    0    0  501    0  0.00000000000E+00 -0.00000000000E+00 -0.51674702615E+02  0.51674702615E+02  0.00000000000E+00 0. -1.
         23    2    1    2    0    0  0.00000000000E+00  0.00000000000E+00 -0.12448224038E+02  0.90901181192E+02  0.90044802517E+02 0.  0.
        -13    1    3    3    0    0  0.34021659505E+02 -0.96859574681E+01  0.21892624967E+02  0.41600217733E+02  0.00000000000E+00 0.  1.
         13    1    3    3    0    0 -0.34021659505E+02  0.96859574681E+01 -0.34340849005E+02  0.49300963458E+02  0.00000000000E+00 0. -1.
<mgrwt>
<rscale>  0 0.90044803E+02</rscale>
<asrwt>0</asrwt>
<pdfrwt beam="2">  1        3 0.79499542E-02 0.90044803E+02</pdfrwt>
<pdfrwt beam="1">  1       -3 0.60348429E-02 0.90044803E+02</pdfrwt>
<totfact> 0.36581982E+04</totfact>
</mgrwt>
</event>
<event>
 5    1  0.1247456E+001  0.8874342E+02  0.7546771E-02  0.1305924E+00
          1   -1    0    0  501    0  0.00000000000E+00  0.00000000000E+00  0.47637669511E+02  0.47637669511E+02  0.00000000000E+00 0. -1.
         -1   -1    0    0    0  501 -0.00000000000E+00 -0.00000000000E+00 -0.41329663195E+02  0.41329663195E+02  0.00000000000E+00 0.  1.
         23    2    1    2    0    0  0.00000000000E+00  0.00000000000E+00  0.63080063164E+01  0.88967332706E+02  0.88743424236E+02 0.  0.
        -11    1    3    3    0    0  0.15555269314E+02 -0.21984818506E+02  0.38506984726E+02  0.46990281132E+02  0.00000000000E+00 0. -1.
         11    1    3    3    0    0 -0.15555269314E+02  0.21984818506E+02 -0.32198978410E+02  0.41977051574E+02  0.00000000000E+00 0.  1.
<mgrwt>
<rscale>  0 0.88743424E+02</rscale>
<asrwt>0</asrwt>
<pdfrwt beam="1">  1        1 0.73288722E-02 0.88743424E+02</pdfrwt>
<pdfrwt beam="2">  1       -1 0.63584098E-02 0.88743424E+02</pdfrwt>
<totfact> 0.10039016E+05</totfact>
</mgrwt>
</event>
<event>
 5    1  0.1247456E+001  0.8785655E+02  0.7546771E-02  0.1308127E+00
          1   -1    0    0  501    0  0.00000000000E+00  0.00000000000E+00  0.66273911047E+01  0.66273911047E+01  0.00000000000E+00 0. -1.
         -1   -1    0    0    0  501 -0.00000000000E+00 -0.00000000000E+00 -0.29116939663E+03  0.29116939663E+03  0.00000000000E+00 0.  1.
         23    2    1    2    0    0  0.00000000000E+00  0.00000000000E+00 -0.28454200553E+03  0.29779678774E+03  0.87856552839E+02 0.  0.
        -11    1    3    3    0    0  0.23767852357E+02 -0.33475932492E+02 -0.19523361748E+03  0.19950366978E+03  0.00000000000E+00 0.  1.
         11    1    3    3    0    0 -0.23767852357E+02  0.33475932492E+02 -0.89308388051E+02  0.98293117959E+02  0.00000000000E+00 0. -1.
<mgrwt>
<rscale>  0 0.87856553E+02</rscale>
<asrwt>0</asrwt>
<pdfrwt beam="1">  1        1 0.10195989E-02 0.87856553E+02</pdfrwt>
<pdfrwt beam="2">  1       -1 0.44795282E-01 0.87856553E+02</pdfrwt>
<totfact> 0.67525276E+04</totfact>
</mgrwt>
</event>
<event>
 5    1  0.1247456E+001  0.9145512E+02  0.7546771E-02  0.1299366E+00
          2   -1    0    0  501    0  0.00000000000E+00  0.00000000000E+00  0.31566522551E+03  0.31566522551E+03  0.00000000000E+00 0. -1.
         -2   -1    0    0    0  501 -0.00000000000E+00 -0.00000000000E+00 -0.66241367093E+01  0.66241367093E+01  0.00000000000E+00 0.  1.
         23    2    1    2    0    0  0.00000000000E+00  0.00000000000E+00  0.30904108880E+03  0.32228936222E+03  0.91455117039E+02 0.  0.
        -13    1    3    3    0    0 -0.30972902381E+02 -0.26363538819E+02  0.22815923535E+03  0.23175632362E+03  0.00000000000E+00 0.  1.
         13    1    3    3    0    0  0.30972902381E+02  0.26363538819E+02  0.80881853451E+02  0.90533038603E+02  0.00000000000E+00 0. -1.
<mgrwt>
<rscale>  0 0.91455117E+02</rscale>
<asrwt>0</asrwt>
<pdfrwt beam="1">  1        2 0.48563869E-01 0.91455117E+02</pdfrwt>
<pdfrwt beam="2">  1       -2 0.10190982E-02 0.91455117E+02</pdfrwt>
<totfact> 0.18160940E+05</totfact>
</mgrwt>
</event>
<event>
 5    1  0.1247456E+001  0.8796482E+02  0.7546771E-02  0.1307856E+00
          1   -1    0    0  501    0  0.00000000000E+00  0.00000000000E+00  0.37478932433E+02  0.37478932433E+02  0.00000000000E+00 0. -1.
         -1   -1    0    0    0  501 -0.00000000000E+00 -0.00000000000E+00 -0.51614392709E+02  0.51614392709E+02  0.00000000000E+00 0.  1.
         23    2    1    2    0    0  0.00000000000E+00  0.00000000000E+00 -0.14135460276E+02  0.89093325142E+02  0.87964818806E+02 0.  0.
        -11    1    3    3    0    0  0.19607173498E+01 -0.35215736339E+02 -0.33681436858E+02  0.48769167383E+02  0.00000000000E+00 0.  1.
         11    1    3    3    0    0 -0.19607173498E+01  0.35215736339E+02  0.19545976582E+02  0.40324157759E+02  0.00000000000E+00 0. -1.
<mgrwt>
<rscale>  0 0.87964819E+02</rscale>
<asrwt>0</asrwt>
<pdfrwt beam="1">  1        1 0.57659896E-02 0.87964819E+02</pdfrwt>
<pdfrwt beam="2">  1       -1 0.79406758E-02 0.87964819E+02</pdfrwt>
<totfact> 0.99331483E+04</totfact>
</mgrwt>
</event>
<event>
 5    1  0.1247456E+001  0.8958844E+02  0.7546771E-02  0.1303851E+00
          2   -1    0    0  501    0  0.00000000000E+00  0.00000000000E+00  0.15518361418E+02  0.15518361418E+02  0.00000000000E+00 0. -1.
         -2   -1    0    0    0  501 -0.00000000000E+00 -0.00000000000E+00 -0.12929987846E+03  0.12929987846E+03  0.00000000000E+00 0.  1.
         23    2    1    2    0    0  0.00000000000E+00  0.00000000000E+00 -0.11378151704E+03  0.14481823988E+03  0.89588442229E+02 0.  0.
        -13    1    3    3    0    0  0.37926286806E+02  0.17599108954E+02 -0.30906552640E+02  0.51993719457E+02  0.00000000000E+00 0. -1.
         13    1    3    3    0    0 -0.37926286806E+02 -0.17599108954E+02 -0.82874964398E+02  0.92824520418E+02  0.00000000000E+00 0.  1.
<mgrwt>
<rscale>  0 0.89588442E+02</rscale>
<asrwt>0</asrwt>
<pdfrwt beam="1">  1        2 0.23874403E-02 0.89588442E+02</pdfrwt>
<pdfrwt beam="2">  1       -2 0.19892288E-01 0.89588442E+02</pdfrwt>
<totfact> 0.76907364E+04</totfact>
</mgrwt>
</event>
<event>
 5    1  0.1247456E+001  0.9247415E+02  0.7546771E-02  0.1296968E+00
          2   -1    0    0  501    0  0.00000000000E+00  0.00000000000E+00  0.20333298306E+03  0.20333298306E+03  0.00000000000E+00 0. -1.
         -2   -1    0    0    0  501 -0.00000000000E+00 -0.00000000000E+00 -0.10514117988E+02  0.10514117988E+02  0.00000000000E+00 0.  1.
         23    2    1    2    0    0  0.00000000000E+00  0.00000000000E+00  0.19281886507E+03  0.21384710104E+03  0.92474147190E+02 0.  0.
        -11    1    3    3    0    0 -0.22113808976E+02  0.21199610944E+02  0.16321108646E+02  0.34710555153E+02  0.00000000000E+00 0.  1.
         11    1    3    3    0    0  0.22113808976E+02 -0.21199610944E+02  0.17649775642E+03  0.17913654589E+03  0.00000000000E+00 0. -1.
<mgrwt>
<rscale>  0 0.92474147E+02</rscale>
<asrwt>0</asrwt>
<pdfrwt beam="1">  1        2 0.31281995E-01 0.92474147E+02</pdfrwt>
<pdfrwt beam="2">  1       -2 0.16175568E-02 0.92474147E+02</pdfrwt>
<totfact> 0.14979331E+05</totfact>
</mgrwt>
</event>
<event>
 5    1  0.1247456E+001  0.8941780E+02  0.7546771E-02  0.1304268E+00
          3   -1    0    0  501    0  0.00000000000E+00  0.00000000000E+00  0.12408880408E+02  0.12408880408E+02  0.00000000000E+00 0. -1.
         -3   -1    0    0    0  501 -0.00000000000E+00 -0.00000000000E+00 -0.16108511529E+03  0.16108511529E+03  0.00000000000E+00 0.  1.
         23    2    1    2    0    0  0.00000000000E+00  0.00000000000E+00 -0.14867623488E+03  0.17349399570E+03  0.89417804292E+02 0.  0.
        -11    1    3    3    0    0 -0.36775984166E+02 -0.12028374691E+02 -0.11779874253E+03  0.12399071961E+03  0.00000000000E+00 0.  1.
         11    1    3    3    0    0  0.36775984166E+02  0.12028374691E+02 -0.30877492358E+02  0.49503276087E+02  0.00000000000E+00 0. -1.
<mgrwt>
<rscale>  0 0.89417804E+02</rscale>
<asrwt>0</asrwt>
<pdfrwt beam="1">  1        3 0.19090585E-02 0.89417804E+02</pdfrwt>
<pdfrwt beam="2">  1       -3 0.24782325E-01 0.89417804E+02</pdfrwt>
<totfact> 0.31542639E+04</totfact>
</mgrwt>
</event>
<event>
 5    1  0.1247456E+001  0.9009738E+02  0.7546771E-02  0.1302616E+00
         -2   -1    0    0    0  501 -0.00000000000E+00  0.00000000000E+00  0.32696607274E+02  0.32696607274E+02  0.00000000000E+00 0.  1.
          2   -1    0    0  501    0  0.00000000000E+00 -0.00000000000E+00 -0.62067124330E+02  0.62067124330E+02  0.00000000000E+00 0. -1.
         23    2    1    2    0    0  0.00000000000E+00  0.00000000000E+00 -0.29370517057E+02  0.94763731604E+02  0.90097378182E+02 0.  0.
        -13    1    3    3    0    0  0.40732175098E+01  0.29694264265E+02 -0.50058083304E+02  0.58345112350E+02  0.00000000000E+00 0. -1.
         13    1    3    3    0    0 -0.40732175098E+01 -0.29694264265E+02  0.20687566247E+02  0.36418619254E+02  0.00000000000E+00 0.  1.
<mgrwt>
<rscale>  0 0.90097378E+02</rscale>
<asrwt>0</asrwt>
<pdfrwt beam="2">  1        2 0.95487882E-02 0.90097378E+02</pdfrwt>
<pdfrwt beam="1">  1       -2 0.50302474E-02 0.90097378E+02</pdfrwt>
<totfact> 0.11068419E+05</totfact>
</mgrwt>
</event>
<event>
 5    1  0.1247456E+001  0.8987568E+02  0.7546771E-02  0.1303153E+00
          4   -1    0    0  501    0  0.00000000000E+00  0.00000000000E+00  0.90867462962E+02  0.90867462962E+02  0.00000000000E+00 0. -1.
         -4   -1    0    0    0  501 -0.00000000000E+00 -0.00000000000E+00 -0.22223682776E+02  0.22223682776E+02  0.00000000000E+00 0.  1.
         23    2    1    2    0    0  0.00000000000E+00  0.00000000000E+00  0.68643780186E+02  0.11309114574E+03  0.89875684621E+02 0.  0.
        -11    1    3    3    0    0  0.35759697873E+02 -0.41182556751E+01  0.68172287622E+02  0.77092002318E+02  0.00000000000E+00 0. -1.
         11    1    3    3    0    0 -0.35759697873E+02  0.41182556751E+01  0.47149256423E+00  0.35999143420E+02  0.00000000000E+00 0.  1.
<mgrwt>
<rscale>  0 0.89875685E+02</rscale>
<asrwt>0</asrwt>
<pdfrwt beam="1">  1        4 0.13979609E-01 0.89875685E+02</pdfrwt>
<pdfrwt beam="2">  1       -4 0.34190282E-02 0.89875685E+02</pdfrwt>
<totfact> 0.26685323E+04</totfact>
</mgrwt>
</event>
<event>
 5    1  0.1247456E+001  0.9042929E+02  0.7546771E-02  0.1301815E+00
          1   -1    0    0  501    0  0.00000000000E+00  0.00000000000E+00  0.42882633113E+02  0.42882633113E+02  0.00000000000E+00 0. -1.
         -1   -1    0    0    0  501 -0.00000000000E+00 -0.00000000000E+00 -0.47673476426E+02  0.47673476426E+02  0.00000000000E+00 0.  1.
         23    2    1    2    0    0  0.00000000000E+00  0.00000000000E+00 -0.47908433135E+01  0.90556109539E+02  0.90429291688E+02 0.  0.
        -11    1    3    3    0    0 -0.31656989965E+02 -0.68804082193E+01  0.29190200094E+02  0.43607027099E+02  0.00000000000E+00 0. -1.
         11    1    3    3    0    0  0.31656989965E+02  0.68804082193E+01 -0.33981043407E+02  0.46949082440E+02  0.00000000000E+00 0.  1.
<mgrwt>
<rscale>  0 0.90429292E+02</rscale>
<asrwt>0</asrwt>
<pdfrwt beam="1">  1        1 0.65973282E-02 0.90429292E+02</pdfrwt>
<pdfrwt beam="2">  1       -1 0.73343810E-02 0.90429292E+02</pdfrwt>
<totfact> 0.93769373E+04</totfact>
</mgrwt>
</event>
<event>
 5    1  0.1247456E+001  0.9311178E+02  0.7546771E-02  0.1295486E+00
          1   -1    0    0  501    0  0.00000000000E+00  0.00000000000E+00  0.15528744213E+02  0.15528744213E+02  0.00000000000E+00 0. -1.
         -1   -1    0    0    0  501 -0.00000000000E+00 -0.00000000000E+00 -0.13957671582E+03  0.13957671582E+03  0.00000000000E+00 0.  1.
         23    2    1    2    0    0  0.00000000000E+00  0.00000000000E+00 -0.12404797160E+03  0.15510546003E+03  0.93111784818E+02 0.  0.
        -11    1    3    3    0    0 -0.93818846689E+01  0.38638472566E+02 -0.21682084062E+02  0.45288675090E+02  0.00000000000E+00 0. -1.
         11    1    3    3    0    0  0.93818846689E+01 -0.38638472566E+02 -0.10236588754E+03  0.10981678494E+03  0.00000000000E+00 0.  1.
<mgrwt>
<rscale>  0 0.93111785E+02</rscale>
<asrwt>0</asrwt>
<pdfrwt beam="1">  1        1 0.23890377E-02 0.93111785E+02</pdfrwt>
<pdfrwt beam="2">  1       -1 0.21473340E-01 0.93111785E+02</pdfrwt>
<totfact> 0.71997650E+04</totfact>
</mgrwt>
</event>
<event>
 5    1  0.1247456E+001  0.8596185E+02  0.7546771E-02  0.1312936E+00
          2   -1    0    0  501    0  0.00000000000E+00  0.00000000000E+00  0.21652995841E+03  0.21652995841E+03  0.00000000000E+00 0. -1.
         -2   -1    0    0    0  501 -0.00000000000E+00 -0.00000000000E+00 -0.85316589108E+01  0.85316589108E+01  0.00000000000E+00 0.  1.
         23    2    1    2    0    0  0.00000000000E+00  0.00000000000E+00  0.20799829949E+03  0.22506161732E+03  0.85961846166E+02 0.  0.
        -13    1    3    3    0    0  0.29219753705E+02 -0.82394897115E+01  0.18365640406E+03  0.18614875221E+03  0.00000000000E+00 0. -1.
         13    1    3    3    0    0 -0.29219753705E+02  0.82394897115E+01  0.24341895432E+02  0.38912865103E+02  0.00000000000E+00 0.  1.
<mgrwt>
<rscale>  0 0.85961846E+02</rscale>
<asrwt>0</asrwt>
<pdfrwt beam="1">  1        2 0.33312297E-01 0.85961846E+02</pdfrwt>
<pdfrwt beam="2">  1       -2 0.13125631E-02 0.85961846E+02</pdfrwt>
<totfact> 0.18639145E+05</totfact>
</mgrwt>
</event>
<event>
 5    1  0.1247456E+001  0.9094251E+02  0.7546771E-02  0.1300585E+00
         -2   -1    0    0    0  501 -0.00000000000E+00  0.00000000000E+00  0.91063738203E+01  0.91063738203E+01  0.00000000000E+00 0.  1.
          2   -1    0    0  501    0  0.00000000000E+00 -0.00000000000E+00 -0.22705360356E+03  0.22705360356E+03  0.00000000000E+00 0. -1.
         23    2    1    2    0    0  0.00000000000E+00  0.00000000000E+00 -0.21794722974E+03  0.23615997738E+03  0.90942509120E+02 0.  0.
        -13    1    3    3    0    0  0.45169034812E+02  0.46941852585E+01 -0.11498448135E+03  0.12362729485E+03  0.00000000000E+00 0. -1.
         13    1    3    3    0    0 -0.45169034812E+02 -0.46941852585E+01 -0.10296274839E+03  0.11253268253E+03  0.00000000000E+00 0.  1.
<mgrwt>
<rscale>  0 0.90942509E+02</rscale>
<asrwt>0</asrwt>
<pdfrwt beam="2">  1        2 0.34931323E-01 0.90942509E+02</pdfrwt>
<pdfrwt beam="1">  1       -2 0.14009806E-02 0.90942509E+02</pdfrwt>
<totfact> 0.16312772E+05</totfact>
</mgrwt>
</event>
<event>
 5    1  0.1247456E+001  0.9070319E+02  0.7546771E-02  0.1301158E+00
         -1   -1    0    0    0  501 -0.00000000000E+00  0.00000000000E+00  0.11935361115E+03  0.11935361115E+03  0.00000000000E+00 0.  1.
          1   -1    0    0  501    0  0.00000000000E+00 -0.00000000000E+00 -0.17232550626E+02  0.17232550626E+02  0.00000000000E+00 0. -1.
         23    2    1    2    0    0  0.00000000000E+00  0.00000000000E+00  0.10212106052E+03  0.13658616177E+03  0.90703189503E+02 0.  0.
        -13    1    3    3    0    0 -0.36005407099E+01  0.33216242299E+02  0.97241171971E+02  0.10282085475E+03  0.00000000000E+00 0.  1.
         13    1    3    3    0    0  0.36005407099E+01 -0.33216242299E+02  0.48798885489E+01  0.33765307020E+02  0.00000000000E+00 0. -1.
<mgrwt>
<rscale>  0 0.90703190E+02</rscale>
<asrwt>0</asrwt>
<pdfrwt beam="2">  1        1 0.26511617E-02 0.90703190E+02</pdfrwt>
<pdfrwt beam="1">  1       -1 0.18362093E-01 0.90703190E+02</pdfrwt>
<totfact> 0.79682399E+04</totfact>
</mgrwt>
</event>
<event>
 5    1  0.1247456E+001  0.8950852E+02  0.7546771E-02  0.1304046E+00
          1   -1    0    0  501    0  0.00000000000E+00  0.00000000000E+00  0.16334205339E+02  0.16334205339E+02  0.00000000000E+00 0. -1.
         -1   -1    0    0    0  501 -0.00000000000E+00 -0.00000000000E+00 -0.12262265412E+03  0.12262265412E+03  0.00000000000E+00 0.  1.
         23    2    1    2    0    0  0.00000000000E+00  0.00000000000E+00 -0.10628844878E+03  0.13895685946E+03  0.89508516057E+02 0.  0.
        -13    1    3    3    0    0 -0.47804068184E+01 -0.33691062170E+02 -0.98272103785E+02  0.10399685737E+03  0.00000000000E+00 0.  1.
         13    1    3    3    0    0  0.47804068184E+01  0.33691062170E+02 -0.80163449997E+01  0.34960002098E+02  0.00000000000E+00 0. -1.
<mgrwt>
<rscale>  0 0.89508516E+02</rscale>
<asrwt>0</asrwt>
<pdfrwt beam="1">  1        1 0.25129547E-02 0.89508516E+02</pdfrwt>
<pdfrwt beam="2">  1       -1 0.18865023E-01 0.89508516E+02</pdfrwt>
<totfact> 0.82001963E+04</totfact>
</mgrwt>
</event>
<event>
 5    1  0.1247456E+001  0.1015554E+03  0.7546771E-02  0.1277059E+00
          1   -1    0    0  501    0  0.00000000000E+00  0.00000000000E+00  0.35972366262E+03  0.35972366262E+03  0.00000000000E+00 0. -1.
         -1   -1    0    0    0  501 -0.00000000000E+00 -0.00000000000E+00 -0.71676561594E+01  0.71676561594E+01  0.00000000000E+00 0.  1.
         23    2    1    2    0    0  0.00000000000E+00  0.00000000000E+00  0.35255600647E+03  0.36689131878E+03  0.10155541396E+03 0.  0.
        -11    1    3    3    0    0  0.35071337844E+02 -0.36037467841E+02  0.15081467940E+03  0.15897724790E+03  0.00000000000E+00 0. -1.
         11    1    3    3    0    0 -0.35071337844E+02  0.36037467841E+02  0.20174132706E+03  0.20791407088E+03  0.00000000000E+00 0.  1.
<mgrwt>
<rscale>  0 0.10155541E+03</rscale>
<asrwt>0</asrwt>
<pdfrwt beam="1">  1        1 0.55342088E-01 0.10155541E+03</pdfrwt>
<pdfrwt beam="2">  1       -1 0.11027166E-02 0.10155541E+03</pdfrwt>
<totfact> 0.99298433E+04</totfact>
</mgrwt>
</event>
<event>
 5    1  0.1247456E+001  0.8950902E+02  0.7546771E-02  0.1304045E+00
          2   -1    0    0  501    0  0.00000000000E+00  0.00000000000E+00  0.40078271823E+02  0.40078271823E+02  0.00000000000E+00 0. -1.
         -2   -1    0    0    0  501 -0.00000000000E+00 -0.00000000000E+00 -0.49976355697E+02  0.49976355697E+02  0.00000000000E+00 0.  1.
         23    2    1    2    0    0  0.00000000000E+00  0.00000000000E+00 -0.98980838742E+01  0.90054627520E+02  0.89509015598E+02 0.  0.
        -13    1    3    3    0    0  0.85048555884E+01 -0.93371631995E+01  0.38248101348E+02  0.40279429513E+02  0.00000000000E+00 0. -1.
         13    1    3    3    0    0 -0.85048555884E+01  0.93371631995E+01 -0.48146185222E+02  0.49775198007E+02  0.00000000000E+00 0.  1.
<mgrwt>
<rscale>  0 0.89509016E+02</rscale>
<asrwt>0</asrwt>
<pdfrwt beam="1">  1        2 0.61658880E-02 0.89509016E+02</pdfrwt>
<pdfrwt beam="2">  1       -2 0.76886701E-02 0.89509016E+02</pdfrwt>
<totfact> 0.10066355E+05</totfact>
</mgrwt>
</event>
<event>
 5    1  0.1247456E+001  0.9097435E+02  0.7546771E-02  0.1300509E+00
          1   -1    0    0  501    0  0.00000000000E+00  0.00000000000E+00  0.37739099120E+03  0.37739099120E+03  0.00000000000E+00 0. -1.
         -1   -1    0    0    0  501 -0.00000000000E+00 -0.00000000000E+00 -0.54825976202E+01  0.54825976202E+01  0.00000000000E+00 0.  1.
         23    2    1    2    0    0  0.00000000000E+00  0.00000000000E+00  0.37190839358E+03  0.38287358882E+03  0.90974346939E+02 0.  0.
        -11    1    3    3    0    0 -0.31249148138E+02  0.33029507207E+02  0.19131968425E+03  0.19664861857E+03  0.00000000000E+00 0. -1.
         11    1    3    3    0    0  0.31249148138E+02 -0.33029507207E+02  0.18058870933E+03  0.18622497025E+03  0.00000000000E+00 0.  1.
<mgrwt>
<rscale>  0 0.90974347E+02</rscale>
<asrwt>0</asrwt>
<pdfrwt beam="1">  1        1 0.58060132E-01 0.90974347E+02</pdfrwt>
<pdfrwt beam="2">  1       -1 0.84347685E-03 0.90974347E+02</pdfrwt>
<totfact> 0.13437185E+05</totfact>
</mgrwt>
</event>
<event>
 5    1  0.1247456E+001  0.9051109E+02  0.7546771E-02  0.1301619E+00
         -1   -1    0    0    0  501 -0.00000000000E+00  0.00000000000E+00  0.59825805483E+02  0.59825805483E+02  0.00000000000E+00 0.  1.
          1   -1    0    0  501    0  0.00000000000E+00 -0.00000000000E+00 -0.34233792391E+02  0.34233792391E+02  0.00000000000E+00 0. -1.
         23    2    1    2    0    0  0.00000000000E+00  0.00000000000E+00  0.25592013092E+02  0.94059597874E+02  0.90511086714E+02 0.  0.
        -13    1    3    3    0    0  0.32643243389E+02 -0.31339400529E+02  0.13388298946E+02  0.47190951602E+02  0.00000000000E+00 0.  1.
         13    1    3    3    0    0 -0.32643243389E+02  0.31339400529E+02  0.12203714146E+02  0.46868646272E+02  0.00000000000E+00 0. -1.
<mgrwt>
<rscale>  0 0.90511087E+02</rscale>
<asrwt>0</asrwt>
<pdfrwt beam="2">  1        1 0.52667373E-02 0.90511087E+02</pdfrwt>
<pdfrwt beam="1">  1       -1 0.92039701E-02 0.90511087E+02</pdfrwt>
<totfact> 0.90383306E+04</totfact>
</mgrwt>
</event>
<event>
 5    1  0.1247456E+001  0.8776969E+02  0.7546771E-02  0.1308344E+00
          1   -1    0    0  501    0  0.00000000000E+00  0.00000000000E+00  0.18564220746E+03  0.18564220746E+03  0.00000000000E+00 0. -1.
         -1   -1    0    0    0  501 -0.00000000000E+00 -0.00000000000E+00 -0.10374146376E+02  0.10374146376E+02  0.00000000000E+00 0.  1.
         23    2    1    2    0    0  0.00000000000E+00  0.00000000000E+00  0.17526806109E+03  0.19601635384E+03  0.87769685740E+02 0.  0.
        -11    1    3    3    0    0 -0.25596112357E+01 -0.36522827549E+02  0.33598656467E+02  0.49692436630E+02  0.00000000000E+00 0.  1.
         11    1    3    3    0    0  0.25596112357E+01  0.36522827549E+02  0.14166940462E+03  0.14632391721E+03  0.00000000000E+00 0. -1.
<mgrwt>
<rscale>  0 0.87769686E+02</rscale>
<asrwt>0</asrwt>
<pdfrwt beam="1">  1        1 0.28560337E-01 0.87769686E+02</pdfrwt>
<pdfrwt beam="2">  1       -1 0.15960227E-02 0.87769686E+02</pdfrwt>
<totfact> 0.12924722E+05</totfact>
</mgrwt>
</event>
<event>
 5    1  0.1247456E+001  0.9266830E+02  0.7546771E-02  0.1296516E+00
         -2   -1    0    0    0  501 -0.00000000000E+00  0.00000000000E+00  0.40318362425E+02  0.40318362425E+02  0.00000000000E+00 0.  1.
          2   -1    0    0  501    0  0.00000000000E+00 -0.00000000000E+00 -0.53247541348E+02  0.53247541348E+02  0.00000000000E+00 0. -1.
         23    2    1    2    0    0  0.00000000000E+00  0.00000000000E+00 -0.12929178923E+02  0.93565903773E+02  0.92668304621E+02 0.  0.
        -11    1    3    3    0    0 -0.40330978741E+02 -0.17990252561E+02  0.76932352457E+01  0.44826586999E+02  0.00000000000E+00 0.  1.
         11    1    3    3    0    0  0.40330978741E+02  0.17990252561E+02 -0.20622414169E+02  0.48739316774E+02  0.00000000000E+00 0. -1.
<mgrwt>
<rscale>  0 0.92668305E+02</rscale>
<asrwt>0</asrwt>
<pdfrwt beam="2">  1        2 0.81919295E-02 0.92668305E+02</pdfrwt>
<pdfrwt beam="1">  1       -2 0.62028250E-02 0.92668305E+02</pdfrwt>
<totfact> 0.98119324E+04</totfact>
</mgrwt>
</event>
<event>
 5    1  0.1247456E+001  0.8941408E+02  0.7546771E-02  0.1304277E+00
          3   -1    0    0  501    0  0.00000000000E+00  0.00000000000E+00  0.30075606424E+02  0.30075606424E+02  0.00000000000E+00 0. -1.
         -3   -1    0    0    0  501 -0.00000000000E+00 -0.00000000000E+00 -0.66456496449E+02  0.66456496449E+02  0.00000000000E+00 0.  1.
         23    2    1    2    0    0  0.00000000000E+00  0.00000000000E+00 -0.36380890025E+02  0.96532102873E+02  0.89414080134E+02 0.  0.
        -13    1    3    3    0    0  0.17251816845E+02  0.24393750338E+01 -0.62640173606E+02  0.65018205792E+02  0.00000000000E+00 0.  1.
         13    1    3    3    0    0 -0.17251816845E+02 -0.24393750338E+01  0.26259283582E+02  0.31513897081E+02  0.00000000000E+00 0. -1.
<mgrwt>
<rscale>  0 0.89414080E+02</rscale>
<asrwt>0</asrwt>
<pdfrwt beam="1">  1        3 0.46270163E-02 0.89414080E+02</pdfrwt>
<pdfrwt beam="2">  1       -3 0.10224076E-01 0.89414080E+02</pdfrwt>
<totfact> 0.36833434E+04</totfact>
</mgrwt>
</event>
<event>
 5    1  0.1247456E+001  0.9076258E+02  0.7546771E-02  0.1301015E+00
         -2   -1    0    0    0  501 -0.00000000000E+00  0.00000000000E+00  0.21362847961E+02  0.21362847961E+02  0.00000000000E+00 0.  1.
          2   -1    0    0  501    0  0.00000000000E+00 -0.00000000000E+00 -0.96403890756E+02  0.96403890756E+02  0.00000000000E+00 0. -1.
         23    2    1    2    0    0  0.00000000000E+00  0.00000000000E+00 -0.75041042795E+02  0.11776673872E+03  0.90762583945E+02 0.  0.
        -11    1    3    3    0    0 -0.22454394904E+02  0.32701617130E+02 -0.89199919495E+01  0.40659093323E+02  0.00000000000E+00 0.  1.
         11    1    3    3    0    0  0.22454394904E+02 -0.32701617130E+02 -0.66121050846E+02  0.77107645395E+02  0.00000000000E+00 0. -1.
<mgrwt>
<rscale>  0 0.90762584E+02</rscale>
<asrwt>0</asrwt>
<pdfrwt beam="2">  1        2 0.14831368E-01 0.90762584E+02</pdfrwt>
<pdfrwt beam="1">  1       -2 0.32865919E-02 0.90762584E+02</pdfrwt>
<totfact> 0.12285442E+05</totfact>
</mgrwt>
</event>
<event>
 5    1  0.1247456E+001  0.9168031E+02  0.7546771E-02  0.1298833E+00
          2   -1    0    0  501    0  0.00000000000E+00  0.00000000000E+00  0.11671711858E+02  0.11671711858E+02  0.00000000000E+00 0. -1.
         -2   -1    0    0    0  501 -0.00000000000E+00 -0.00000000000E+00 -0.18003525236E+03  0.18003525236E+03  0.00000000000E+00 0.  1.
         23    2    1    2    0    0  0.00000000000E+00  0.00000000000E+00 -0.16836354050E+03  0.19170696421E+03  0.91680305187E+02 0.  0.
        -11    1    3    3    0    0 -0.95564981691E+01  0.43066471343E+02 -0.11023780851E+03  0.11873677626E+03  0.00000000000E+00 0.  1.
         11    1    3    3    0    0  0.95564981691E+01 -0.43066471343E+02 -0.58125731991E+02  0.72970187958E+02  0.00000000000E+00 0. -1.
<mgrwt>
<rscale>  0 0.91680305E+02</rscale>
<asrwt>0</asrwt>
<pdfrwt beam="1">  1        2 0.17956479E-02 0.91680305E+02</pdfrwt>
<pdfrwt beam="2">  1       -2 0.27697732E-01 0.91680305E+02</pdfrwt>
<totfact> 0.64220719E+04</totfact>
</mgrwt>
</event>
<event>
 5    1  0.1247456E+001  0.9264357E+02  0.7546771E-02  0.1296573E+00
          1   -1    0    0  501    0  0.00000000000E+00  0.00000000000E+00  0.42495090237E+02  0.42495090237E+02  0.00000000000E+00 0. -1.
         -1   -1    0    0    0  501 -0.00000000000E+00 -0.00000000000E+00 -0.50493074762E+02  0.50493074762E+02  0.00000000000E+00 0.  1.
         23    2    1    2    0    0  0.00000000000E+00  0.00000000000E+00 -0.79979845251E+01  0.92988164999E+02  0.92643570060E+02 0.  0.
        -11    1    3    3    0    0  0.18067784513E+02 -0.42652185794E+02 -0.37657961929E+01  0.46474025124E+02  0.00000000000E+00 0.  1.
         11    1    3    3    0    0 -0.18067784513E+02  0.42652185794E+02 -0.42321883322E+01  0.46514139875E+02  0.00000000000E+00 0. -1.
<mgrwt>
<rscale>  0 0.92643570E+02</rscale>
<asrwt>0</asrwt>
<pdfrwt beam="1">  1        1 0.65377062E-02 0.92643570E+02</pdfrwt>
<pdfrwt beam="2">  1       -1 0.77681654E-02 0.92643570E+02</pdfrwt>
<totfact> 0.87468127E+04</totfact>
</mgrwt>
</event>
<event>
 5    1  0.1247456E+001  0.9266371E+02  0.7546771E-02  0.1296526E+00
          3   -1    0    0  501    0  0.00000000000E+00  0.00000000000E+00  0.20885151046E+03  0.20885151046E+03  0.00000000000E+00 0. -1.
         -3   -1    0    0    0  501 -0.00000000000E+00 -0.00000000000E+00 -0.10278310631E+02  0.10278310631E+02  0.00000000000E+00 0.  1.
         23    2    1    2    0    0  0.00000000000E+00  0.00000000000E+00  0.19857319983E+03  0.21912982109E+03  0.92663708110E+02 0.  0.
        -13    1    3    3    0    0  0.45616486943E+02  0.79675297484E+01  0.10286930023E+03  0.11281151688E+03  0.00000000000E+00 0. -1.
         13    1    3    3    0    0 -0.45616486943E+02 -0.79675297484E+01  0.95703899602E+02  0.10631830421E+03  0.00000000000E+00 0.  1.
<mgrwt>
<rscale>  0 0.92663708E+02</rscale>
<asrwt>0</asrwt>
<pdfrwt beam="1">  1        3 0.32130998E-01 0.92663708E+02</pdfrwt>
<pdfrwt beam="2">  1       -3 0.15812787E-02 0.92663708E+02</pdfrwt>
<totfact> 0.26361512E+04</totfact>
</mgrwt>
</event>
<event>
 5    1  0.1247456E+001  0.9274936E+02  0.7546771E-02  0.1296327E+00
          3   -1    0    0  501    0  0.00000000000E+00  0.00000000000E+00  0.10466749805E+03  0.10466749805E+03  0.00000000000E+00 0. -1.
         -3   -1    0    0    0  501 -0.00000000000E+00 -0.00000000000E+00 -0.20547074056E+02  0.20547074056E+02  0.00000000000E+00 0.  1.
         23    2    1    2    0    0  0.00000000000E+00  0.00000000000E+00  0.84120423992E+02  0.12521457210E+03  0.92749357595E+02 0.  0.
        -13    1    3    3    0    0 -0.31903552971E+02 -0.12808996526E+02  0.41817535852E-01  0.34378900984E+02  0.00000000000E+00 0.  1.
         13    1    3    3    0    0  0.31903552971E+02  0.12808996526E+02  0.84078606456E+02  0.90835671119E+02  0.00000000000E+00 0. -1.
<mgrwt>
<rscale>  0 0.92749358E+02</rscale>
<asrwt>0</asrwt>
<pdfrwt beam="1">  1        3 0.16102692E-01 0.92749358E+02</pdfrwt>
<pdfrwt beam="2">  1       -3 0.31610884E-02 0.92749358E+02</pdfrwt>
<totfact> 0.31397669E+04</totfact>
</mgrwt>
</event>
<event>
 5    1  0.1247456E+001  0.9579566E+02  0.7546771E-02  0.1289394E+00
         -1   -1    0    0    0  501 -0.00000000000E+00  0.00000000000E+00  0.36232573843E+03  0.36232573843E+03  0.00000000000E+00 0.  1.
          1   -1    0    0  501    0  0.00000000000E+00 -0.00000000000E+00 -0.63318778898E+01  0.63318778898E+01  0.00000000000E+00 0. -1.
         23    2    1    2    0    0  0.00000000000E+00  0.00000000000E+00  0.35599386054E+03  0.36865761632E+03  0.95795664454E+02 0.  0.
        -11    1    3    3    0    0  0.25740344505E+01  0.45415124543E+02  0.23572808542E+03  0.24007684071E+03  0.00000000000E+00 0.  1.
         11    1    3    3    0    0 -0.25740344505E+01 -0.45415124543E+02  0.12026577512E+03  0.12858077561E+03  0.00000000000E+00 0. -1.
<mgrwt>
<rscale>  0 0.95795664E+02</rscale>
<asrwt>0</asrwt>
<pdfrwt beam="2">  1        1 0.97413534E-03 0.95795664E+02</pdfrwt>
<pdfrwt beam="1">  1       -1 0.55742405E-01 0.95795664E+02</pdfrwt>
<totfact> 0.49101075E+04</totfact>
</mgrwt>
</event>
<event>
 5    1  0.1247456E+001  0.8810888E+02  0.7546771E-02  0.1307497E+00
         -1   -1    0    0    0  501 -0.00000000000E+00  0.00000000000E+00  0.17776401638E+03  0.17776401638E+03  0.00000000000E+00 0.  1.
          1   -1    0    0  501    0  0.00000000000E+00 -0.00000000000E+00 -0.10917809103E+02  0.10917809103E+02  0.00000000000E+00 0. -1.
         23    2    1    2    0    0  0.00000000000E+00  0.00000000000E+00  0.16684620728E+03  0.18868182548E+03  0.88108878015E+02 0.  0.
        -11    1    3    3    0    0 -0.47912543707E+01 -0.33089637043E+02  0.21992120603E+02  0.40019164992E+02  0.00000000000E+00 0. -1.
         11    1    3    3    0    0  0.47912543707E+01  0.33089637043E+02  0.14485408668E+03  0.14866266049E+03  0.00000000000E+00 0.  1.
<mgrwt>
<rscale>  0 0.88108878E+02</rscale>
<asrwt>0</asrwt>
<pdfrwt beam="2">  1        1 0.16796631E-02 0.88108878E+02</pdfrwt>
<pdfrwt beam="1">  1       -1 0.27348308E-01 0.88108878E+02</pdfrwt>
<totfact> 0.78371996E+04</totfact>
</mgrwt>
</event>
<event>
 5    1  0.1247456E+001  0.9060993E+02  0.7546771E-02  0.1301381E+00
          1   -1    0    0  501    0  0.00000000000E+00  0.00000000000E+00  0.32704937125E+03  0.32704937125E+03  0.00000000000E+00 0. -1.
         -1   -1    0    0    0  501 -0.00000000000E+00 -0.00000000000E+00 -0.62759326464E+01  0.62759326464E+01  0.00000000000E+00 0.  1.
         23    2    1    2    0    0  0.00000000000E+00  0.00000000000E+00  0.32077343860E+03  0.33332530389E+03  0.90609929390E+02 0.  0.
        -11    1    3    3    0    0 -0.92589054296E+01  0.43678131983E+02  0.13212224196E+03  0.13946251598E+03  0.00000000000E+00 0.  1.
         11    1    3    3    0    0  0.92589054296E+01 -0.43678131983E+02  0.18865119664E+03  0.19386278791E+03  0.00000000000E+00 0. -1.
<mgrwt>
<rscale>  0 0.90609929E+02</rscale>
<asrwt>0</asrwt>
<pdfrwt beam="1">  1        1 0.50315275E-01 0.90609929E+02</pdfrwt>
<pdfrwt beam="2">  1       -1 0.96552836E-03 0.90609929E+02</pdfrwt>
<totfact> 0.13239543E+05</totfact>
</mgrwt>
</event>
<event>
 5    1  0.1247456E+001  0.9086093E+02  0.7546771E-02  0.1300780E+00
          1   -1    0    0  501    0  0.00000000000E+00  0.00000000000E+00  0.27640689643E+03  0.27640689643E+03  0.00000000000E+00 0. -1.
         -1   -1    0    0    0  501 -0.00000000000E+00 -0.00000000000E+00 -0.74669883871E+01  0.74669883871E+01  0.00000000000E+00 0.  1.
         23    2    1    2    0    0  0.00000000000E+00  0.00000000000E+00  0.26893990804E+03  0.28387388482E+03  0.90860928584E+02 0.  0.
        -13    1    3    3    0    0 -0.33966844255E+02 -0.29987349683E+02  0.14480341345E+03  0.15172678141E+03  0.00000000000E+00 0.  1.
         13    1    3    3    0    0  0.33966844255E+02  0.29987349683E+02  0.12413649459E+03  0.13214710341E+03  0.00000000000E+00 0. -1.
<mgrwt>
<rscale>  0 0.90860929E+02</rscale>
<asrwt>0</asrwt>
<pdfrwt beam="1">  1        1 0.42524130E-01 0.90860929E+02</pdfrwt>
<pdfrwt beam="2">  1       -1 0.11487677E-02 0.90860929E+02</pdfrwt>
<totfact> 0.12728945E+05</totfact>
</mgrwt>
</event>
<event>
 5    1  0.1247456E+001  0.9211477E+02  0.7546771E-02  0.1297810E+00
          2   -1    0    0  501    0  0.00000000000E+00  0.00000000000E+00  0.43828698717E+03  0.43828698717E+03  0.00000000000E+00 0.  1.
         -2   -1    0    0    0  501 -0.00000000000E+00 -0.00000000000E+00 -0.48399401873E+01  0.48399401873E+01  0.00000000000E+00 0. -1.
         23    2    1    2    0    0  0.00000000000E+00  0.00000000000E+00  0.43344704699E+03  0.44312692736E+03  0.92114771948E+02 0.  0.
        -13    1    3    3    0    0  0.32837663338E+02 -0.31637503290E+02  0.24791423859E+03  0.25207283361E+03  0.00000000000E+00 0.  1.
         13    1    3    3    0    0 -0.32837663338E+02  0.31637503290E+02  0.18553280839E+03  0.19105409375E+03  0.00000000000E+00 0. -1.
<mgrwt>
<rscale>  0 0.92114772E+02</rscale>
<asrwt>0</asrwt>
<pdfrwt beam="1">  1        2 0.67428736E-01 0.92114772E+02</pdfrwt>
<pdfrwt beam="2">  1       -2 0.74460653E-03 0.92114772E+02</pdfrwt>
<totfact> 0.20063310E+05</totfact>
</mgrwt>
</event>
<event>
 5    1  0.1247456E+001  0.9242090E+02  0.7546771E-02  0.1297093E+00
          1   -1    0    0  501    0  0.00000000000E+00  0.00000000000E+00  0.51651083347E+02  0.51651083347E+02  0.00000000000E+00 0. -1.
         -1   -1    0    0    0  501 -0.00000000000E+00 -0.00000000000E+00 -0.41342904036E+02  0.41342904036E+02  0.00000000000E+00 0.  1.
         23    2    1    2    0    0  0.00000000000E+00  0.00000000000E+00  0.10308179311E+02  0.92993987383E+02  0.92420902012E+02 0.  0.
        -11    1    3    3    0    0  0.32717566892E+02 -0.16507762313E+01 -0.27640054898E+02  0.42861834775E+02  0.00000000000E+00 0.  1.
         11    1    3    3    0    0 -0.32717566892E+02  0.16507762313E+01  0.37948234209E+02  0.50132152608E+02  0.00000000000E+00 0. -1.
<mgrwt>
<rscale>  0 0.92420902E+02</rscale>
<asrwt>0</asrwt>
<pdfrwt beam="1">  1        1 0.79463206E-02 0.92420902E+02</pdfrwt>
<pdfrwt beam="2">  1       -1 0.63604467E-02 0.92420902E+02</pdfrwt>
<totfact> 0.90717596E+04</totfact>
</mgrwt>
</event>
<event>
 5    1  0.1247456E+001  0.9086202E+02  0.7546771E-02  0.1300778E+00
          1   -1    0    0  501    0  0.00000000000E+00  0.00000000000E+00  0.41575170787E+02  0.41575170787E+02  0.00000000000E+00 0. -1.
         -1   -1    0    0    0  501 -0.00000000000E+00 -0.00000000000E+00 -0.49644459671E+02  0.49644459671E+02  0.00000000000E+00 0.  1.
         23    2    1    2    0    0  0.00000000000E+00  0.00000000000E+00 -0.80692888838E+01  0.91219630459E+02  0.90862024839E+02 0.  0.
        -13    1    3    3    0    0 -0.44305054807E+02 -0.22225368718E+01  0.58069643011E+01  0.44739226480E+02  0.00000000000E+00 0. -1.
         13    1    3    3    0    0  0.44305054807E+02  0.22225368718E+01 -0.13876253185E+02  0.46480403979E+02  0.00000000000E+00 0.  1.
<mgrwt>
<rscale>  0 0.90862025E+02</rscale>
<asrwt>0</asrwt>
<pdfrwt beam="1">  1        1 0.63961802E-02 0.90862025E+02</pdfrwt>
<pdfrwt beam="2">  1       -1 0.76376091E-02 0.90862025E+02</pdfrwt>
<totfact> 0.92089580E+04</totfact>
</mgrwt>
</event>
<event>
 5    1  0.1247456E+001  0.8865571E+02  0.7546771E-02  0.1306140E+00
          2   -1    0    0  501    0  0.00000000000E+00  0.00000000000E+00  0.22508424675E+03  0.22508424675E+03  0.00000000000E+00 0. -1.
         -2   -1    0    0    0  501 -0.00000000000E+00 -0.00000000000E+00 -0.87298805059E+01  0.87298805059E+01  0.00000000000E+00 0.  1.
         23    2    1    2    0    0  0.00000000000E+00  0.00000000000E+00  0.21635436625E+03  0.23381412726E+03  0.88655706594E+02 0.  0.
        -13    1    3    3    0    0  0.31750662950E+02  0.15192927562E+02  0.37114595688E+02  0.51150981014E+02  0.00000000000E+00 0.  1.
         13    1    3    3    0    0 -0.31750662950E+02 -0.15192927562E+02  0.17923977056E+03  0.18266314624E+03  0.00000000000E+00 0. -1.
<mgrwt>
<rscale>  0 0.88655707E+02</rscale>
<asrwt>0</asrwt>
<pdfrwt beam="1">  1        2 0.34628341E-01 0.88655707E+02</pdfrwt>
<pdfrwt beam="2">  1       -2 0.13430587E-02 0.88655707E+02</pdfrwt>
<totfact> 0.17408280E+05</totfact>
</mgrwt>
</event>
<event>
 5    1  0.1247456E+001  0.6969723E+02  0.7546771E-02  0.1361126E+00
          1   -1    0    0  501    0  0.00000000000E+00  0.00000000000E+00  0.35573535299E+02  0.35573535299E+02  0.00000000000E+00 0.  1.
         -1   -1    0    0    0  501 -0.00000000000E+00 -0.00000000000E+00 -0.34138469151E+02  0.34138469151E+02  0.00000000000E+00 0. -1.
         23    2    1    2    0    0  0.00000000000E+00  0.00000000000E+00  0.14350661479E+01  0.69712004449E+02  0.69697232007E+02 0.  0.
        -13    1    3    3    0    0 -0.30394292818E+02 -0.10277875390E+02 -0.12886021614E+02  0.34575964361E+02  0.00000000000E+00 0.  1.
         13    1    3    3    0    0  0.30394292818E+02  0.10277875390E+02  0.14321087762E+02  0.35136040089E+02  0.00000000000E+00 0. -1.
<mgrwt>
<rscale>  0 0.69697232E+02</rscale>
<asrwt>0</asrwt>
<pdfrwt beam="1">  1        1 0.54728515E-02 0.69697232E+02</pdfrwt>
<pdfrwt beam="2">  1       -1 0.52520722E-02 0.69697232E+02</pdfrwt>
<totfact> 0.18768756E+05</totfact>
</mgrwt>
</event>
<event>
 5    1  0.1247456E+001  0.8860919E+02  0.7546771E-02  0.1306255E+00
          3   -1    0    0  501    0  0.00000000000E+00  0.00000000000E+00  0.13817218247E+02  0.13817218247E+02  0.00000000000E+00 0. -1.
         -3   -1    0    0    0  501 -0.00000000000E+00 -0.00000000000E+00 -0.14206166687E+03  0.14206166687E+03  0.00000000000E+00 0.  1.
         23    2    1    2    0    0  0.00000000000E+00  0.00000000000E+00 -0.12824444862E+03  0.15587888511E+03  0.88609188137E+02 0.  0.
        -13    1    3    3    0    0 -0.15880383404E+02  0.38995966655E+02 -0.39872099605E+02  0.57988415389E+02  0.00000000000E+00 0. -1.
         13    1    3    3    0    0  0.15880383404E+02 -0.38995966655E+02 -0.88372349014E+02  0.97890469723E+02  0.00000000000E+00 0.  1.
<mgrwt>
<rscale>  0 0.88609188E+02</rscale>
<asrwt>0</asrwt>
<pdfrwt beam="1">  1        3 0.21257261E-02 0.88609188E+02</pdfrwt>
<pdfrwt beam="2">  1       -3 0.21855639E-01 0.88609188E+02</pdfrwt>
<totfact> 0.33432367E+04</totfact>
</mgrwt>
</event>
<event>
 5    1  0.1247456E+001  0.9153064E+02  0.7546771E-02  0.1299187E+00
          1   -1    0    0  501    0  0.00000000000E+00  0.00000000000E+00  0.15924474898E+03  0.15924474898E+03  0.00000000000E+00 0. -1.
         -1   -1    0    0    0  501 -0.00000000000E+00 -0.00000000000E+00 -0.13152486301E+02  0.13152486301E+02  0.00000000000E+00 0.  1.
         23    2    1    2    0    0  0.00000000000E+00  0.00000000000E+00  0.14609226267E+03  0.17239723528E+03  0.91530637045E+02 0.  0.
        -13    1    3    3    0    0  0.32655544640E+02 -0.16255956542E+01  0.12732100914E+02  0.35087512745E+02  0.00000000000E+00 0.  1.
         13    1    3    3    0    0 -0.32655544640E+02  0.16255956542E+01  0.13336016176E+03  0.13730972253E+03  0.00000000000E+00 0. -1.
<mgrwt>
<rscale>  0 0.91530637E+02</rscale>
<asrwt>0</asrwt>
<pdfrwt beam="1">  1        1 0.24499191E-01 0.91530637E+02</pdfrwt>
<pdfrwt beam="2">  1       -1 0.20234595E-02 0.91530637E+02</pdfrwt>
<totfact> 0.11220211E+05</totfact>
</mgrwt>
</event>
<event>
 5    1  0.1247456E+001  0.9279228E+02  0.7546771E-02  0.1296227E+00
          4   -1    0    0  501    0  0.00000000000E+00  0.00000000000E+00  0.17269215566E+03  0.17269215566E+03  0.00000000000E+00 0. -1.
         -4   -1    0    0    0  501 -0.00000000000E+00 -0.00000000000E+00 -0.12464964710E+02  0.12464964710E+02  0.00000000000E+00 0.  1.
         23    2    1    2    0    0  0.00000000000E+00  0.00000000000E+00  0.16022719095E+03  0.18515712037E+03  0.92792276100E+02 0.  0.
        -13    1    3    3    0    0 -0.28438415567E+02  0.33482458193E+02  0.50330505743E+02  0.66805525931E+02  0.00000000000E+00 0.  1.
         13    1    3    3    0    0  0.28438415567E+02 -0.33482458193E+02  0.10989668521E+03  0.11835159444E+03  0.00000000000E+00 0. -1.
<mgrwt>
<rscale>  0 0.92792276E+02</rscale>
<asrwt>0</asrwt>
<pdfrwt beam="1">  1        4 0.26568022E-01 0.92792276E+02</pdfrwt>
<pdfrwt beam="2">  1       -4 0.19176870E-02 0.92792276E+02</pdfrwt>
<totfact> 0.21006787E+04</totfact>
</mgrwt>
</event>
<event>
 5    1  0.1247456E+001  0.9197467E+02  0.7546771E-02  0.1298139E+00
          1   -1    0    0  501    0  0.00000000000E+00  0.00000000000E+00  0.69560807885E+02  0.69560807885E+02  0.00000000000E+00 0. -1.
         -1   -1    0    0    0  501 -0.00000000000E+00 -0.00000000000E+00 -0.30402681415E+02  0.30402681415E+02  0.00000000000E+00 0.  1.
         23    2    1    2    0    0  0.00000000000E+00  0.00000000000E+00  0.39158126470E+02  0.99963489300E+02  0.91974672189E+02 0.  0.
        -11    1    3    3    0    0 -0.14428503805E+01 -0.38359680676E+02 -0.79441902607E+01  0.39200217827E+02  0.00000000000E+00 0.  1.
         11    1    3    3    0    0  0.14428503805E+01  0.38359680676E+02  0.47102316730E+02  0.60763271473E+02  0.00000000000E+00 0. -1.
<mgrwt>
<rscale>  0 0.91974672E+02</rscale>
<asrwt>0</asrwt>
<pdfrwt beam="1">  1        1 0.10701663E-01 0.91974672E+02</pdfrwt>
<pdfrwt beam="2">  1       -1 0.46773356E-02 0.91974672E+02</pdfrwt>
<totfact> 0.96226778E+04</totfact>
</mgrwt>
</event>
<event>
 5    1  0.1247456E+001  0.9109035E+02  0.7546771E-02  0.1300233E+00
         -3   -1    0    0    0  501 -0.00000000000E+00  0.00000000000E+00  0.17739676211E+02  0.17739676211E+02  0.00000000000E+00 0.  1.
          3   -1    0    0  501    0  0.00000000000E+00 -0.00000000000E+00 -0.11693353859E+03  0.11693353859E+03  0.00000000000E+00 0. -1.
         23    2    1    2    0    0  0.00000000000E+00  0.00000000000E+00 -0.99193862374E+02  0.13467321480E+03  0.91090353227E+02 0.  0.
        -11    1    3    3    0    0  0.32384130017E+00  0.18609476114E+02  0.11860425745E+02  0.22070051501E+02  0.00000000000E+00 0.  1.
         11    1    3    3    0    0 -0.32384130017E+00 -0.18609476114E+02 -0.11105428812E+03  0.11260316330E+03  0.00000000000E+00 0. -1.
<mgrwt>
<rscale>  0 0.91090353E+02</rscale>
<asrwt>0</asrwt>
<pdfrwt beam="2">  1        3 0.17989775E-01 0.91090353E+02</pdfrwt>
<pdfrwt beam="1">  1       -3 0.27291810E-02 0.91090353E+02</pdfrwt>
<totfact> 0.32354395E+04</totfact>
</mgrwt>
</event>
<event>
 5    1  0.1247456E+001  0.8968088E+02  0.7546771E-02  0.1303626E+00
         -2   -1    0    0    0  501 -0.00000000000E+00  0.00000000000E+00  0.54512417770E+02  0.54512417770E+02  0.00000000000E+00 0.  1.
          2   -1    0    0  501    0  0.00000000000E+00 -0.00000000000E+00 -0.36884535196E+02  0.36884535196E+02  0.00000000000E+00 0. -1.
         23    2    1    2    0    0  0.00000000000E+00  0.00000000000E+00  0.17627882574E+02  0.91396952967E+02  0.89680882955E+02 0.  0.
        -13    1    3    3    0    0  0.35333759806E+02 -0.10540978623E+02 -0.17190556973E+02  0.40682945584E+02  0.00000000000E+00 0. -1.
         13    1    3    3    0    0 -0.35333759806E+02  0.10540978623E+02  0.34818439547E+02  0.50714007383E+02  0.00000000000E+00 0.  1.
<mgrwt>
<rscale>  0 0.89680883E+02</rscale>
<asrwt>0</asrwt>
<pdfrwt beam="2">  1        2 0.56745439E-02 0.89680883E+02</pdfrwt>
<pdfrwt beam="1">  1       -2 0.83865258E-02 0.89680883E+02</pdfrwt>
<totfact> 0.98006640E+04</totfact>
</mgrwt>
</event>
<event>
 5    1  0.1247456E+001  0.9244276E+02  0.7546771E-02  0.1297042E+00
         -1   -1    0    0    0  501 -0.00000000000E+00  0.00000000000E+00  0.97027476363E+01  0.97027476363E+01  0.00000000000E+00 0.  1.
          1   -1    0    0  501    0  0.00000000000E+00 -0.00000000000E+00 -0.22018669814E+03  0.22018669814E+03  0.00000000000E+00 0. -1.
         23    2    1    2    0    0  0.00000000000E+00  0.00000000000E+00 -0.21048395050E+03  0.22988944578E+03  0.92442759910E+02 0.  0.
        -11    1    3    3    0    0 -0.41655476395E+01 -0.43913813367E+02 -0.70905597244E+02  0.83506757284E+02  0.00000000000E+00 0.  1.
         11    1    3    3    0    0  0.41655476395E+01  0.43913813367E+02 -0.13957835326E+03  0.14638268849E+03  0.00000000000E+00 0. -1.
<mgrwt>
<rscale>  0 0.92442760E+02</rscale>
<asrwt>0</asrwt>
<pdfrwt beam="2">  1        1 0.33874879E-01 0.92442760E+02</pdfrwt>
<pdfrwt beam="1">  1       -1 0.14927303E-02 0.92442760E+02</pdfrwt>
<totfact> 0.11626434E+05</totfact>
</mgrwt>
</event>
<event>
 5    1  0.1247456E+001  0.5957895E+02  0.7546771E-02  0.1399607E+00
          2   -1    0    0  501    0  0.00000000000E+00  0.00000000000E+00  0.10415352897E+02  0.10415352897E+02  0.00000000000E+00 0. -1.
         -2   -1    0    0    0  501 -0.00000000000E+00 -0.00000000000E+00 -0.85202378376E+02  0.85202378376E+02  0.00000000000E+00 0.  1.
         23    2    1    2    0    0  0.00000000000E+00  0.00000000000E+00 -0.74787025479E+02  0.95617731273E+02  0.59578950594E+02 0.  0.
        -11    1    3    3    0    0  0.16957837462E+02  0.52764885501E+01  0.99001046246E+00  0.17787346725E+02  0.00000000000E+00 0. -1.
         11    1    3    3    0    0 -0.16957837462E+02 -0.52764885501E+01 -0.75777035941E+02  0.77830384548E+02  0.00000000000E+00 0.  1.
<mgrwt>
<rscale>  0 0.59578951E+02</rscale>
<asrwt>0</asrwt>
<pdfrwt beam="1">  1        2 0.16023620E-02 0.59578951E+02</pdfrwt>
<pdfrwt beam="2">  1       -2 0.13108058E-01 0.59578951E+02</pdfrwt>
<totfact> 0.23893163E+05</totfact>
</mgrwt>
</event>
<event>
 5    1  0.1247456E+001  0.9044786E+02  0.7546771E-02  0.1301771E+00
          1   -1    0    0  501    0  0.00000000000E+00  0.00000000000E+00  0.50588136020E+02  0.50588136020E+02  0.00000000000E+00 0. -1.
         -1   -1    0    0    0  501 -0.00000000000E+00 -0.00000000000E+00 -0.40428522987E+02  0.40428522987E+02  0.00000000000E+00 0.  1.
         23    2    1    2    0    0  0.00000000000E+00  0.00000000000E+00  0.10159613033E+02  0.91016659007E+02  0.90447855032E+02 0.  0.
        -13    1    3    3    0    0 -0.21526336790E+02  0.99820127745E+01 -0.33661393792E+02  0.41183894748E+02  0.00000000000E+00 0.  1.
         13    1    3    3    0    0  0.21526336790E+02 -0.99820127745E+01  0.43821006825E+02  0.49832764259E+02  0.00000000000E+00 0. -1.
<mgrwt>
<rscale>  0 0.90447855E+02</rscale>
<asrwt>0</asrwt>
<pdfrwt beam="1">  1        1 0.77827901E-02 0.90447855E+02</pdfrwt>
<pdfrwt beam="2">  1       -1 0.62197728E-02 0.90447855E+02</pdfrwt>
<totfact> 0.96056235E+04</totfact>
</mgrwt>
</event>
<event>
 5    1  0.1247456E+001  0.9237266E+02  0.7546771E-02  0.1297206E+00
          2   -1    0    0  501    0  0.00000000000E+00  0.00000000000E+00  0.26840099649E+02  0.26840099649E+02  0.00000000000E+00 0. -1.
         -2   -1    0    0    0  501 -0.00000000000E+00 -0.00000000000E+00 -0.79477240768E+02  0.79477240768E+02  0.00000000000E+00 0.  1.
         23    2    1    2    0    0  0.00000000000E+00  0.00000000000E+00 -0.52637141119E+02  0.10631734042E+03  0.92372659635E+02 0.  0.
        -11    1    3    3    0    0  0.37439732553E+02  0.24726810844E+02 -0.38928205348E+02  0.59401632299E+02  0.00000000000E+00 0.  1.
         11    1    3    3    0    0 -0.37439732553E+02 -0.24726810844E+02 -0.13708935770E+02  0.46915708117E+02  0.00000000000E+00 0. -1.
<mgrwt>
<rscale>  0 0.92372660E+02</rscale>
<asrwt>0</asrwt>
<pdfrwt beam="1">  1        2 0.41292462E-02 0.92372660E+02</pdfrwt>
<pdfrwt beam="2">  1       -2 0.12227268E-01 0.92372660E+02</pdfrwt>
<totfact> 0.82546420E+04</totfact>
</mgrwt>
</event>
<event>
 5    1  0.1247456E+001  0.9134669E+02  0.7546771E-02  0.1299623E+00
          1   -1    0    0  501    0  0.00000000000E+00  0.00000000000E+00  0.23427558759E+02  0.23427558759E+02  0.00000000000E+00 0. -1.
         -1   -1    0    0    0  501 -0.00000000000E+00 -0.00000000000E+00 -0.89042752726E+02  0.89042752726E+02  0.00000000000E+00 0.  1.
         23    2    1    2    0    0  0.00000000000E+00  0.00000000000E+00 -0.65615193966E+02  0.11247031149E+03  0.91346687331E+02 0.  0.
        -13    1    3    3    0    0  0.19223200167E+02 -0.34356232094E+02 -0.61317598943E+02  0.72867894497E+02  0.00000000000E+00 0.  1.
         13    1    3    3    0    0 -0.19223200167E+02  0.34356232094E+02 -0.42975950236E+01  0.39602416988E+02  0.00000000000E+00 0. -1.
<mgrwt>
<rscale>  0 0.91346687E+02</rscale>
<asrwt>0</asrwt>
<pdfrwt beam="1">  1        1 0.36042397E-02 0.91346687E+02</pdfrwt>
<pdfrwt beam="2">  1       -1 0.13698885E-01 0.91346687E+02</pdfrwt>
<totfact> 0.82702620E+04</totfact>
</mgrwt>
</event>
<event>
 5    1  0.1247456E+001  0.9141037E+02  0.7546771E-02  0.1299472E+00
         -1   -1    0    0    0  501 -0.00000000000E+00  0.00000000000E+00  0.68754090337E+02  0.68754090337E+02  0.00000000000E+00 0.  1.
          1   -1    0    0  501    0  0.00000000000E+00 -0.00000000000E+00 -0.30383122373E+02  0.30383122373E+02  0.00000000000E+00 0. -1.
         23    2    1    2    0    0  0.00000000000E+00  0.00000000000E+00  0.38370967963E+02  0.99137212710E+02  0.91410370098E+02 0.  0.
        -11    1    3    3    0    0 -0.24552066463E+02  0.10298537012E+02  0.59475415759E+02  0.65162787785E+02  0.00000000000E+00 0.  1.
         11    1    3    3    0    0  0.24552066463E+02 -0.10298537012E+02 -0.21104447796E+02  0.33974424925E+02  0.00000000000E+00 0. -1.
<mgrwt>
<rscale>  0 0.91410370E+02</rscale>
<asrwt>0</asrwt>
<pdfrwt beam="2">  1        1 0.46743265E-02 0.91410370E+02</pdfrwt>
<pdfrwt beam="1">  1       -1 0.10577552E-01 0.91410370E+02</pdfrwt>
<totfact> 0.86225976E+04</totfact>
</mgrwt>
</event>
<event>
 5    1  0.1247456E+001  0.9070373E+02  0.7546771E-02  0.1301156E+00
          1   -1    0    0  501    0  0.00000000000E+00  0.00000000000E+00  0.91763877695E+02  0.91763877695E+02  0.00000000000E+00 0. -1.
         -1   -1    0    0    0  501 -0.00000000000E+00 -0.00000000000E+00 -0.22413958185E+02  0.22413958185E+02  0.00000000000E+00 0.  1.
         23    2    1    2    0    0  0.00000000000E+00  0.00000000000E+00  0.69349919509E+02  0.11417783588E+03  0.90703731292E+02 0.  0.
        -11    1    3    3    0    0  0.19020417848E+02 -0.37176763778E+02  0.12407946181E+02  0.43564265041E+02  0.00000000000E+00 0.  1.
         11    1    3    3    0    0 -0.19020417848E+02  0.37176763778E+02  0.56941973328E+02  0.70613570839E+02  0.00000000000E+00 0. -1.
<mgrwt>
<rscale>  0 0.90703731E+02</rscale>
<asrwt>0</asrwt>
<pdfrwt beam="1">  1        1 0.14117519E-01 0.90703731E+02</pdfrwt>
<pdfrwt beam="2">  1       -1 0.34483013E-02 0.90703731E+02</pdfrwt>
<totfact> 0.10445836E+05</totfact>
</mgrwt>
</event>
<event>
 5    1  0.1247456E+001  0.9363435E+02  0.7546771E-02  0.1294282E+00
         -1   -1    0    0    0  501 -0.00000000000E+00  0.00000000000E+00  0.28099411980E+02  0.28099411980E+02  0.00000000000E+00 0.  1.
          1   -1    0    0  501    0  0.00000000000E+00 -0.00000000000E+00 -0.78003337470E+02  0.78003337470E+02  0.00000000000E+00 0. -1.
         23    2    1    2    0    0  0.00000000000E+00  0.00000000000E+00 -0.49903925490E+02  0.10610274945E+03  0.93634350863E+02 0.  0.
        -13    1    3    3    0    0 -0.16637180567E+02  0.33658324802E+02 -0.56643391541E+02  0.67956989420E+02  0.00000000000E+00 0. -1.
         13    1    3    3    0    0  0.16637180567E+02 -0.33658324802E+02  0.67394660511E+01  0.38145760031E+02  0.00000000000E+00 0.  1.
<mgrwt>
<rscale>  0 0.93634351E+02</rscale>
<asrwt>0</asrwt>
<pdfrwt beam="2">  1        1 0.12000513E-01 0.93634351E+02</pdfrwt>
<pdfrwt beam="1">  1       -1 0.43229865E-02 0.93634351E+02</pdfrwt>
<totfact> 0.93254787E+04</totfact>
</mgrwt>
</event>
<event>
 5    1  0.1247456E+001  0.8646716E+02  0.7546771E-02  0.1311640E+00
          3   -1    0    0  501    0  0.00000000000E+00  0.00000000000E+00  0.86994330505E+02  0.86994330505E+02  0.00000000000E+00 0. -1.
         -3   -1    0    0    0  501 -0.00000000000E+00 -0.00000000000E+00 -0.21485797267E+02  0.21485797267E+02  0.00000000000E+00 0.  1.
         23    2    1    2    0    0  0.00000000000E+00  0.00000000000E+00  0.65508533238E+02  0.10848012777E+03  0.86467162520E+02 0.  0.
        -11    1    3    3    0    0  0.28180624222E+02 -0.16795565704E+02  0.68081470797E+02  0.75573310598E+02  0.00000000000E+00 0. -1.
         11    1    3    3    0    0 -0.28180624222E+02  0.16795565704E+02 -0.25729375584E+01  0.32906817174E+02  0.00000000000E+00 0.  1.
<mgrwt>
<rscale>  0 0.86467163E+02</rscale>
<asrwt>0</asrwt>
<pdfrwt beam="1">  1        3 0.13383743E-01 0.86467163E+02</pdfrwt>
<pdfrwt beam="2">  1       -3 0.33055073E-02 0.86467163E+02</pdfrwt>
<totfact> 0.39309492E+04</totfact>
</mgrwt>
</event>
<event>
 5    1  0.1247456E+001  0.9473161E+02  0.7546771E-02  0.1291782E+00
          1   -1    0    0  501    0  0.00000000000E+00  0.00000000000E+00  0.20649809532E+02  0.20649809532E+02  0.00000000000E+00 0. -1.
         -1   -1    0    0    0  501 -0.00000000000E+00 -0.00000000000E+00 -0.10864602084E+03  0.10864602084E+03  0.00000000000E+00 0.  1.
         23    2    1    2    0    0  0.00000000000E+00  0.00000000000E+00 -0.87996211311E+02  0.12929583038E+03  0.94731613241E+02 0.  0.
        -13    1    3    3    0    0  0.28067463774E+02  0.38139265477E+02 -0.42544961864E+02  0.63658933967E+02  0.00000000000E+00 0.  1.
         13    1    3    3    0    0 -0.28067463774E+02 -0.38139265477E+02 -0.45451249447E+02  0.65636896408E+02  0.00000000000E+00 0. -1.
<mgrwt>
<rscale>  0 0.94731613E+02</rscale>
<asrwt>0</asrwt>
<pdfrwt beam="1">  1        1 0.31768939E-02 0.94731613E+02</pdfrwt>
<pdfrwt beam="2">  1       -1 0.16714772E-01 0.94731613E+02</pdfrwt>
<totfact> 0.72562121E+04</totfact>
</mgrwt>
</event>
<event>
 5    1  0.1247456E+001  0.9065250E+02  0.7546771E-02  0.1301279E+00
         -3   -1    0    0    0  501 -0.00000000000E+00  0.00000000000E+00  0.57834552206E+02  0.57834552206E+02  0.00000000000E+00 0.  1.
          3   -1    0    0  501    0  0.00000000000E+00 -0.00000000000E+00 -0.35523208787E+02  0.35523208787E+02  0.00000000000E+00 0. -1.
         23    2    1    2    0    0  0.00000000000E+00  0.00000000000E+00  0.22311343419E+02  0.93357760992E+02  0.90652498544E+02 0.  0.
        -11    1    3    3    0    0 -0.19039502101E+02  0.37456034512E+02 -0.63519990064E+01  0.42494765007E+02  0.00000000000E+00 0.  1.
         11    1    3    3    0    0  0.19039502101E+02 -0.37456034512E+02  0.28663342425E+02  0.50862995985E+02  0.00000000000E+00 0. -1.
<mgrwt>
<rscale>  0 0.90652499E+02</rscale>
<asrwt>0</asrwt>
<pdfrwt beam="2">  1        3 0.54651090E-02 0.90652499E+02</pdfrwt>
<pdfrwt beam="1">  1       -3 0.88976234E-02 0.90652499E+02</pdfrwt>
<totfact> 0.35728815E+04</totfact>
</mgrwt>
</event>
<event>
 5    1  0.1247456E+001  0.9092262E+02  0.7546771E-02  0.1300633E+00
         -3   -1    0    0    0  501 -0.00000000000E+00  0.00000000000E+00  0.19848701473E+02  0.19848701473E+02  0.00000000000E+00 0.  1.
          3   -1    0    0  501    0  0.00000000000E+00 -0.00000000000E+00 -0.10412423780E+03  0.10412423780E+03  0.00000000000E+00 0. -1.
         23    2    1    2    0    0  0.00000000000E+00  0.00000000000E+00 -0.84275536329E+02  0.12397293928E+03  0.90922624517E+02 0.  0.
        -11    1    3    3    0    0  0.23594751825E+02  0.28442462700E+02 -0.60360512695E+01  0.37444891681E+02  0.00000000000E+00 0.  1.
         11    1    3    3    0    0 -0.23594751825E+02 -0.28442462700E+02 -0.78239485060E+02  0.86528047595E+02  0.00000000000E+00 0. -1.
<mgrwt>
<rscale>  0 0.90922625E+02</rscale>
<asrwt>0</asrwt>
<pdfrwt beam="2">  1        3 0.16019114E-01 0.90922625E+02</pdfrwt>
<pdfrwt beam="1">  1       -3 0.30536464E-02 0.90922625E+02</pdfrwt>
<totfact> 0.33227674E+04</totfact>
</mgrwt>
</event>
<event>
 5    1  0.1247456E+001  0.7544088E+02  0.7546771E-02  0.1342511E+00
          3   -1    0    0  501    0  0.00000000000E+00  0.00000000000E+00  0.73044752440E+02  0.73044752440E+02  0.00000000000E+00 0. -1.
         -3   -1    0    0    0  501 -0.00000000000E+00 -0.00000000000E+00 -0.19478900287E+02  0.19478900287E+02  0.00000000000E+00 0.  1.
         23    2    1    2    0    0  0.00000000000E+00  0.00000000000E+00  0.53565852153E+02  0.92523652728E+02  0.75440876169E+02 0.  0.
        -11    1    3    3    0    0  0.35019758185E+02  0.12670517592E+02  0.34131945201E+02  0.50516484068E+02  0.00000000000E+00 0.  1.
         11    1    3    3    0    0 -0.35019758185E+02 -0.12670517592E+02  0.19433906952E+02  0.42007168660E+02  0.00000000000E+00 0. -1.
<mgrwt>
<rscale>  0 0.75440876E+02</rscale>
<asrwt>0</asrwt>
<pdfrwt beam="1">  1        3 0.11237654E-01 0.75440876E+02</pdfrwt>
<pdfrwt beam="2">  1       -3 0.29967539E-02 0.75440876E+02</pdfrwt>
<totfact> 0.58667122E+04</totfact>
</mgrwt>
</event>
<event>
 5    1  0.1247456E+001  0.9461373E+02  0.7546771E-02  0.1292048E+00
         -2   -1    0    0    0  501 -0.00000000000E+00  0.00000000000E+00  0.47882658425E+02  0.47882658425E+02  0.00000000000E+00 0.  1.
          2   -1    0    0  501    0  0.00000000000E+00 -0.00000000000E+00 -0.46737992584E+02  0.46737992584E+02  0.00000000000E+00 0. -1.
         23    2    1    2    0    0  0.00000000000E+00  0.00000000000E+00  0.11446658406E+01  0.94620651009E+02  0.94613727004E+02 0.  0.
        -13    1    3    3    0    0 -0.32434034305E+02  0.16966153696E+02  0.30543216109E+02  0.47672895893E+02  0.00000000000E+00 0.  1.
         13    1    3    3    0    0  0.32434034305E+02 -0.16966153696E+02 -0.29398550269E+02  0.46947755116E+02  0.00000000000E+00 0. -1.
<mgrwt>
<rscale>  0 0.94613727E+02</rscale>
<asrwt>0</asrwt>
<pdfrwt beam="2">  1        2 0.71904604E-02 0.94613727E+02</pdfrwt>
<pdfrwt beam="1">  1       -2 0.73665628E-02 0.94613727E+02</pdfrwt>
<totfact> 0.89281758E+04</totfact>
</mgrwt>
</event>
<event>
 5    1  0.1247456E+001  0.9001006E+02  0.7546771E-02  0.1302827E+00
          1   -1    0    0  501    0  0.00000000000E+00  0.00000000000E+00  0.25073165044E+03  0.25073165044E+03  0.00000000000E+00 0. -1.
         -1   -1    0    0    0  501 -0.00000000000E+00 -0.00000000000E+00 -0.80781686437E+01  0.80781686437E+01  0.00000000000E+00 0.  1.
         23    2    1    2    0    0  0.00000000000E+00  0.00000000000E+00  0.24265348179E+03  0.25880981908E+03  0.90010056250E+02 0.  0.
        -13    1    3    3    0    0 -0.12609542174E+02  0.42732005115E+02  0.10304449878E+03  0.11226394588E+03  0.00000000000E+00 0. -1.
         13    1    3    3    0    0  0.12609542174E+02 -0.42732005115E+02  0.13960898301E+03  0.14654587320E+03  0.00000000000E+00 0.  1.
<mgrwt>
<rscale>  0 0.90010056E+02</rscale>
<asrwt>0</asrwt>
<pdfrwt beam="1">  1        1 0.38574094E-01 0.90010056E+02</pdfrwt>
<pdfrwt beam="2">  1       -1 0.12427954E-02 0.90010056E+02</pdfrwt>
<totfact> 0.12806652E+05</totfact>
</mgrwt>
</event>
<event>
 5    1  0.1247456E+001  0.9051259E+02  0.7546771E-02  0.1301615E+00
          3   -1    0    0  501    0  0.00000000000E+00  0.00000000000E+00  0.12266710452E+03  0.12266710452E+03  0.00000000000E+00 0. -1.
         -3   -1    0    0    0  501 -0.00000000000E+00 -0.00000000000E+00 -0.16696670586E+02  0.16696670586E+02  0.00000000000E+00 0.  1.
         23    2    1    2    0    0  0.00000000000E+00  0.00000000000E+00  0.10597043393E+03  0.13936377510E+03  0.90512589970E+02 0.  0.
        -13    1    3    3    0    0  0.71290944928E+01 -0.21164672387E+02  0.11359151610E+03  0.11576614304E+03  0.00000000000E+00 0. -1.
         13    1    3    3    0    0 -0.71290944928E+01  0.21164672387E+02 -0.76210821655E+01  0.23597632061E+02  0.00000000000E+00 0.  1.
<mgrwt>
<rscale>  0 0.90512590E+02</rscale>
<asrwt>0</asrwt>
<pdfrwt beam="1">  1        3 0.18871862E-01 0.90512590E+02</pdfrwt>
<pdfrwt beam="2">  1       -3 0.25687186E-02 0.90512590E+02</pdfrwt>
<totfact> 0.32609622E+04</totfact>
</mgrwt>
</event>
<event>
 5    1  0.1247456E+001  0.9093726E+02  0.7546771E-02  0.1300598E+00
         -1   -1    0    0    0  501 -0.00000000000E+00  0.00000000000E+00  0.13409943915E+03  0.13409943915E+03  0.00000000000E+00 0.  1.
          1   -1    0    0  501    0  0.00000000000E+00 -0.00000000000E+00 -0.15416888730E+02  0.15416888730E+02  0.00000000000E+00 0. -1.
         23    2    1    2    0    0  0.00000000000E+00  0.00000000000E+00  0.11868255042E+03  0.14951632788E+03  0.90937255999E+02 0.  0.
        -11    1    3    3    0    0  0.32070746219E+02  0.18772448460E+02  0.10241911686E+03  0.10895234317E+03  0.00000000000E+00 0.  1.
         11    1    3    3    0    0 -0.32070746219E+02 -0.18772448460E+02  0.16263433559E+02  0.40563984707E+02  0.00000000000E+00 0. -1.
<mgrwt>
<rscale>  0 0.90937256E+02</rscale>
<asrwt>0</asrwt>
<pdfrwt beam="2">  1        1 0.23718291E-02 0.90937256E+02</pdfrwt>
<pdfrwt beam="1">  1       -1 0.20630682E-01 0.90937256E+02</pdfrwt>
<totfact> 0.77232347E+04</totfact>
</mgrwt>
</event>
<event>
 5    1  0.1247456E+001  0.8917719E+02  0.7546771E-02  0.1304857E+00
         -4   -1    0    0    0  501 -0.00000000000E+00  0.00000000000E+00  0.16816844184E+02  0.16816844184E+02  0.00000000000E+00 0.  1.
          4   -1    0    0  501    0  0.00000000000E+00 -0.00000000000E+00 -0.11822329620E+03  0.11822329620E+03  0.00000000000E+00 0. -1.
         23    2    1    2    0    0  0.00000000000E+00  0.00000000000E+00 -0.10140645202E+03  0.13504014039E+03  0.89177188814E+02 0.  0.
        -13    1    3    3    0    0 -0.31955785484E+01  0.31997912480E+02 -0.39299272892E+01  0.32396333956E+02  0.00000000000E+00 0.  1.
         13    1    3    3    0    0  0.31955785484E+01 -0.31997912480E+02 -0.97476524729E+02  0.10264380643E+03  0.00000000000E+00 0. -1.
<mgrwt>
<rscale>  0 0.89177189E+02</rscale>
<asrwt>0</asrwt>
<pdfrwt beam="2">  1        4 0.18188200E-01 0.89177189E+02</pdfrwt>
<pdfrwt beam="1">  1       -4 0.25872068E-02 0.89177189E+02</pdfrwt>
<totfact> 0.25947645E+04</totfact>
</mgrwt>
</event>
<event>
 5    1  0.1247456E+001  0.9292375E+02  0.7546771E-02  0.1295922E+00
          2   -1    0    0  501    0  0.00000000000E+00  0.00000000000E+00  0.22706974220E+03  0.22706974220E+03  0.00000000000E+00 0.  1.
         -2   -1    0    0    0  501 -0.00000000000E+00 -0.00000000000E+00 -0.95067972394E+01  0.95067972394E+01  0.00000000000E+00 0. -1.
         23    2    1    2    0    0  0.00000000000E+00  0.00000000000E+00  0.21756294496E+03  0.23657653943E+03  0.92923753653E+02 0.  0.
        -13    1    3    3    0    0  0.31899132893E+02 -0.32927362989E+02  0.12799265010E+03  0.13595545003E+03  0.00000000000E+00 0.  1.
         13    1    3    3    0    0 -0.31899132893E+02  0.32927362989E+02  0.89570294858E+02  0.10062108941E+03  0.00000000000E+00 0. -1.
<mgrwt>
<rscale>  0 0.92923754E+02</rscale>
<asrwt>0</asrwt>
<pdfrwt beam="1">  1        2 0.34933802E-01 0.92923754E+02</pdfrwt>
<pdfrwt beam="2">  1       -2 0.14625844E-02 0.92923754E+02</pdfrwt>
<totfact> 0.15394857E+05</totfact>
</mgrwt>
</event>
<event>
 5    1  0.1247456E+001  0.9614772E+02  0.7546771E-02  0.1288612E+00
          1   -1    0    0  501    0  0.00000000000E+00  0.00000000000E+00  0.11227915309E+03  0.11227915309E+03  0.00000000000E+00 0. -1.
         -1   -1    0    0    0  501 -0.00000000000E+00 -0.00000000000E+00 -0.20583481703E+02  0.20583481703E+02  0.00000000000E+00 0.  1.
         23    2    1    2    0    0  0.00000000000E+00  0.00000000000E+00  0.91695671388E+02  0.13286263479E+03  0.96147717461E+02 0.  0.
        -11    1    3    3    0    0 -0.29251758452E+02 -0.26927212411E+02  0.85029521734E+01  0.40657598754E+02  0.00000000000E+00 0.  1.
         11    1    3    3    0    0  0.29251758452E+02  0.26927212411E+02  0.83192719214E+02  0.92205036039E+02  0.00000000000E+00 0. -1.
<mgrwt>
<rscale>  0 0.96147717E+02</rscale>
<asrwt>0</asrwt>
<pdfrwt beam="1">  1        1 0.17273715E-01 0.96147717E+02</pdfrwt>
<pdfrwt beam="2">  1       -1 0.31666896E-02 0.96147717E+02</pdfrwt>
<totfact> 0.92149463E+04</totfact>
</mgrwt>
</event>
<event>
 5    1  0.1247456E+001  0.9197105E+02  0.7546771E-02  0.1298148E+00
         -2   -1    0    0    0  501 -0.00000000000E+00  0.00000000000E+00  0.12599074886E+02  0.12599074886E+02  0.00000000000E+00 0.  1.
          2   -1    0    0  501    0  0.00000000000E+00 -0.00000000000E+00 -0.16784314418E+03  0.16784314418E+03  0.00000000000E+00 0. -1.
         23    2    1    2    0    0  0.00000000000E+00  0.00000000000E+00 -0.15524406929E+03  0.18044221906E+03  0.91971046368E+02 0.  0.
        -13    1    3    3    0    0 -0.45823235601E+02  0.31768488631E+01 -0.73320469727E+02  0.86520243704E+02  0.00000000000E+00 0.  1.
         13    1    3    3    0    0  0.45823235601E+02 -0.31768488631E+01 -0.81923599563E+02  0.93921975357E+02  0.00000000000E+00 0. -1.
<mgrwt>
<rscale>  0 0.91971046E+02</rscale>
<asrwt>0</asrwt>
<pdfrwt beam="2">  1        2 0.25822022E-01 0.91971046E+02</pdfrwt>
<pdfrwt beam="1">  1       -2 0.19383192E-02 0.91971046E+02</pdfrwt>
<totfact> 0.14195487E+05</totfact>
</mgrwt>
</event>
<event>
 5    1  0.1247456E+001  0.9136317E+02  0.7546771E-02  0.1299584E+00
          2   -1    0    0  501    0  0.00000000000E+00  0.00000000000E+00  0.10476938427E+03  0.10476938427E+03  0.00000000000E+00 0. -1.
         -2   -1    0    0    0  501 -0.00000000000E+00 -0.00000000000E+00 -0.19918099635E+02  0.19918099635E+02  0.00000000000E+00 0.  1.
         23    2    1    2    0    0  0.00000000000E+00  0.00000000000E+00  0.84851284638E+02  0.12468748391E+03  0.91363166204E+02 0.  0.
        -11    1    3    3    0    0  0.36540763234E+01 -0.24571291415E+02  0.94745555201E+02  0.97948051874E+02  0.00000000000E+00 0. -1.
         11    1    3    3    0    0 -0.36540763234E+01  0.24571291415E+02 -0.98942705626E+01  0.26739432035E+02  0.00000000000E+00 0.  1.
<mgrwt>
<rscale>  0 0.91363166E+02</rscale>
<asrwt>0</asrwt>
<pdfrwt beam="1">  1        2 0.16118366E-01 0.91363166E+02</pdfrwt>
<pdfrwt beam="2">  1       -2 0.30643231E-02 0.91363166E+02</pdfrwt>
<totfact> 0.12374370E+05</totfact>
</mgrwt>
</event>
<event>
 5    1  0.1247456E+001  0.8910575E+02  0.7546771E-02  0.1305032E+00
          2   -1    0    0  501    0  0.00000000000E+00  0.00000000000E+00  0.21034323699E+02  0.21034323699E+02  0.00000000000E+00 0. -1.
         -2   -1    0    0    0  501 -0.00000000000E+00 -0.00000000000E+00 -0.94367604370E+02  0.94367604370E+02  0.00000000000E+00 0.  1.
         23    2    1    2    0    0  0.00000000000E+00  0.00000000000E+00 -0.73333280671E+02  0.11540192807E+03  0.89105751487E+02 0.  0.
        -13    1    3    3    0    0 -0.19392055644E+02  0.89715405351E+01  0.13965752566E+02  0.25526116163E+02  0.00000000000E+00 0. -1.
         13    1    3    3    0    0  0.19392055644E+02 -0.89715405351E+01 -0.87299033236E+02  0.89875811906E+02  0.00000000000E+00 0.  1.
<mgrwt>
<rscale>  0 0.89105751E+02</rscale>
<asrwt>0</asrwt>
<pdfrwt beam="1">  1        2 0.32360498E-02 0.89105751E+02</pdfrwt>
<pdfrwt beam="2">  1       -2 0.14518093E-01 0.89105751E+02</pdfrwt>
<totfact> 0.85942009E+04</totfact>
</mgrwt>
</event>
<event>
 5    1  0.1247456E+001  0.1002156E+03  0.7546771E-02  0.1279843E+00
         -2   -1    0    0    0  501 -0.00000000000E+00  0.00000000000E+00  0.15749102327E+03  0.15749102327E+03  0.00000000000E+00 0.  1.
          2   -1    0    0  501    0  0.00000000000E+00 -0.00000000000E+00 -0.15942456682E+02  0.15942456682E+02  0.00000000000E+00 0. -1.
         23    2    1    2    0    0  0.00000000000E+00  0.00000000000E+00  0.14154856658E+03  0.17343347995E+03  0.10021564381E+03 0.  0.
        -13    1    3    3    0    0 -0.23750359960E+02  0.28783753162E+02  0.12903540191E+02  0.39485255397E+02  0.00000000000E+00 0. -1.
         13    1    3    3    0    0  0.23750359960E+02 -0.28783753162E+02  0.12864502639E+03  0.13394822455E+03  0.00000000000E+00 0.  1.
<mgrwt>
<rscale>  0 0.10021564E+03</rscale>
<asrwt>0</asrwt>
<pdfrwt beam="2">  1        2 0.24526857E-02 0.10021564E+03</pdfrwt>
<pdfrwt beam="1">  1       -2 0.24229387E-01 0.10021564E+03</pdfrwt>
<totfact> 0.53974404E+04</totfact>
</mgrwt>
</event>
<event>
 5    1  0.1247456E+001  0.9314363E+02  0.7546771E-02  0.1295413E+00
         -3   -1    0    0    0  501 -0.00000000000E+00  0.00000000000E+00  0.11401086264E+03  0.11401086264E+03  0.00000000000E+00 0.  1.
          3   -1    0    0  501    0  0.00000000000E+00 -0.00000000000E+00 -0.19023924928E+02  0.19023924928E+02  0.00000000000E+00 0. -1.
         23    2    1    2    0    0  0.00000000000E+00  0.00000000000E+00  0.94986937708E+02  0.13303478756E+03  0.93143632992E+02 0.  0.
        -11    1    3    3    0    0  0.22613394762E+02 -0.25017392780E+02  0.93369776091E+02  0.99273111422E+02  0.00000000000E+00 0.  1.
         11    1    3    3    0    0 -0.22613394762E+02  0.25017392780E+02  0.16171616168E+01  0.33761676141E+02  0.00000000000E+00 0. -1.
<mgrwt>
<rscale>  0 0.93143633E+02</rscale>
<asrwt>0</asrwt>
<pdfrwt beam="2">  1        3 0.29267577E-02 0.93143633E+02</pdfrwt>
<pdfrwt beam="1">  1       -3 0.17540132E-01 0.93143633E+02</pdfrwt>
<totfact> 0.30553015E+04</totfact>
</mgrwt>
</event>
<event>
 5    1  0.1247456E+001  0.9085518E+02  0.7546771E-02  0.1300794E+00
          1   -1    0    0  501    0  0.00000000000E+00  0.00000000000E+00  0.81710420824E+02  0.81710420824E+02  0.00000000000E+00 0. -1.
         -1   -1    0    0    0  501 -0.00000000000E+00 -0.00000000000E+00 -0.25255849370E+02  0.25255849370E+02  0.00000000000E+00 0.  1.
         23    2    1    2    0    0  0.00000000000E+00  0.00000000000E+00  0.56454571454E+02  0.10696627019E+03  0.90855183238E+02 0.  0.
        -11    1    3    3    0    0 -0.95858910912E+01  0.33305313464E+02 -0.63495280245E+01  0.35234212338E+02  0.00000000000E+00 0.  1.
         11    1    3    3    0    0  0.95858910912E+01 -0.33305313464E+02  0.62804099479E+02  0.71732057856E+02  0.00000000000E+00 0. -1.
<mgrwt>
<rscale>  0 0.90855183E+02</rscale>
<asrwt>0</asrwt>
<pdfrwt beam="1">  1        1 0.12570834E-01 0.90855183E+02</pdfrwt>
<pdfrwt beam="2">  1       -1 0.38855153E-02 0.90855183E+02</pdfrwt>
<totfact> 0.10206612E+05</totfact>
</mgrwt>
</event>
<event>
 5    1  0.1247456E+001  0.8602365E+02  0.7546771E-02  0.1312777E+00
          1   -1    0    0  501    0  0.00000000000E+00  0.00000000000E+00  0.20468547624E+02  0.20468547624E+02  0.00000000000E+00 0. -1.
         -1   -1    0    0    0  501 -0.00000000000E+00 -0.00000000000E+00 -0.90383400132E+02  0.90383400132E+02  0.00000000000E+00 0.  1.
         23    2    1    2    0    0  0.00000000000E+00  0.00000000000E+00 -0.69914852508E+02  0.11085194776E+03  0.86023646284E+02 0.  0.
        -11    1    3    3    0    0 -0.26233408637E+02  0.27656607474E+02 -0.92838471247E+01  0.39233524990E+02  0.00000000000E+00 0. -1.
         11    1    3    3    0    0  0.26233408637E+02 -0.27656607474E+02 -0.60631005384E+02  0.71618422766E+02  0.00000000000E+00 0.  1.
<mgrwt>
<rscale>  0 0.86023646E+02</rscale>
<asrwt>0</asrwt>
<pdfrwt beam="1">  1        1 0.31490074E-02 0.86023646E+02</pdfrwt>
<pdfrwt beam="2">  1       -1 0.13905138E-01 0.86023646E+02</pdfrwt>
<totfact> 0.96213831E+04</totfact>
</mgrwt>
</event>
<event>
 5    1  0.1247456E+001  0.9568609E+02  0.7546771E-02  0.1289638E+00
         -1   -1    0    0    0  501 -0.00000000000E+00  0.00000000000E+00  0.21818012594E+02  0.21818012594E+02  0.00000000000E+00 0.  1.
          1   -1    0    0  501    0  0.00000000000E+00 -0.00000000000E+00 -0.10491133103E+03  0.10491133103E+03  0.00000000000E+00 0. -1.
         23    2    1    2    0    0  0.00000000000E+00  0.00000000000E+00 -0.83093318433E+02  0.12672934362E+03  0.95686085543E+02 0.  0.
        -11    1    3    3    0    0 -0.21601125285E+02  0.11134287280E+02 -0.96128137076E+02  0.99152406448E+02  0.00000000000E+00 0. -1.
         11    1    3    3    0    0  0.21601125285E+02 -0.11134287280E+02  0.13034818643E+02  0.27576937173E+02  0.00000000000E+00 0.  1.
<mgrwt>
<rscale>  0 0.95686086E+02</rscale>
<asrwt>0</asrwt>
<pdfrwt beam="2">  1        1 0.16140204E-01 0.95686086E+02</pdfrwt>
<pdfrwt beam="1">  1       -1 0.33566174E-02 0.95686086E+02</pdfrwt>
<totfact> 0.92278862E+04</totfact>
</mgrwt>
</event>
<event>
 5    1  0.1247456E+001  0.9349373E+02  0.7546771E-02  0.1294605E+00
          2   -1    0    0  501    0  0.00000000000E+00  0.00000000000E+00  0.20798486323E+03  0.20798486323E+03  0.00000000000E+00 0. -1.
         -2   -1    0    0    0  501 -0.00000000000E+00 -0.00000000000E+00 -0.10506867033E+02  0.10506867033E+02  0.00000000000E+00 0.  1.
         23    2    1    2    0    0  0.00000000000E+00  0.00000000000E+00  0.19747799620E+03  0.21849173026E+03  0.93493728192E+02 0.  0.
        -11    1    3    3    0    0  0.45526175668E+02 -0.26986613702E+00  0.73944694959E+02  0.86836187222E+02  0.00000000000E+00 0.  1.
         11    1    3    3    0    0 -0.45526175668E+02  0.26986613702E+00  0.12353330124E+03  0.13165554304E+03  0.00000000000E+00 0. -1.
<mgrwt>
<rscale>  0 0.93493728E+02</rscale>
<asrwt>0</asrwt>
<pdfrwt beam="1">  1        2 0.31997668E-01 0.93493728E+02</pdfrwt>
<pdfrwt beam="2">  1       -2 0.16164412E-02 0.93493728E+02</pdfrwt>
<totfact> 0.14662936E+05</totfact>
</mgrwt>
</event>
<event>
 5    1  0.1247456E+001  0.9134846E+02  0.7546771E-02  0.1299619E+00
          2   -1    0    0  501    0  0.00000000000E+00  0.00000000000E+00  0.20525875660E+03  0.20525875660E+03  0.00000000000E+00 0. -1.
         -2   -1    0    0    0  501 -0.00000000000E+00 -0.00000000000E+00 -0.10163441371E+02  0.10163441371E+02  0.00000000000E+00 0.  1.
         23    2    1    2    0    0  0.00000000000E+00  0.00000000000E+00  0.19509531523E+03  0.21542219797E+03  0.91348461152E+02 0.  0.
        -13    1    3    3    0    0  0.25898945587E+02  0.26596214076E+02  0.34797850546E+02  0.50882260055E+02  0.00000000000E+00 0.  1.
         13    1    3    3    0    0 -0.25898945587E+02 -0.26596214076E+02  0.16029746468E+03  0.16453993792E+03  0.00000000000E+00 0. -1.
<mgrwt>
<rscale>  0 0.91348461E+02</rscale>
<asrwt>0</asrwt>
<pdfrwt beam="1">  1        2 0.31578267E-01 0.91348461E+02</pdfrwt>
<pdfrwt beam="2">  1       -2 0.15636065E-02 0.91348461E+02</pdfrwt>
<totfact> 0.15535225E+05</totfact>
</mgrwt>
</event>
<event>
 5    1  0.1247456E+001  0.9162585E+02  0.7546771E-02  0.1298962E+00
          2   -1    0    0  501    0  0.00000000000E+00  0.00000000000E+00  0.48929037691E+02  0.48929037691E+02  0.00000000000E+00 0. -1.
         -2   -1    0    0    0  501 -0.00000000000E+00 -0.00000000000E+00 -0.42895267540E+02  0.42895267540E+02  0.00000000000E+00 0.  1.
         23    2    1    2    0    0  0.00000000000E+00  0.00000000000E+00  0.60337701502E+01  0.91824305231E+02  0.91625851423E+02 0.  0.
        -13    1    3    3    0    0 -0.41644006521E+02 -0.62043240433E+01  0.21114437872E+02  0.47101341835E+02  0.00000000000E+00 0. -1.
         13    1    3    3    0    0  0.41644006521E+02  0.62043240433E+01 -0.15080667722E+02  0.44722963396E+02  0.00000000000E+00 0.  1.
<mgrwt>
<rscale>  0 0.91625851E+02</rscale>
<asrwt>0</asrwt>
<pdfrwt beam="1">  1        2 0.75275443E-02 0.91625851E+02</pdfrwt>
<pdfrwt beam="2">  1       -2 0.65992719E-02 0.91625851E+02</pdfrwt>
<totfact> 0.99104625E+04</totfact>
</mgrwt>
</event>
<event>
 5    1  0.1247456E+001  0.8806553E+02  0.7546771E-02  0.1307605E+00
          2   -1    0    0  501    0  0.00000000000E+00  0.00000000000E+00  0.10144802295E+02  0.10144802295E+02  0.00000000000E+00 0. -1.
         -2   -1    0    0    0  501 -0.00000000000E+00 -0.00000000000E+00 -0.19112097313E+03  0.19112097313E+03  0.00000000000E+00 0.  1.
         23    2    1    2    0    0  0.00000000000E+00  0.00000000000E+00 -0.18097617083E+03  0.20126577542E+03  0.88065532119E+02 0.  0.
        -13    1    3    3    0    0 -0.33329296934E+02 -0.23074099943E+02 -0.51193110336E+02  0.65299239415E+02  0.00000000000E+00 0. -1.
         13    1    3    3    0    0  0.33329296934E+02  0.23074099943E+02 -0.12978306049E+03  0.13596653601E+03  0.00000000000E+00 0.  1.
<mgrwt>
<rscale>  0 0.88065532E+02</rscale>
<asrwt>0</asrwt>
<pdfrwt beam="1">  1        2 0.15607389E-02 0.88065532E+02</pdfrwt>
<pdfrwt beam="2">  1       -2 0.29403224E-01 0.88065532E+02</pdfrwt>
<totfact> 0.69414971E+04</totfact>
</mgrwt>
</event>
<event>
 5    1  0.1247456E+001  0.9688748E+02  0.7546771E-02  0.1286981E+00
          3   -1    0    0  501    0  0.00000000000E+00  0.00000000000E+00  0.70757867699E+02  0.70757867699E+02  0.00000000000E+00 0. -1.
         -3   -1    0    0    0  501 -0.00000000000E+00 -0.00000000000E+00 -0.33166569703E+02  0.33166569703E+02  0.00000000000E+00 0.  1.
         23    2    1    2    0    0  0.00000000000E+00  0.00000000000E+00  0.37591297997E+02  0.10392443740E+03  0.96887475993E+02 0.  0.
        -11    1    3    3    0    0  0.15974655643E+02 -0.49586660407E+01 -0.29970913511E+02  0.34322494788E+02  0.00000000000E+00 0.  1.
         11    1    3    3    0    0 -0.15974655643E+02  0.49586660407E+01  0.67562211508E+02  0.69601942614E+02  0.00000000000E+00 0. -1.
<mgrwt>
<rscale>  0 0.96887476E+02</rscale>
<asrwt>0</asrwt>
<pdfrwt beam="1">  1        3 0.10885826E-01 0.96887476E+02</pdfrwt>
<pdfrwt beam="2">  1       -3 0.51025492E-02 0.96887476E+02</pdfrwt>
<totfact> 0.29120586E+04</totfact>
</mgrwt>
</event>
<event>
 5    1  0.1247456E+001  0.8876339E+02  0.7546771E-02  0.1305874E+00
          4   -1    0    0  501    0  0.00000000000E+00  0.00000000000E+00  0.13986517833E+03  0.13986517833E+03  0.00000000000E+00 0. -1.
         -4   -1    0    0    0  501 -0.00000000000E+00 -0.00000000000E+00 -0.14083097248E+02  0.14083097248E+02  0.00000000000E+00 0.  1.
         23    2    1    2    0    0  0.00000000000E+00  0.00000000000E+00  0.12578208108E+03  0.15394827558E+03  0.88763391282E+02 0.  0.
        -11    1    3    3    0    0  0.52344996887E+01 -0.42114048625E+02  0.40361500844E+02  0.58566576039E+02  0.00000000000E+00 0.  1.
         11    1    3    3    0    0 -0.52344996887E+01  0.42114048625E+02  0.85420580238E+02  0.95381699538E+02  0.00000000000E+00 0. -1.
<mgrwt>
<rscale>  0 0.88763391E+02</rscale>
<asrwt>0</asrwt>
<pdfrwt beam="1">  1        4 0.21517719E-01 0.88763391E+02</pdfrwt>
<pdfrwt beam="2">  1       -4 0.21666304E-02 0.88763391E+02</pdfrwt>
<totfact> 0.25226575E+04</totfact>
</mgrwt>
</event>
<event>
 5    1  0.1247456E+001  0.9213499E+02  0.7546771E-02  0.1297762E+00
          2   -1    0    0  501    0  0.00000000000E+00  0.00000000000E+00  0.87062938477E+02  0.87062938477E+02  0.00000000000E+00 0. -1.
         -2   -1    0    0    0  501 -0.00000000000E+00 -0.00000000000E+00 -0.24375631392E+02  0.24375631392E+02  0.00000000000E+00 0.  1.
         23    2    1    2    0    0  0.00000000000E+00  0.00000000000E+00  0.62687307084E+02  0.11143856987E+03  0.92134990014E+02 0.  0.
        -11    1    3    3    0    0  0.65528062703E+01 -0.31239092774E+02 -0.88332283157E+01  0.33118667090E+02  0.00000000000E+00 0.  1.
         11    1    3    3    0    0 -0.65528062703E+01  0.31239092774E+02  0.71520535400E+02  0.78319902779E+02  0.00000000000E+00 0. -1.
<mgrwt>
<rscale>  0 0.92134990E+02</rscale>
<asrwt>0</asrwt>
<pdfrwt beam="1">  1        2 0.13394298E-01 0.92134990E+02</pdfrwt>
<pdfrwt beam="2">  1       -2 0.37500972E-02 0.92134990E+02</pdfrwt>
<totfact> 0.11433941E+05</totfact>
</mgrwt>
</event>
<event>
 5    1  0.1247456E+001  0.7160600E+02  0.7546771E-02  0.1354715E+00
         -3   -1    0    0    0  501 -0.00000000000E+00  0.00000000000E+00  0.22417535654E+02  0.22417535654E+02  0.00000000000E+00 0.  1.
          3   -1    0    0  501    0  0.00000000000E+00 -0.00000000000E+00 -0.57180904460E+02  0.57180904460E+02  0.00000000000E+00 0. -1.
         23    2    1    2    0    0  0.00000000000E+00  0.00000000000E+00 -0.34763368806E+02  0.79598440115E+02  0.71606004343E+02 0.  0.
        -13    1    3    3    0    0 -0.67493021575E+01  0.25595346114E+02 -0.44180185271E+02  0.51503044502E+02  0.00000000000E+00 0. -1.
         13    1    3    3    0    0  0.67493021575E+01 -0.25595346114E+02  0.94168164653E+01  0.28095395613E+02  0.00000000000E+00 0.  1.
<mgrwt>
<rscale>  0 0.71606004E+02</rscale>
<asrwt>0</asrwt>
<pdfrwt beam="2">  1        3 0.87970621E-02 0.71606004E+02</pdfrwt>
<pdfrwt beam="1">  1       -3 0.34488517E-02 0.71606004E+02</pdfrwt>
<totfact> 0.69371157E+04</totfact>
</mgrwt>
</event>
<event>
 5    1  0.1247456E+001  0.9099209E+02  0.7546771E-02  0.1300467E+00
          2   -1    0    0  501    0  0.00000000000E+00  0.00000000000E+00  0.40869199906E+02  0.40869199906E+02  0.00000000000E+00 0. -1.
         -2   -1    0    0    0  501 -0.00000000000E+00 -0.00000000000E+00 -0.50646699227E+02  0.50646699227E+02  0.00000000000E+00 0.  1.
         23    2    1    2    0    0  0.00000000000E+00  0.00000000000E+00 -0.97774993213E+01  0.91515899133E+02  0.90992089222E+02 0.  0.
        -11    1    3    3    0    0  0.49744134949E+00  0.10049261865E+02 -0.49513697065E+02  0.50525650011E+02  0.00000000000E+00 0.  1.
         11    1    3    3    0    0 -0.49744134949E+00 -0.10049261865E+02  0.39736197744E+02  0.40990249122E+02  0.00000000000E+00 0. -1.
<mgrwt>
<rscale>  0 0.90992089E+02</rscale>
<asrwt>0</asrwt>
<pdfrwt beam="1">  1        2 0.62875692E-02 0.90992089E+02</pdfrwt>
<pdfrwt beam="2">  1       -2 0.77917999E-02 0.90992089E+02</pdfrwt>
<totfact> 0.96485152E+04</totfact>
</mgrwt>
</event>
<event>
 5    1  0.1247456E+001  0.9004273E+02  0.7546771E-02  0.1302748E+00
         -1   -1    0    0    0  501 -0.00000000000E+00  0.00000000000E+00  0.47524122586E+02  0.47524122586E+02  0.00000000000E+00 0.  1.
          1   -1    0    0  501    0  0.00000000000E+00 -0.00000000000E+00 -0.42650413328E+02  0.42650413328E+02  0.00000000000E+00 0. -1.
         23    2    1    2    0    0  0.00000000000E+00  0.00000000000E+00  0.48737092582E+01  0.90174535914E+02  0.90042733662E+02 0.  0.
        -13    1    3    3    0    0  0.21076006062E+02  0.35650991322E+02  0.20118640085E+02  0.46042924458E+02  0.00000000000E+00 0.  1.
         13    1    3    3    0    0 -0.21076006062E+02 -0.35650991322E+02 -0.15244930827E+02  0.44131611456E+02  0.00000000000E+00 0. -1.
<mgrwt>
<rscale>  0 0.90042734E+02</rscale>
<asrwt>0</asrwt>
<pdfrwt beam="2">  1        1 0.65616020E-02 0.90042734E+02</pdfrwt>
<pdfrwt beam="1">  1       -1 0.73114035E-02 0.90042734E+02</pdfrwt>
<totfact> 0.94827002E+04</totfact>
</mgrwt>
</event>
<event>
 5    1  0.1247456E+001  0.7405981E+02  0.7546771E-02  0.1346807E+00
          2   -1    0    0  501    0  0.00000000000E+00  0.00000000000E+00  0.64351390923E+02  0.64351390923E+02  0.00000000000E+00 0. -1.
         -2   -1    0    0    0  501 -0.00000000000E+00 -0.00000000000E+00 -0.21308224740E+02  0.21308224740E+02  0.00000000000E+00 0.  1.
         23    2    1    2    0    0  0.00000000000E+00  0.00000000000E+00  0.43043166182E+02  0.85659615663E+02  0.74059810968E+02 0.  0.
        -11    1    3    3    0    0 -0.29723222225E+02  0.17008416953E+02  0.37815575660E+02  0.51017388694E+02  0.00000000000E+00 0. -1.
         11    1    3    3    0    0  0.29723222225E+02 -0.17008416953E+02  0.52275905216E+01  0.34642226968E+02  0.00000000000E+00 0.  1.
<mgrwt>
<rscale>  0 0.74059811E+02</rscale>
<asrwt>0</asrwt>
<pdfrwt beam="1">  1        2 0.99002139E-02 0.74059811E+02</pdfrwt>
<pdfrwt beam="2">  1       -2 0.32781884E-02 0.74059811E+02</pdfrwt>
<totfact> 0.19187314E+05</totfact>
</mgrwt>
</event>
<event>
 5    1  0.1247456E+001  0.9151429E+02  0.7546771E-02  0.1299226E+00
          2   -1    0    0  501    0  0.00000000000E+00  0.00000000000E+00  0.19042059201E+03  0.19042059201E+03  0.00000000000E+00 0. -1.
         -2   -1    0    0    0  501 -0.00000000000E+00 -0.00000000000E+00 -0.10995220675E+02  0.10995220675E+02  0.00000000000E+00 0.  1.
         23    2    1    2    0    0  0.00000000000E+00  0.00000000000E+00  0.17942537133E+03  0.20141581268E+03  0.91514292440E+02 0.  0.
        -13    1    3    3    0    0 -0.39760469583E+02 -0.24434351242E+01  0.40162550988E+02  0.56567621645E+02  0.00000000000E+00 0.  1.
         13    1    3    3    0    0  0.39760469583E+02  0.24434351242E+01  0.13926282035E+03  0.14484819104E+03  0.00000000000E+00 0. -1.
<mgrwt>
<rscale>  0 0.91514292E+02</rscale>
<asrwt>0</asrwt>
<pdfrwt beam="1">  1        2 0.29295473E-01 0.91514292E+02</pdfrwt>
<pdfrwt beam="2">  1       -2 0.16915726E-02 0.91514292E+02</pdfrwt>
<totfact> 0.15046149E+05</totfact>
</mgrwt>
</event>
<event>
 5    1  0.1247456E+001  0.9276695E+02  0.7546771E-02  0.1296286E+00
          3   -1    0    0  501    0  0.00000000000E+00  0.00000000000E+00  0.40140001712E+03  0.40140001712E+03  0.00000000000E+00 0. -1.
         -3   -1    0    0    0  501 -0.00000000000E+00 -0.00000000000E+00 -0.53598078314E+01  0.53598078314E+01  0.00000000000E+00 0.  1.
         23    2    1    2    0    0  0.00000000000E+00  0.00000000000E+00  0.39604020928E+03  0.40675982495E+03  0.92766954359E+02 0.  0.
        -13    1    3    3    0    0  0.11155202632E+02 -0.43756663114E+02  0.15154531233E+03  0.15812990166E+03  0.00000000000E+00 0. -1.
         13    1    3    3    0    0 -0.11155202632E+02  0.43756663114E+02  0.24449489696E+03  0.24862992328E+03  0.00000000000E+00 0.  1.
<mgrwt>
<rscale>  0 0.92766954E+02</rscale>
<asrwt>0</asrwt>
<pdfrwt beam="1">  1        3 0.61753825E-01 0.92766954E+02</pdfrwt>
<pdfrwt beam="2">  1       -3 0.82458614E-03 0.92766954E+02</pdfrwt>
<totfact> 0.19488081E+04</totfact>
</mgrwt>
</event>
<event>
 5    1  0.1247456E+001  0.8953282E+02  0.7546771E-02  0.1303987E+00
          2   -1    0    0  501    0  0.00000000000E+00  0.00000000000E+00  0.29938986110E+02  0.29938986110E+02  0.00000000000E+00 0.  1.
         -2   -1    0    0    0  501 -0.00000000000E+00 -0.00000000000E+00 -0.66937189652E+02  0.66937189652E+02  0.00000000000E+00 0. -1.
         23    2    1    2    0    0  0.00000000000E+00  0.00000000000E+00 -0.36998203542E+02  0.96876175762E+02  0.89532822836E+02 0.  0.
        -11    1    3    3    0    0 -0.25550050548E+02  0.15074604167E+02  0.17776493281E+02  0.34583991776E+02  0.00000000000E+00 0.  1.
         11    1    3    3    0    0  0.25550050548E+02 -0.15074604167E+02 -0.54774696823E+02  0.62292183987E+02  0.00000000000E+00 0. -1.
<mgrwt>
<rscale>  0 0.89532823E+02</rscale>
<asrwt>0</asrwt>
<pdfrwt beam="1">  1        2 0.46059979E-02 0.89532823E+02</pdfrwt>
<pdfrwt beam="2">  1       -2 0.10298029E-01 0.89532823E+02</pdfrwt>
<totfact> 0.93309452E+04</totfact>
</mgrwt>
</event>
<event>
 5    1  0.1247456E+001  0.9139171E+02  0.7546771E-02  0.1299516E+00
         -1   -1    0    0    0  501 -0.00000000000E+00  0.00000000000E+00  0.47668850582E+02  0.47668850582E+02  0.00000000000E+00 0.  1.
          1   -1    0    0  501    0  0.00000000000E+00 -0.00000000000E+00 -0.43804519125E+02  0.43804519125E+02  0.00000000000E+00 0. -1.
         23    2    1    2    0    0  0.00000000000E+00  0.00000000000E+00  0.38643314571E+01  0.91473369707E+02  0.91391708092E+02 0.  0.
        -13    1    3    3    0    0  0.30585307033E+02  0.28248215207E+02  0.20782166893E+02  0.46533011180E+02  0.00000000000E+00 0.  1.
         13    1    3    3    0    0 -0.30585307033E+02 -0.28248215207E+02 -0.16917835436E+02  0.44940358527E+02  0.00000000000E+00 0. -1.
<mgrwt>
<rscale>  0 0.91391708E+02</rscale>
<asrwt>0</asrwt>
<pdfrwt beam="2">  1        1 0.67391567E-02 0.91391708E+02</pdfrwt>
<pdfrwt beam="1">  1       -1 0.73336694E-02 0.91391708E+02</pdfrwt>
<totfact> 0.91311202E+04</totfact>
</mgrwt>
</event>
<event>
 5    1  0.1247456E+001  0.9191793E+02  0.7546771E-02  0.1298273E+00
         -2   -1    0    0    0  501 -0.00000000000E+00  0.00000000000E+00  0.40378489564E+02  0.40378489564E+02  0.00000000000E+00 0.  1.
          2   -1    0    0  501    0  0.00000000000E+00 -0.00000000000E+00 -0.52310684482E+02  0.52310684482E+02  0.00000000000E+00 0. -1.
         23    2    1    2    0    0  0.00000000000E+00  0.00000000000E+00 -0.11932194918E+02  0.92689174046E+02  0.91917929208E+02 0.  0.
        -13    1    3    3    0    0 -0.22373668662E+02 -0.38639087910E+02 -0.16950904042E+02  0.47758698807E+02  0.00000000000E+00 0.  1.
         13    1    3    3    0    0  0.22373668662E+02  0.38639087910E+02  0.50187091238E+01  0.44930475239E+02  0.00000000000E+00 0. -1.
<mgrwt>
<rscale>  0 0.91917929E+02</rscale>
<asrwt>0</asrwt>
<pdfrwt beam="2">  1        2 0.80477976E-02 0.91917929E+02</pdfrwt>
<pdfrwt beam="1">  1       -2 0.62120753E-02 0.91917929E+02</pdfrwt>
<totfact> 0.99949213E+04</totfact>
</mgrwt>
</event>
<event>
 5    1  0.1247456E+001  0.8910469E+02  0.7546771E-02  0.1305034E+00
         -1   -1    0    0    0  501 -0.00000000000E+00  0.00000000000E+00  0.39757465753E+02  0.39757465753E+02  0.00000000000E+00 0.  1.
          1   -1    0    0  501    0  0.00000000000E+00 -0.00000000000E+00 -0.49925497533E+02  0.49925497533E+02  0.00000000000E+00 0. -1.
         23    2    1    2    0    0  0.00000000000E+00  0.00000000000E+00 -0.10168031780E+02  0.89682963286E+02  0.89104685811E+02 0.  0.
        -11    1    3    3    0    0  0.22091544842E+01  0.17646440496E+02 -0.46198037044E+02  0.49502887314E+02  0.00000000000E+00 0. -1.
         11    1    3    3    0    0 -0.22091544842E+01 -0.17646440496E+02  0.36030005265E+02  0.40180075972E+02  0.00000000000E+00 0.  1.
<mgrwt>
<rscale>  0 0.89104686E+02</rscale>
<asrwt>0</asrwt>
<pdfrwt beam="2">  1        1 0.76808458E-02 0.89104686E+02</pdfrwt>
<pdfrwt beam="1">  1       -1 0.61165332E-02 0.89104686E+02</pdfrwt>
<totfact> 0.99947747E+04</totfact>
</mgrwt>
</event>
<event>
 5    1  0.1247456E+001  0.9136204E+02  0.7546771E-02  0.1299586E+00
         -1   -1    0    0    0  501 -0.00000000000E+00  0.00000000000E+00  0.11146734521E+03  0.11146734521E+03  0.00000000000E+00 0.  1.
          1   -1    0    0  501    0  0.00000000000E+00 -0.00000000000E+00 -0.18720779710E+02  0.18720779710E+02  0.00000000000E+00 0. -1.
         23    2    1    2    0    0  0.00000000000E+00  0.00000000000E+00  0.92746565502E+02  0.13018812492E+03  0.91362040577E+02 0.  0.
        -13    1    3    3    0    0  0.45219874665E+02  0.63165847261E+01  0.48398197687E+02  0.66536620343E+02  0.00000000000E+00 0. -1.
         13    1    3    3    0    0 -0.45219874665E+02 -0.63165847261E+01  0.44348367815E+02  0.63651504580E+02  0.00000000000E+00 0.  1.
<mgrwt>
<rscale>  0 0.91362041E+02</rscale>
<asrwt>0</asrwt>
<pdfrwt beam="2">  1        1 0.28801200E-02 0.91362041E+02</pdfrwt>
<pdfrwt beam="1">  1       -1 0.17148822E-01 0.91362041E+02</pdfrwt>
<totfact> 0.79283501E+04</totfact>
</mgrwt>
</event>
<event>
 5    1  0.1247456E+001  0.9047025E+02  0.7546771E-02  0.1301717E+00
         -1   -1    0    0    0  501 -0.00000000000E+00  0.00000000000E+00  0.87690512141E+01  0.87690512141E+01  0.00000000000E+00 0.  1.
          1   -1    0    0  501    0  0.00000000000E+00 -0.00000000000E+00 -0.23334526252E+03  0.23334526252E+03  0.00000000000E+00 0. -1.
         23    2    1    2    0    0  0.00000000000E+00  0.00000000000E+00 -0.22457621131E+03  0.24211431374E+03  0.90470250527E+02 0.  0.
        -13    1    3    3    0    0  0.14534770989E+02  0.41816818015E+02 -0.87425476917E+02  0.97995509340E+02  0.00000000000E+00 0.  1.
         13    1    3    3    0    0 -0.14534770989E+02 -0.41816818015E+02 -0.13715073439E+03  0.14411880440E+03  0.00000000000E+00 0. -1.
<mgrwt>
<rscale>  0 0.90470251E+02</rscale>
<asrwt>0</asrwt>
<pdfrwt beam="2">  1        1 0.35899272E-01 0.90470251E+02</pdfrwt>
<pdfrwt beam="1">  1       -1 0.13490848E-02 0.90470251E+02</pdfrwt>
<totfact> 0.12458160E+05</totfact>
</mgrwt>
</event>
<event>
 5    1  0.1247456E+001  0.9240975E+02  0.7546771E-02  0.1297119E+00
          1   -1    0    0  501    0  0.00000000000E+00  0.00000000000E+00  0.26328850391E+02  0.26328850391E+02  0.00000000000E+00 0. -1.
         -1   -1    0    0    0  501 -0.00000000000E+00 -0.00000000000E+00 -0.81085595301E+02  0.81085595301E+02  0.00000000000E+00 0.  1.
         23    2    1    2    0    0  0.00000000000E+00  0.00000000000E+00 -0.54756744911E+02  0.10741444569E+03  0.92409750731E+02 0.  0.
        -13    1    3    3    0    0  0.25438921858E+02 -0.32191843456E+02 -0.52075330130E+02  0.66297010027E+02  0.00000000000E+00 0.  1.
         13    1    3    3    0    0 -0.25438921858E+02  0.32191843456E+02 -0.26814147807E+01  0.41117435665E+02  0.00000000000E+00 0. -1.
<mgrwt>
<rscale>  0 0.92409751E+02</rscale>
<asrwt>0</asrwt>
<pdfrwt beam="1">  1        1 0.40505924E-02 0.92409751E+02</pdfrwt>
<pdfrwt beam="2">  1       -1 0.12474707E-01 0.92409751E+02</pdfrwt>
<totfact> 0.81598529E+04</totfact>
</mgrwt>
</event>
<event>
 5    1  0.1247456E+001  0.9298782E+02  0.7546771E-02  0.1295773E+00
         -2   -1    0    0    0  501 -0.00000000000E+00  0.00000000000E+00  0.79448338362E+01  0.79448338362E+01  0.00000000000E+00 0.  1.
          2   -1    0    0  501    0  0.00000000000E+00 -0.00000000000E+00 -0.27208670771E+03  0.27208670771E+03  0.00000000000E+00 0. -1.
         23    2    1    2    0    0  0.00000000000E+00  0.00000000000E+00 -0.26414187388E+03  0.28003154155E+03  0.92987820317E+02 0.  0.
        -13    1    3    3    0    0  0.24815475925E+02 -0.31184759592E+02 -0.20418245781E+03  0.20803550936E+03  0.00000000000E+00 0. -1.
         13    1    3    3    0    0 -0.24815475925E+02  0.31184759592E+02 -0.59959416064E+02  0.71996032189E+02  0.00000000000E+00 0.  1.
<mgrwt>
<rscale>  0 0.92987820E+02</rscale>
<asrwt>0</asrwt>
<pdfrwt beam="2">  1        2 0.41859491E-01 0.92987820E+02</pdfrwt>
<pdfrwt beam="1">  1       -2 0.12222822E-02 0.92987820E+02</pdfrwt>
<totfact> 0.16434540E+05</totfact>
</mgrwt>
</event>
<event>
 5    1  0.1247456E+001  0.9102727E+02  0.7546771E-02  0.1300383E+00
         -2   -1    0    0    0  501 -0.00000000000E+00  0.00000000000E+00  0.20497566503E+03  0.20497566503E+03  0.00000000000E+00 0.  1.
          2   -1    0    0  501    0  0.00000000000E+00 -0.00000000000E+00 -0.10106033218E+02  0.10106033218E+02  0.00000000000E+00 0. -1.
         23    2    1    2    0    0  0.00000000000E+00  0.00000000000E+00  0.19486963181E+03  0.21508169825E+03  0.91027267995E+02 0.  0.
        -11    1    3    3    0    0 -0.15392509513E+01 -0.41263958736E+02  0.52206126361E+02  0.66562476018E+02  0.00000000000E+00 0. -1.
         11    1    3    3    0    0  0.15392509513E+01  0.41263958736E+02  0.14266350545E+03  0.14851922223E+03  0.00000000000E+00 0.  1.
<mgrwt>
<rscale>  0 0.91027268E+02</rscale>
<asrwt>0</asrwt>
<pdfrwt beam="2">  1        2 0.15547745E-02 0.91027268E+02</pdfrwt>
<pdfrwt beam="1">  1       -2 0.31534715E-01 0.91027268E+02</pdfrwt>
<totfact> 0.61914031E+04</totfact>
</mgrwt>
</event>
<event>
 5    1  0.1247456E+001  0.9235262E+02  0.7546771E-02  0.1297252E+00
         -3   -1    0    0    0  501 -0.00000000000E+00  0.00000000000E+00  0.91746147525E+01  0.91746147525E+01  0.00000000000E+00 0.  1.
          3   -1    0    0  501    0  0.00000000000E+00 -0.00000000000E+00 -0.23240776905E+03  0.23240776905E+03  0.00000000000E+00 0. -1.
         23    2    1    2    0    0  0.00000000000E+00  0.00000000000E+00 -0.22323315430E+03  0.24158238380E+03  0.92352623061E+02 0.  0.
        -11    1    3    3    0    0  0.36612629153E+02 -0.31476389667E+01 -0.18476086006E+03  0.18837984938E+03  0.00000000000E+00 0. -1.
         11    1    3    3    0    0 -0.36612629153E+02  0.31476389667E+01 -0.38472294243E+02  0.53202534422E+02  0.00000000000E+00 0.  1.
<mgrwt>
<rscale>  0 0.92352623E+02</rscale>
<asrwt>0</asrwt>
<pdfrwt beam="2">  1        3 0.35755039E-01 0.92352623E+02</pdfrwt>
<pdfrwt beam="1">  1       -3 0.14114793E-02 0.92352623E+02</pdfrwt>
<totfact> 0.25582711E+04</totfact>
</mgrwt>
</event>
<event>
 5    1  0.1247456E+001  0.9129574E+02  0.7546771E-02  0.1299744E+00
         -2   -1    0    0    0  501 -0.00000000000E+00  0.00000000000E+00  0.60358076377E+02  0.60358076377E+02  0.00000000000E+00 0.  1.
          2   -1    0    0  501    0  0.00000000000E+00 -0.00000000000E+00 -0.34522769795E+02  0.34522769795E+02  0.00000000000E+00 0. -1.
         23    2    1    2    0    0  0.00000000000E+00  0.00000000000E+00  0.25835306582E+02  0.94880846172E+02  0.91295738697E+02 0.  0.
        -13    1    3    3    0    0  0.14801282424E+02  0.43007009369E+02  0.88862587057E+01  0.46342706115E+02  0.00000000000E+00 0.  1.
         13    1    3    3    0    0 -0.14801282424E+02 -0.43007009369E+02  0.16949047877E+02  0.48538140057E+02  0.00000000000E+00 0. -1.
<mgrwt>
<rscale>  0 0.91295739E+02</rscale>
<asrwt>0</asrwt>
<pdfrwt beam="2">  1        2 0.53111954E-02 0.91295739E+02</pdfrwt>
<pdfrwt beam="1">  1       -2 0.92858579E-02 0.91295739E+02</pdfrwt>
<totfact> 0.91457151E+04</totfact>
</mgrwt>
</event>
<event>
 5    1  0.1247456E+001  0.8972354E+02  0.7546771E-02  0.1303523E+00
          1   -1    0    0  501    0  0.00000000000E+00  0.00000000000E+00  0.11863287816E+02  0.11863287816E+02  0.00000000000E+00 0. -1.
         -1   -1    0    0    0  501 -0.00000000000E+00 -0.00000000000E+00 -0.16964760617E+03  0.16964760617E+03  0.00000000000E+00 0.  1.
         23    2    1    2    0    0  0.00000000000E+00  0.00000000000E+00 -0.15778431836E+03  0.18151089399E+03  0.89723539369E+02 0.  0.
        -11    1    3    3    0    0 -0.33407812436E+02 -0.18876789513E+02 -0.31874736217E+02  0.49884004681E+02  0.00000000000E+00 0. -1.
         11    1    3    3    0    0  0.33407812436E+02  0.18876789513E+02 -0.12590958214E+03  0.13162688931E+03  0.00000000000E+00 0.  1.
<mgrwt>
<rscale>  0 0.89723539E+02</rscale>
<asrwt>0</asrwt>
<pdfrwt beam="1">  1        1 0.18251212E-02 0.89723539E+02</pdfrwt>
<pdfrwt beam="2">  1       -1 0.26099631E-01 0.89723539E+02</pdfrwt>
<totfact> 0.75669133E+04</totfact>
</mgrwt>
</event>
<event>
 5    1  0.1247456E+001  0.9136733E+02  0.7546771E-02  0.1299574E+00
          2   -1    0    0  501    0  0.00000000000E+00  0.00000000000E+00  0.24845141160E+02  0.24845141160E+02  0.00000000000E+00 0. -1.
         -2   -1    0    0    0  501 -0.00000000000E+00 -0.00000000000E+00 -0.84000209611E+02  0.84000209611E+02  0.00000000000E+00 0.  1.
         23    2    1    2    0    0  0.00000000000E+00  0.00000000000E+00 -0.59155068452E+02  0.10884535077E+03  0.91367326003E+02 0.  0.
        -11    1    3    3    0    0 -0.24225279337E+02 -0.93233614930E+01 -0.74361442024E+02  0.78761750160E+02  0.00000000000E+00 0.  1.
         11    1    3    3    0    0  0.24225279337E+02  0.93233614930E+01  0.15206373572E+02  0.30083600611E+02  0.00000000000E+00 0. -1.
<mgrwt>
<rscale>  0 0.91367326E+02</rscale>
<asrwt>0</asrwt>
<pdfrwt beam="1">  1        2 0.38223293E-02 0.91367326E+02</pdfrwt>
<pdfrwt beam="2">  1       -2 0.12923109E-01 0.91367326E+02</pdfrwt>
<totfact> 0.83500942E+04</totfact>
</mgrwt>
</event>
<event>
 5    1  0.1247456E+001  0.8866768E+02  0.7546771E-02  0.1306111E+00
         -3   -1    0    0    0  501 -0.00000000000E+00  0.00000000000E+00  0.65059189212E+02  0.65059189212E+02  0.00000000000E+00 0.  1.
          3   -1    0    0  501    0  0.00000000000E+00 -0.00000000000E+00 -0.30210786146E+02  0.30210786146E+02  0.00000000000E+00 0. -1.
         23    2    1    2    0    0  0.00000000000E+00  0.00000000000E+00  0.34848403066E+02  0.95269975358E+02  0.88667677360E+02 0.  0.
        -13    1    3    3    0    0 -0.34235597072E+02  0.25326186165E+02  0.30670936788E+02  0.52480455181E+02  0.00000000000E+00 0.  1.
         13    1    3    3    0    0  0.34235597072E+02 -0.25326186165E+02  0.41774662783E+01  0.42789520178E+02  0.00000000000E+00 0. -1.
<mgrwt>
<rscale>  0 0.88667677E+02</rscale>
<asrwt>0</asrwt>
<pdfrwt beam="2">  1        3 0.46478133E-02 0.88667677E+02</pdfrwt>
<pdfrwt beam="1">  1       -3 0.10009106E-01 0.88667677E+02</pdfrwt>
<totfact> 0.37783254E+04</totfact>
</mgrwt>
</event>
<event>
 5    1  0.1247456E+001  0.9170494E+02  0.7546771E-02  0.1298775E+00
         -2   -1    0    0    0  501 -0.00000000000E+00  0.00000000000E+00  0.20042148471E+02  0.20042148471E+02  0.00000000000E+00 0.  1.
          2   -1    0    0  501    0  0.00000000000E+00 -0.00000000000E+00 -0.10490138233E+03  0.10490138233E+03  0.00000000000E+00 0. -1.
         23    2    1    2    0    0  0.00000000000E+00  0.00000000000E+00 -0.84859233860E+02  0.12494353080E+03  0.91704941623E+02 0.  0.
        -11    1    3    3    0    0  0.79511491236E+01 -0.19812987502E+02 -0.97716846492E+02  0.10002178430E+03  0.00000000000E+00 0. -1.
         11    1    3    3    0    0 -0.79511491236E+01  0.19812987502E+02  0.12857612632E+02  0.24921746502E+02  0.00000000000E+00 0.  1.
<mgrwt>
<rscale>  0 0.91704942E+02</rscale>
<asrwt>0</asrwt>
<pdfrwt beam="2">  1        2 0.16138674E-01 0.91704942E+02</pdfrwt>
<pdfrwt beam="1">  1       -2 0.30834075E-02 0.91704942E+02</pdfrwt>
<totfact> 0.12252632E+05</totfact>
</mgrwt>
</event>
<event>
 5    1  0.1247456E+001  0.9139600E+02  0.7546771E-02  0.1299506E+00
          2   -1    0    0  501    0  0.00000000000E+00  0.00000000000E+00  0.14239064048E+03  0.14239064048E+03  0.00000000000E+00 0. -1.
         -2   -1    0    0    0  501 -0.00000000000E+00 -0.00000000000E+00 -0.14666043397E+02  0.14666043397E+02  0.00000000000E+00 0.  1.
         23    2    1    2    0    0  0.00000000000E+00  0.00000000000E+00  0.12772459708E+03  0.15705668388E+03  0.91396002377E+02 0.  0.
        -13    1    3    3    0    0  0.39630913328E+02  0.89386746758E+01  0.27906729406E+02  0.49287876220E+02  0.00000000000E+00 0.  1.
         13    1    3    3    0    0 -0.39630913328E+02 -0.89386746758E+01  0.99817867676E+02  0.10776880766E+03  0.00000000000E+00 0. -1.
<mgrwt>
<rscale>  0 0.91396002E+02</rscale>
<asrwt>0</asrwt>
<pdfrwt beam="1">  1        2 0.21906251E-01 0.91396002E+02</pdfrwt>
<pdfrwt beam="2">  1       -2 0.22563145E-02 0.91396002E+02</pdfrwt>
<totfact> 0.13647621E+05</totfact>
</mgrwt>
</event>
<event>
 5    1  0.1247456E+001  0.9115703E+02  0.7546771E-02  0.1300074E+00
          1   -1    0    0  501    0  0.00000000000E+00  0.00000000000E+00  0.96456157286E+02  0.96456157286E+02  0.00000000000E+00 0. -1.
         -1   -1    0    0    0  501 -0.00000000000E+00 -0.00000000000E+00 -0.21537256411E+02  0.21537256411E+02  0.00000000000E+00 0.  1.
         23    2    1    2    0    0  0.00000000000E+00  0.00000000000E+00  0.74918900876E+02  0.11799341370E+03  0.91157029172E+02 0.  0.
        -11    1    3    3    0    0 -0.30568179846E+02  0.19342806413E+02  0.15683730380E+01  0.36207976649E+02  0.00000000000E+00 0.  1.
         11    1    3    3    0    0  0.30568179846E+02 -0.19342806413E+02  0.73350527838E+02  0.81785437048E+02  0.00000000000E+00 0. -1.
<mgrwt>
<rscale>  0 0.91157029E+02</rscale>
<asrwt>0</asrwt>
<pdfrwt beam="1">  1        1 0.14839409E-01 0.91157029E+02</pdfrwt>
<pdfrwt beam="2">  1       -1 0.33134241E-02 0.91157029E+02</pdfrwt>
<totfact> 0.10389136E+05</totfact>
</mgrwt>
</event>
<event>
 5    1  0.1247456E+001  0.8905043E+02  0.7546771E-02  0.1305168E+00
          1   -1    0    0  501    0  0.00000000000E+00  0.00000000000E+00  0.17473890574E+03  0.17473890574E+03  0.00000000000E+00 0. -1.
         -1   -1    0    0    0  501 -0.00000000000E+00 -0.00000000000E+00 -0.11345467519E+02  0.11345467519E+02  0.00000000000E+00 0.  1.
         23    2    1    2    0    0  0.00000000000E+00  0.00000000000E+00  0.16339343822E+03  0.18608437326E+03  0.89050425701E+02 0.  0.
        -11    1    3    3    0    0 -0.43157959873E+02 -0.51349836379E+01  0.61488909646E+02  0.75298496445E+02  0.00000000000E+00 0. -1.
         11    1    3    3    0    0  0.43157959873E+02  0.51349836379E+01  0.10190452858E+03  0.11078587682E+03  0.00000000000E+00 0.  1.
<mgrwt>
<rscale>  0 0.89050426E+02</rscale>
<asrwt>0</asrwt>
<pdfrwt beam="1">  1        1 0.26882907E-01 0.89050426E+02</pdfrwt>
<pdfrwt beam="2">  1       -1 0.17454567E-02 0.89050426E+02</pdfrwt>
<totfact> 0.12291450E+05</totfact>
</mgrwt>
</event>
<event>
 5    1  0.1247456E+001  0.7866620E+02  0.7546771E-02  0.1332880E+00
         -4   -1    0    0    0  501 -0.00000000000E+00  0.00000000000E+00  0.26125030081E+03  0.26125030081E+03  0.00000000000E+00 0.  1.
          4   -1    0    0  501    0  0.00000000000E+00 -0.00000000000E+00 -0.59218795129E+01  0.59218795129E+01  0.00000000000E+00 0. -1.
         23    2    1    2    0    0  0.00000000000E+00  0.00000000000E+00  0.25532842130E+03  0.26717218033E+03  0.78666201233E+02 0.  0.
        -13    1    3    3    0    0  0.26305150717E+02  0.27687228904E+02  0.95705048130E+02  0.10304367926E+03  0.00000000000E+00 0. -1.
         13    1    3    3    0    0 -0.26305150717E+02 -0.27687228904E+02  0.15962337317E+03  0.16412850106E+03  0.00000000000E+00 0.  1.
<mgrwt>
<rscale>  0 0.78666201E+02</rscale>
<asrwt>0</asrwt>
<pdfrwt beam="2">  1        4 0.91105859E-03 0.78666201E+02</pdfrwt>
<pdfrwt beam="1">  1       -4 0.40192345E-01 0.78666201E+02</pdfrwt>
<totfact> 0.27838114E+04</totfact>
</mgrwt>
</event>
<event>
 5    1  0.1247456E+001  0.1019671E+03  0.7546771E-02  0.1276213E+00
          1   -1    0    0  501    0  0.00000000000E+00  0.00000000000E+00  0.26771150572E+03  0.26771150572E+03  0.00000000000E+00 0. -1.
         -1   -1    0    0    0  501 -0.00000000000E+00 -0.00000000000E+00 -0.97094164134E+01  0.97094164134E+01  0.00000000000E+00 0.  1.
         23    2    1    2    0    0  0.00000000000E+00  0.00000000000E+00  0.25800208931E+03  0.27742092213E+03  0.10196710230E+03 0.  0.
        -11    1    3    3    0    0 -0.14150441356E+02 -0.48930145117E+02  0.12296111433E+03  0.13309331211E+03  0.00000000000E+00 0.  1.
         11    1    3    3    0    0  0.14150441356E+02  0.48930145117E+02  0.13504097498E+03  0.14432761002E+03  0.00000000000E+00 0. -1.
<mgrwt>
<rscale>  0 0.10196710E+03</rscale>
<asrwt>0</asrwt>
<pdfrwt beam="1">  1        1 0.41186380E-01 0.10196710E+03</pdfrwt>
<pdfrwt beam="2">  1       -1 0.14937566E-02 0.10196710E+03</pdfrwt>
<totfact> 0.92812832E+04</totfact>
</mgrwt>
</event>
<event>
 5    1  0.1247456E+001  0.9062258E+02  0.7546771E-02  0.1301351E+00
          1   -1    0    0  501    0  0.00000000000E+00  0.00000000000E+00  0.11861959933E+03  0.11861959933E+03  0.00000000000E+00 0. -1.
         -1   -1    0    0    0  501 -0.00000000000E+00 -0.00000000000E+00 -0.17308378366E+02  0.17308378366E+02  0.00000000000E+00 0.  1.
         23    2    1    2    0    0  0.00000000000E+00  0.00000000000E+00  0.10131122096E+03  0.13592797769E+03  0.90622577909E+02 0.  0.
        -11    1    3    3    0    0 -0.33081085848E+02  0.11018582793E+02  0.72521068208E+01  0.35614048647E+02  0.00000000000E+00 0.  1.
         11    1    3    3    0    0  0.33081085848E+02 -0.11018582793E+02  0.94059114139E+02  0.10031392904E+03  0.00000000000E+00 0. -1.
<mgrwt>
<rscale>  0 0.90622578E+02</rscale>
<asrwt>0</asrwt>
<pdfrwt beam="1">  1        1 0.18249169E-01 0.90622578E+02</pdfrwt>
<pdfrwt beam="2">  1       -1 0.26628275E-02 0.90622578E+02</pdfrwt>
<totfact> 0.10931466E+05</totfact>
</mgrwt>
</event>
<event>
 5    1  0.1247456E+001  0.9074372E+02  0.7546771E-02  0.1301061E+00
          1   -1    0    0  501    0  0.00000000000E+00  0.00000000000E+00  0.16779040098E+03  0.16779040098E+03  0.00000000000E+00 0. -1.
         -1   -1    0    0    0  501 -0.00000000000E+00 -0.00000000000E+00 -0.12268912466E+02  0.12268912466E+02  0.00000000000E+00 0.  1.
         23    2    1    2    0    0  0.00000000000E+00  0.00000000000E+00  0.15552148851E+03  0.18005931344E+03  0.90743721373E+02 0.  0.
        -11    1    3    3    0    0  0.12478389366E+02 -0.42316078640E+02  0.98783157244E+02  0.10818721213E+03  0.00000000000E+00 0.  1.
         11    1    3    3    0    0 -0.12478389366E+02  0.42316078640E+02  0.56738331268E+02  0.71872101317E+02  0.00000000000E+00 0. -1.
<mgrwt>
<rscale>  0 0.90743721E+02</rscale>
<asrwt>0</asrwt>
<pdfrwt beam="1">  1        1 0.25813906E-01 0.90743721E+02</pdfrwt>
<pdfrwt beam="2">  1       -1 0.18875251E-02 0.90743721E+02</pdfrwt>
<totfact> 0.11596910E+05</totfact>
</mgrwt>
</event>
<event>
 5    1  0.1247456E+001  0.8923121E+02  0.7546771E-02  0.1304724E+00
         -1   -1    0    0    0  501 -0.00000000000E+00  0.00000000000E+00  0.11630686418E+02  0.11630686418E+02  0.00000000000E+00 0.  1.
          1   -1    0    0  501    0  0.00000000000E+00 -0.00000000000E+00 -0.17114659581E+03  0.17114659581E+03  0.00000000000E+00 0. -1.
         23    2    1    2    0    0  0.00000000000E+00  0.00000000000E+00 -0.15951590939E+03  0.18277728223E+03  0.89231213988E+02 0.  0.
        -11    1    3    3    0    0  0.15623253063E+02  0.31437622924E+02 -0.13615816898E+03  0.14061101362E+03  0.00000000000E+00 0. -1.
         11    1    3    3    0    0 -0.15623253063E+02 -0.31437622924E+02 -0.23357740418E+02  0.42166268613E+02  0.00000000000E+00 0.  1.
<mgrwt>
<rscale>  0 0.89231214E+02</rscale>
<asrwt>0</asrwt>
<pdfrwt beam="2">  1        1 0.26330244E-01 0.89231214E+02</pdfrwt>
<pdfrwt beam="1">  1       -1 0.17893365E-02 0.89231214E+02</pdfrwt>
<totfact> 0.12177243E+05</totfact>
</mgrwt>
</event>
<event>
 5    1  0.1247456E+001  0.9253827E+02  0.7546771E-02  0.1296819E+00
          1   -1    0    0  501    0  0.00000000000E+00  0.00000000000E+00  0.22424787791E+02  0.22424787791E+02  0.00000000000E+00 0. -1.
         -1   -1    0    0    0  501 -0.00000000000E+00 -0.00000000000E+00 -0.95467243131E+02  0.95467243131E+02  0.00000000000E+00 0.  1.
         23    2    1    2    0    0  0.00000000000E+00  0.00000000000E+00 -0.73042455341E+02  0.11789203092E+03  0.92538265992E+02 0.  0.
        -13    1    3    3    0    0 -0.25306368283E+02 -0.79783109680E+01  0.11768666786E+02  0.29027008794E+02  0.00000000000E+00 0. -1.
         13    1    3    3    0    0  0.25306368283E+02  0.79783109680E+01 -0.84811122126E+02  0.88865022129E+02  0.00000000000E+00 0.  1.
<mgrwt>
<rscale>  0 0.92538266E+02</rscale>
<asrwt>0</asrwt>
<pdfrwt beam="1">  1        1 0.34499674E-02 0.92538266E+02</pdfrwt>
<pdfrwt beam="2">  1       -1 0.14687268E-01 0.92538266E+02</pdfrwt>
<totfact> 0.78994413E+04</totfact>
</mgrwt>
</event>
<event>
 5    1  0.1247456E+001  0.8912686E+02  0.7546771E-02  0.1304980E+00
          1   -1    0    0  501    0  0.00000000000E+00  0.00000000000E+00  0.93649899166E+02  0.93649899166E+02  0.00000000000E+00 0. -1.
         -1   -1    0    0    0  501 -0.00000000000E+00 -0.00000000000E+00 -0.21205565740E+02  0.21205565740E+02  0.00000000000E+00 0.  1.
         23    2    1    2    0    0  0.00000000000E+00  0.00000000000E+00  0.72444333426E+02  0.11485546491E+03  0.89126855511E+02 0.  0.
        -11    1    3    3    0    0  0.26621034621E+02  0.11377038402E+02  0.79881077756E+02  0.84965305099E+02  0.00000000000E+00 0. -1.
         11    1    3    3    0    0 -0.26621034621E+02 -0.11377038402E+02 -0.74367443299E+01  0.29890159807E+02  0.00000000000E+00 0.  1.
<mgrwt>
<rscale>  0 0.89126856E+02</rscale>
<asrwt>0</asrwt>
<pdfrwt beam="1">  1        1 0.14407677E-01 0.89126856E+02</pdfrwt>
<pdfrwt beam="2">  1       -1 0.32623948E-02 0.89126856E+02</pdfrwt>
<totfact> 0.10993293E+05</totfact>
</mgrwt>
</event>
<event>
 5    1  0.1247456E+001  0.8925589E+02  0.7546771E-02  0.1304664E+00
         -1   -1    0    0    0  501 -0.00000000000E+00  0.00000000000E+00  0.38024039899E+02  0.38024039899E+02  0.00000000000E+00 0.  1.
          1   -1    0    0  501    0  0.00000000000E+00 -0.00000000000E+00 -0.52378792581E+02  0.52378792581E+02  0.00000000000E+00 0. -1.
         23    2    1    2    0    0  0.00000000000E+00  0.00000000000E+00 -0.14354752682E+02  0.90402832480E+02  0.89255886057E+02 0.  0.
        -11    1    3    3    0    0  0.22819220812E+02 -0.16461438733E+02 -0.42262911375E+02  0.50772526838E+02  0.00000000000E+00 0. -1.
         11    1    3    3    0    0 -0.22819220812E+02  0.16461438733E+02  0.27908158693E+02  0.39630305642E+02  0.00000000000E+00 0.  1.
<mgrwt>
<rscale>  0 0.89255886E+02</rscale>
<asrwt>0</asrwt>
<pdfrwt beam="2">  1        1 0.80582757E-02 0.89255886E+02</pdfrwt>
<pdfrwt beam="1">  1       -1 0.58498523E-02 0.89255886E+02</pdfrwt>
<totfact> 0.10018320E+05</totfact>
</mgrwt>
</event>
<event>
 5    1  0.1247456E+001  0.8128099E+02  0.7546771E-02  0.1325455E+00
          1   -1    0    0  501    0  0.00000000000E+00  0.00000000000E+00  0.60346000668E+02  0.60346000668E+02  0.00000000000E+00 0. -1.
         -1   -1    0    0    0  501 -0.00000000000E+00 -0.00000000000E+00 -0.27369667124E+02  0.27369667124E+02  0.00000000000E+00 0.  1.
         23    2    1    2    0    0  0.00000000000E+00  0.00000000000E+00  0.32976333544E+02  0.87715667792E+02  0.81280992872E+02 0.  0.
        -11    1    3    3    0    0 -0.15517622757E+02 -0.28374193362E+02  0.43048769577E+02  0.53843179950E+02  0.00000000000E+00 0. -1.
         11    1    3    3    0    0  0.15517622757E+02  0.28374193362E+02 -0.10072436033E+02  0.33872487842E+02  0.00000000000E+00 0.  1.
<mgrwt>
<rscale>  0 0.81280993E+02</rscale>
<asrwt>0</asrwt>
<pdfrwt beam="1">  1        1 0.92840001E-02 0.81280993E+02</pdfrwt>
<pdfrwt beam="2">  1       -1 0.42107180E-02 0.81280993E+02</pdfrwt>
<totfact> 0.13226371E+05</totfact>
</mgrwt>
</event>
<event>
 5    1  0.1247456E+001  0.9118540E+02  0.7546771E-02  0.1300006E+00
          2   -1    0    0  501    0  0.00000000000E+00  0.00000000000E+00  0.65470619380E+01  0.65470619380E+01  0.00000000000E+00 0. -1.
         -2   -1    0    0    0  501 -0.00000000000E+00 -0.00000000000E+00 -0.31750030628E+03  0.31750030628E+03  0.00000000000E+00 0.  1.
         23    2    1    2    0    0  0.00000000000E+00  0.00000000000E+00 -0.31095324434E+03  0.32404736822E+03  0.91185397307E+02 0.  0.
        -11    1    3    3    0    0 -0.41925081679E+02 -0.21711831511E-01 -0.91808356582E+02  0.10092812930E+03  0.00000000000E+00 0. -1.
         11    1    3    3    0    0  0.41925081679E+02  0.21711831511E-01 -0.21914488776E+03  0.22311923892E+03  0.00000000000E+00 0.  1.
<mgrwt>
<rscale>  0 0.91185397E+02</rscale>
<asrwt>0</asrwt>
<pdfrwt beam="1">  1        2 0.10072405E-02 0.91185397E+02</pdfrwt>
<pdfrwt beam="2">  1       -2 0.48846193E-01 0.91185397E+02</pdfrwt>
<totfact> 0.49359506E+04</totfact>
</mgrwt>
</event>
<event>
 5    1  0.1247456E+001  0.9138798E+02  0.7546771E-02  0.1299525E+00
         -3   -1    0    0    0  501 -0.00000000000E+00  0.00000000000E+00  0.94082309275E+02  0.94082309275E+02  0.00000000000E+00 0.  1.
          3   -1    0    0  501    0  0.00000000000E+00 -0.00000000000E+00 -0.22192700424E+02  0.22192700424E+02  0.00000000000E+00 0. -1.
         23    2    1    2    0    0  0.00000000000E+00  0.00000000000E+00  0.71889608851E+02  0.11627500970E+03  0.91387975247E+02 0.  0.
        -11    1    3    3    0    0 -0.18355652478E+02 -0.40965524759E+02  0.46803340827E+02  0.64851036300E+02  0.00000000000E+00 0. -1.
         11    1    3    3    0    0  0.18355652478E+02  0.40965524759E+02  0.25086268025E+02  0.51423973399E+02  0.00000000000E+00 0.  1.
<mgrwt>
<rscale>  0 0.91387975E+02</rscale>
<asrwt>0</asrwt>
<pdfrwt beam="2">  1        3 0.34142617E-02 0.91387975E+02</pdfrwt>
<pdfrwt beam="1">  1       -3 0.14474201E-01 0.91387975E+02</pdfrwt>
<totfact> 0.33294474E+04</totfact>
</mgrwt>
</event>
<event>
 5    1  0.1247456E+001  0.9173083E+02  0.7546771E-02  0.1298714E+00
         -3   -1    0    0    0  501 -0.00000000000E+00  0.00000000000E+00  0.55227112773E+02  0.55227112773E+02  0.00000000000E+00 0.  1.
          3   -1    0    0  501    0  0.00000000000E+00 -0.00000000000E+00 -0.38090642650E+02  0.38090642650E+02  0.00000000000E+00 0. -1.
         23    2    1    2    0    0  0.00000000000E+00  0.00000000000E+00  0.17136470123E+02  0.93317755423E+02  0.91730828346E+02 0.  0.
        -13    1    3    3    0    0 -0.44185395254E+02 -0.11838567928E+02  0.11962934684E+02  0.47282265709E+02  0.00000000000E+00 0.  1.
         13    1    3    3    0    0  0.44185395254E+02  0.11838567928E+02  0.51735354392E+01  0.46035489715E+02  0.00000000000E+00 0. -1.
<mgrwt>
<rscale>  0 0.91730828E+02</rscale>
<asrwt>0</asrwt>
<pdfrwt beam="2">  1        3 0.58600989E-02 0.91730828E+02</pdfrwt>
<pdfrwt beam="1">  1       -3 0.84964789E-02 0.91730828E+02</pdfrwt>
<totfact> 0.34598666E+04</totfact>
</mgrwt>
</event>
<event>
 5    1  0.1247456E+001  0.9090852E+02  0.7546771E-02  0.1300666E+00
         -3   -1    0    0    0  501 -0.00000000000E+00  0.00000000000E+00  0.11255055785E+02  0.11255055785E+02  0.00000000000E+00 0.  1.
          3   -1    0    0  501    0  0.00000000000E+00 -0.00000000000E+00 -0.18356992152E+03  0.18356992152E+03  0.00000000000E+00 0. -1.
         23    2    1    2    0    0  0.00000000000E+00  0.00000000000E+00 -0.17231486574E+03  0.19482497731E+03  0.90908519012E+02 0.  0.
        -11    1    3    3    0    0 -0.39315406232E+02  0.21760952534E+02 -0.10082616106E+03  0.11038638946E+03  0.00000000000E+00 0.  1.
         11    1    3    3    0    0  0.39315406232E+02 -0.21760952534E+02 -0.71488704673E+02  0.84438587850E+02  0.00000000000E+00 0. -1.
<mgrwt>
<rscale>  0 0.90908519E+02</rscale>
<asrwt>0</asrwt>
<pdfrwt beam="2">  1        3 0.28241528E-01 0.90908519E+02</pdfrwt>
<pdfrwt beam="1">  1       -3 0.17315469E-02 0.90908519E+02</pdfrwt>
<totfact> 0.28998038E+04</totfact>
</mgrwt>
</event>
<event>
 5    1  0.1247456E+001  0.9347727E+02  0.7546771E-02  0.1294643E+00
         -1   -1    0    0    0  501 -0.00000000000E+00  0.00000000000E+00  0.25240832195E+02  0.25240832195E+02  0.00000000000E+00 0.  1.
          1   -1    0    0  501    0  0.00000000000E+00 -0.00000000000E+00 -0.86546274055E+02  0.86546274055E+02  0.00000000000E+00 0. -1.
         23    2    1    2    0    0  0.00000000000E+00  0.00000000000E+00 -0.61305441860E+02  0.11178710625E+03  0.93477269548E+02 0.  0.
        -13    1    3    3    0    0  0.23637801907E+02 -0.22978502763E+02  0.89692410656E+01  0.34164375503E+02  0.00000000000E+00 0.  1.
         13    1    3    3    0    0 -0.23637801907E+02  0.22978502763E+02 -0.70274682926E+02  0.77622730746E+02  0.00000000000E+00 0. -1.
<mgrwt>
<rscale>  0 0.93477270E+02</rscale>
<asrwt>0</asrwt>
<pdfrwt beam="2">  1        1 0.13314811E-01 0.93477270E+02</pdfrwt>
<pdfrwt beam="1">  1       -1 0.38832050E-02 0.93477270E+02</pdfrwt>
<totfact> 0.95269686E+04</totfact>
</mgrwt>
</event>
<event>
 5    1  0.1247456E+001  0.9162935E+02  0.7546771E-02  0.1298953E+00
          1   -1    0    0  501    0  0.00000000000E+00  0.00000000000E+00  0.66302763933E+02  0.66302763933E+02  0.00000000000E+00 0. -1.
         -1   -1    0    0    0  501 -0.00000000000E+00 -0.00000000000E+00 -0.31657573216E+02  0.31657573216E+02  0.00000000000E+00 0.  1.
         23    2    1    2    0    0  0.00000000000E+00  0.00000000000E+00  0.34645190717E+02  0.97960337149E+02  0.91629353455E+02 0.  0.
        -13    1    3    3    0    0  0.11652224979E+02 -0.20212028137E+02  0.59476396071E+02  0.63888513193E+02  0.00000000000E+00 0. -1.
         13    1    3    3    0    0 -0.11652224979E+02  0.20212028137E+02 -0.24831205354E+02  0.34071823956E+02  0.00000000000E+00 0.  1.
<mgrwt>
<rscale>  0 0.91629353E+02</rscale>
<asrwt>0</asrwt>
<pdfrwt beam="1">  1        1 0.10200425E-01 0.91629353E+02</pdfrwt>
<pdfrwt beam="2">  1       -1 0.48703959E-02 0.91629353E+02</pdfrwt>
<totfact> 0.96516095E+04</totfact>
</mgrwt>
</event>
<event>
 5    1  0.1247456E+001  0.9119975E+02  0.7546771E-02  0.1299972E+00
         -2   -1    0    0    0  501 -0.00000000000E+00  0.00000000000E+00  0.38946154450E+02  0.38946154450E+02  0.00000000000E+00 0.  1.
          2   -1    0    0  501    0  0.00000000000E+00 -0.00000000000E+00 -0.53390342694E+02  0.53390342694E+02  0.00000000000E+00 0. -1.
         23    2    1    2    0    0  0.00000000000E+00  0.00000000000E+00 -0.14444188244E+02  0.92336497143E+02  0.91199748523E+02 0.  0.
        -13    1    3    3    0    0  0.19676530868E+02 -0.26423918191E+02 -0.39142178906E+02  0.51161503976E+02  0.00000000000E+00 0. -1.
         13    1    3    3    0    0 -0.19676530868E+02  0.26423918191E+02  0.24697990662E+02  0.41174993167E+02  0.00000000000E+00 0.  1.
<mgrwt>
<rscale>  0 0.91199749E+02</rscale>
<asrwt>0</asrwt>
<pdfrwt beam="2">  1        2 0.82138989E-02 0.91199749E+02</pdfrwt>
<pdfrwt beam="1">  1       -2 0.59917161E-02 0.91199749E+02</pdfrwt>
<totfact> 0.10275843E+05</totfact>
</mgrwt>
</event>
<event>
 5    1  0.1247456E+001  0.9746356E+02  0.7546771E-02  0.1285722E+00
         -2   -1    0    0    0  501 -0.00000000000E+00  0.00000000000E+00  0.60849717703E+02  0.60849717703E+02  0.00000000000E+00 0.  1.
          2   -1    0    0  501    0  0.00000000000E+00 -0.00000000000E+00 -0.39027073872E+02  0.39027073872E+02  0.00000000000E+00 0. -1.
         23    2    1    2    0    0  0.00000000000E+00  0.00000000000E+00  0.21822643831E+02  0.99876791575E+02  0.97463560942E+02 0.  0.
        -13    1    3    3    0    0 -0.10523959467E+02 -0.44660814385E+02  0.27732517458E+02  0.53613753730E+02  0.00000000000E+00 0.  1.
         13    1    3    3    0    0  0.10523959467E+02  0.44660814385E+02 -0.59098736270E+01  0.46263037845E+02  0.00000000000E+00 0. -1.
<mgrwt>
<rscale>  0 0.97463561E+02</rscale>
<asrwt>0</asrwt>
<pdfrwt beam="2">  1        2 0.60041652E-02 0.97463561E+02</pdfrwt>
<pdfrwt beam="1">  1       -2 0.93614951E-02 0.97463561E+02</pdfrwt>
<totfact> 0.77980310E+04</totfact>
</mgrwt>
</event>
<event>
 5    1  0.1247456E+001  0.9215904E+02  0.7546771E-02  0.1297706E+00
         -1   -1    0    0    0  501 -0.00000000000E+00  0.00000000000E+00  0.70297535881E+02  0.70297535881E+02  0.00000000000E+00 0.  1.
          1   -1    0    0  501    0  0.00000000000E+00 -0.00000000000E+00 -0.30204788208E+02  0.30204788208E+02  0.00000000000E+00 0. -1.
         23    2    1    2    0    0  0.00000000000E+00  0.00000000000E+00  0.40092747672E+02  0.10050232409E+03  0.92159040421E+02 0.  0.
        -13    1    3    3    0    0  0.26732069723E+02 -0.32113540749E+02  0.41232991186E+02  0.58703003444E+02  0.00000000000E+00 0.  1.
         13    1    3    3    0    0 -0.26732069723E+02  0.32113540749E+02 -0.11402435140E+01  0.41799320645E+02  0.00000000000E+00 0. -1.
<mgrwt>
<rscale>  0 0.92159040E+02</rscale>
<asrwt>0</asrwt>
<pdfrwt beam="2">  1        1 0.46468905E-02 0.92159040E+02</pdfrwt>
<pdfrwt beam="1">  1       -1 0.10815005E-01 0.92159040E+02</pdfrwt>
<totfact> 0.84146661E+04</totfact>
</mgrwt>
</event>
<event>
 5    1  0.1247456E+001  0.9197162E+02  0.7546771E-02  0.1298146E+00
         -1   -1    0    0    0  501 -0.00000000000E+00  0.00000000000E+00  0.79183207442E+02  0.79183207442E+02  0.00000000000E+00 0. -1.
          1   -1    0    0  501    0  0.00000000000E+00 -0.00000000000E+00 -0.26706353710E+02  0.26706353710E+02  0.00000000000E+00 0.  1.
         23    2    1    2    0    0  0.00000000000E+00  0.00000000000E+00  0.52476853732E+02  0.10588956115E+03  0.91971620531E+02 0.  0.
        -13    1    3    3    0    0  0.20413907976E+02  0.37255375501E+02  0.59670601279E+01  0.42898676543E+02  0.00000000000E+00 0. -1.
         13    1    3    3    0    0 -0.20413907976E+02 -0.37255375501E+02  0.46509793604E+02  0.62990884608E+02  0.00000000000E+00 0.  1.
<mgrwt>
<rscale>  0 0.91971621E+02</rscale>
<asrwt>0</asrwt>
<pdfrwt beam="2">  1        1 0.41086698E-02 0.91971621E+02</pdfrwt>
<pdfrwt beam="1">  1       -1 0.12182032E-01 0.91971621E+02</pdfrwt>
<totfact> 0.82932644E+04</totfact>
</mgrwt>
</event>
<event>
 5    1  0.1247456E+001  0.8560867E+02  0.7546771E-02  0.1313848E+00
         -1   -1    0    0    0  501 -0.00000000000E+00  0.00000000000E+00  0.92766099237E+01  0.92766099237E+01  0.00000000000E+00 0.  1.
          1   -1    0    0  501    0  0.00000000000E+00 -0.00000000000E+00 -0.19750868858E+03  0.19750868858E+03  0.00000000000E+00 0. -1.
         23    2    1    2    0    0  0.00000000000E+00  0.00000000000E+00 -0.18823207866E+03  0.20678529851E+03  0.85608669200E+02 0.  0.
        -13    1    3    3    0    0 -0.11089324819E+02  0.40614516293E+02 -0.75452867774E+02  0.86403977420E+02  0.00000000000E+00 0. -1.
         13    1    3    3    0    0  0.11089324819E+02 -0.40614516293E+02 -0.11277921089E+03  0.12038132109E+03  0.00000000000E+00 0.  1.
<mgrwt>
<rscale>  0 0.85608669E+02</rscale>
<asrwt>0</asrwt>
<pdfrwt beam="2">  1        1 0.30385953E-01 0.85608669E+02</pdfrwt>
<pdfrwt beam="1">  1       -1 0.14271707E-02 0.85608669E+02</pdfrwt>
<totfact> 0.13977523E+05</totfact>
</mgrwt>
</event>
<event>
 5    1  0.1247456E+001  0.9086222E+02  0.7546771E-02  0.1300777E+00
          3   -1    0    0  501    0  0.00000000000E+00  0.00000000000E+00  0.50439055460E+02  0.50439055460E+02  0.00000000000E+00 0. -1.
         -3   -1    0    0    0  501 -0.00000000000E+00 -0.00000000000E+00 -0.40920385737E+02  0.40920385737E+02  0.00000000000E+00 0.  1.
         23    2    1    2    0    0  0.00000000000E+00  0.00000000000E+00  0.95186697225E+01  0.91359441197E+02  0.90862216694E+02 0.  0.
        -11    1    3    3    0    0  0.85069017417E+01 -0.16251896305E+02 -0.37031244551E+02  0.41325592358E+02  0.00000000000E+00 0.  1.
         11    1    3    3    0    0 -0.85069017417E+01  0.16251896305E+02  0.46549914273E+02  0.50033848839E+02  0.00000000000E+00 0. -1.
<mgrwt>
<rscale>  0 0.90862217E+02</rscale>
<asrwt>0</asrwt>
<pdfrwt beam="1">  1        3 0.77598547E-02 0.90862217E+02</pdfrwt>
<pdfrwt beam="2">  1       -3 0.62954439E-02 0.90862217E+02</pdfrwt>
<totfact> 0.35658919E+04</totfact>
</mgrwt>
</event>
<event>
 5    1  0.1247456E+001  0.9419127E+02  0.7546771E-02  0.1293008E+00
          1   -1    0    0  501    0  0.00000000000E+00  0.00000000000E+00  0.18898098672E+03  0.18898098672E+03  0.00000000000E+00 0. -1.
         -1   -1    0    0    0  501 -0.00000000000E+00 -0.00000000000E+00 -0.11736623576E+02  0.11736623576E+02  0.00000000000E+00 0.  1.
         23    2    1    2    0    0  0.00000000000E+00  0.00000000000E+00  0.17724436314E+03  0.20071761030E+03  0.94191267200E+02 0.  0.
        -13    1    3    3    0    0  0.89041370963E+01 -0.31699283974E+02  0.16037790630E+03  0.16372294003E+03  0.00000000000E+00 0. -1.
         13    1    3    3    0    0 -0.89041370963E+01  0.31699283974E+02  0.16866456846E+02  0.36994670271E+02  0.00000000000E+00 0.  1.
<mgrwt>
<rscale>  0 0.94191267E+02</rscale>
<asrwt>0</asrwt>
<pdfrwt beam="1">  1        1 0.29073996E-01 0.94191267E+02</pdfrwt>
<pdfrwt beam="2">  1       -1 0.18056345E-02 0.94191267E+02</pdfrwt>
<totfact> 0.10729890E+05</totfact>
</mgrwt>
</event>
<event>
 5    1  0.1247456E+001  0.9168322E+02  0.7546771E-02  0.1298826E+00
         -1   -1    0    0    0  501 -0.00000000000E+00  0.00000000000E+00  0.11536681049E+03  0.11536681049E+03  0.00000000000E+00 0.  1.
          1   -1    0    0  501    0  0.00000000000E+00 -0.00000000000E+00 -0.18215406156E+02  0.18215406156E+02  0.00000000000E+00 0. -1.
         23    2    1    2    0    0  0.00000000000E+00  0.00000000000E+00  0.97151404334E+02  0.13358221665E+03  0.91683222239E+02 0.  0.
        -13    1    3    3    0    0  0.30171040617E+02  0.85724496254E+01  0.97285518562E+02  0.10221668507E+03  0.00000000000E+00 0.  1.
         13    1    3    3    0    0 -0.30171040617E+02 -0.85724496254E+01 -0.13411422880E+00  0.31365531577E+02  0.00000000000E+00 0. -1.
<mgrwt>
<rscale>  0 0.91683222E+02</rscale>
<asrwt>0</asrwt>
<pdfrwt beam="2">  1        1 0.28023702E-02 0.91683222E+02</pdfrwt>
<pdfrwt beam="1">  1       -1 0.17748740E-01 0.91683222E+02</pdfrwt>
<totfact> 0.78033055E+04</totfact>
</mgrwt>
</event>
<event>
 5    1  0.1247456E+001  0.9214581E+02  0.7546771E-02  0.1297737E+00
         -2   -1    0    0    0  501 -0.00000000000E+00  0.00000000000E+00  0.10355517395E+02  0.10355517395E+02  0.00000000000E+00 0.  1.
          2   -1    0    0  501    0  0.00000000000E+00 -0.00000000000E+00 -0.20498373844E+03  0.20498373844E+03  0.00000000000E+00 0. -1.
         23    2    1    2    0    0  0.00000000000E+00  0.00000000000E+00 -0.19462822105E+03  0.21533925583E+03  0.92145812038E+02 0.  0.
        -13    1    3    3    0    0 -0.32818489520E+02 -0.24663946806E+02 -0.48441926659E+02  0.63497903783E+02  0.00000000000E+00 0.  1.
         13    1    3    3    0    0  0.32818489520E+02  0.24663946806E+02 -0.14618629439E+03  0.15184135205E+03  0.00000000000E+00 0. -1.
<mgrwt>
<rscale>  0 0.92145812E+02</rscale>
<asrwt>0</asrwt>
<pdfrwt beam="2">  1        2 0.31535960E-01 0.92145812E+02</pdfrwt>
<pdfrwt beam="1">  1       -2 0.15931565E-02 0.92145812E+02</pdfrwt>
<totfact> 0.15168237E+05</totfact>
</mgrwt>
</event>
<event>
 5    1  0.1247456E+001  0.9086443E+02  0.7546771E-02  0.1300772E+00
         -1   -1    0    0    0  501 -0.00000000000E+00  0.00000000000E+00  0.14643827836E+03  0.14643827836E+03  0.00000000000E+00 0.  1.
          1   -1    0    0  501    0  0.00000000000E+00 -0.00000000000E+00 -0.14095262247E+02  0.14095262247E+02  0.00000000000E+00 0. -1.
         23    2    1    2    0    0  0.00000000000E+00  0.00000000000E+00  0.13234301611E+03  0.16053354061E+03  0.90864425086E+02 0.  0.
        -13    1    3    3    0    0 -0.67137651283E+01 -0.28739285904E+02  0.51470534690E+01  0.29958527265E+02  0.00000000000E+00 0. -1.
         13    1    3    3    0    0  0.67137651283E+01  0.28739285904E+02  0.12719596264E+03  0.13057501334E+03  0.00000000000E+00 0.  1.
<mgrwt>
<rscale>  0 0.90864425E+02</rscale>
<asrwt>0</asrwt>
<pdfrwt beam="2">  1        1 0.21685020E-02 0.90864425E+02</pdfrwt>
<pdfrwt beam="1">  1       -1 0.22528965E-01 0.90864425E+02</pdfrwt>
<totfact> 0.75879908E+04</totfact>
</mgrwt>
</event>
<event>
 5    1  0.1247456E+001  0.9298438E+02  0.7546771E-02  0.1295781E+00
         -4   -1    0    0    0  501 -0.00000000000E+00  0.00000000000E+00  0.26858221361E+02  0.26858221361E+02  0.00000000000E+00 0.  1.
          4   -1    0    0  501    0  0.00000000000E+00 -0.00000000000E+00 -0.80479031418E+02  0.80479031418E+02  0.00000000000E+00 0. -1.
         23    2    1    2    0    0  0.00000000000E+00  0.00000000000E+00 -0.53620810057E+02  0.10733725278E+03  0.92984378059E+02 0.  0.
        -11    1    3    3    0    0 -0.52686532300E+01  0.41712890333E+02 -0.39028792886E+01  0.42225068307E+02  0.00000000000E+00 0.  1.
         11    1    3    3    0    0  0.52686532300E+01 -0.41712890333E+02 -0.49717930769E+02  0.65112184472E+02  0.00000000000E+00 0. -1.
<mgrwt>
<rscale>  0 0.92984378E+02</rscale>
<asrwt>0</asrwt>
<pdfrwt beam="2">  1        4 0.12381389E-01 0.92984378E+02</pdfrwt>
<pdfrwt beam="1">  1       -4 0.41320341E-02 0.92984378E+02</pdfrwt>
<totfact> 0.24661238E+04</totfact>
</mgrwt>
</event>
<event>
 5    1  0.1247456E+001  0.9005688E+02  0.7546771E-02  0.1302714E+00
         -2   -1    0    0    0  501 -0.00000000000E+00  0.00000000000E+00  0.13423952819E+02  0.13423952819E+02  0.00000000000E+00 0.  1.
          2   -1    0    0  501    0  0.00000000000E+00 -0.00000000000E+00 -0.15104049508E+03  0.15104049508E+03  0.00000000000E+00 0. -1.
         23    2    1    2    0    0  0.00000000000E+00  0.00000000000E+00 -0.13761654226E+03  0.16446444790E+03  0.90056881574E+02 0.  0.
        -13    1    3    3    0    0 -0.33369208926E+01 -0.44630507307E+02 -0.77855617497E+02  0.89802641383E+02  0.00000000000E+00 0. -1.
         13    1    3    3    0    0  0.33369208926E+01  0.44630507307E+02 -0.59760924762E+02  0.74661806515E+02  0.00000000000E+00 0.  1.
<mgrwt>
<rscale>  0 0.90056882E+02</rscale>
<asrwt>0</asrwt>
<pdfrwt beam="2">  1        2 0.23237000E-01 0.90056882E+02</pdfrwt>
<pdfrwt beam="1">  1       -2 0.20652235E-02 0.90056882E+02</pdfrwt>
<totfact> 0.14491187E+05</totfact>
</mgrwt>
</event>
<event>
 5    1  0.1247456E+001  0.8865317E+02  0.7546771E-02  0.1306146E+00
         -1   -1    0    0    0  501 -0.00000000000E+00  0.00000000000E+00  0.51017781813E+01  0.51017781813E+01  0.00000000000E+00 0.  1.
          1   -1    0    0  501    0  0.00000000000E+00 -0.00000000000E+00 -0.38512965721E+03  0.38512965721E+03  0.00000000000E+00 0. -1.
         23    2    1    2    0    0  0.00000000000E+00  0.00000000000E+00 -0.38002787903E+03  0.39023143539E+03  0.88653168745E+02 0.  0.
        -11    1    3    3    0    0  0.34293734324E+02  0.27446695496E+02 -0.21622753479E+03  0.22064389434E+03  0.00000000000E+00 0.  1.
         11    1    3    3    0    0 -0.34293734324E+02 -0.27446695496E+02 -0.16380034423E+03  0.16958754105E+03  0.00000000000E+00 0. -1.
<mgrwt>
<rscale>  0 0.88653169E+02</rscale>
<asrwt>0</asrwt>
<pdfrwt beam="2">  1        1 0.59250684E-01 0.88653169E+02</pdfrwt>
<pdfrwt beam="1">  1       -1 0.78488938E-03 0.88653169E+02</pdfrwt>
<totfact> 0.14440002E+05</totfact>
</mgrwt>
</event>
<event>
 5    1  0.1247456E+001  0.9566976E+02  0.7546771E-02  0.1289675E+00
         -4   -1    0    0    0  501 -0.00000000000E+00  0.00000000000E+00  0.59976137574E+02  0.59976137574E+02  0.00000000000E+00 0.  1.
          4   -1    0    0  501    0  0.00000000000E+00 -0.00000000000E+00 -0.38151432084E+02  0.38151432084E+02  0.00000000000E+00 0. -1.
         23    2    1    2    0    0  0.00000000000E+00  0.00000000000E+00  0.21824705490E+02  0.98127569659E+02  0.95669755709E+02 0.  0.
        -11    1    3    3    0    0 -0.45683898575E+01  0.32192092688E+02 -0.25074254979E+02  0.41059947397E+02  0.00000000000E+00 0. -1.
         11    1    3    3    0    0  0.45683898575E+01 -0.32192092688E+02  0.46898960469E+02  0.57067622261E+02  0.00000000000E+00 0.  1.
<mgrwt>
<rscale>  0 0.95669756E+02</rscale>
<asrwt>0</asrwt>
<pdfrwt beam="2">  1        4 0.58694511E-02 0.95669756E+02</pdfrwt>
<pdfrwt beam="1">  1       -4 0.92270981E-02 0.95669756E+02</pdfrwt>
<totfact> 0.23310812E+04</totfact>
</mgrwt>
</event>
<event>
 5    1  0.1247456E+001  0.9216603E+02  0.7546771E-02  0.1297690E+00
         -1   -1    0    0    0  501 -0.00000000000E+00  0.00000000000E+00  0.10161841789E+02  0.10161841789E+02  0.00000000000E+00 0.  1.
          1   -1    0    0  501    0  0.00000000000E+00 -0.00000000000E+00 -0.20898222871E+03  0.20898222871E+03  0.00000000000E+00 0. -1.
         23    2    1    2    0    0  0.00000000000E+00  0.00000000000E+00 -0.19882038692E+03  0.21914407049E+03  0.92166031589E+02 0.  0.
        -13    1    3    3    0    0  0.42431036462E+00 -0.36472165502E+02 -0.16637746895E+03  0.17032868540E+03  0.00000000000E+00 0. -1.
         13    1    3    3    0    0 -0.42431036462E+00  0.36472165502E+02 -0.32442917964E+02  0.48815385092E+02  0.00000000000E+00 0.  1.
<mgrwt>
<rscale>  0 0.92166032E+02</rscale>
<asrwt>0</asrwt>
<pdfrwt beam="2">  1        1 0.32151113E-01 0.92166032E+02</pdfrwt>
<pdfrwt beam="1">  1       -1 0.15633602E-02 0.92166032E+02</pdfrwt>
<totfact> 0.11601283E+05</totfact>
</mgrwt>
</event>
