<event>
 5    1  0.1685506E-006  0.1250209E+03  0.7818608E-02  0.1235037E+00
          4   -1    0    0  501    0  0.00000000000E+00  0.00000000000E+00  0.52107558478E+02  0.52126903328E+02  0.14200000000E+01 0. -1.
         -4   -1    0    0    0  501 -0.00000000000E+00 -0.00000000000E+00 -0.74950224097E+02  0.74963674485E+02  0.14200000000E+01 0.  1.
         25    2    1    2    0    0  0.00000000000E+00  0.00000000000E+00 -0.22842665620E+02  0.12709057781E+03  0.12502090864E+03 0.  0.
        -13    1    3    3    0    0  0.59693917174E+02  0.18537219542E+02 -0.12177604742E+02  0.63681217684E+02  0.10570000000E+00 0.  1.
         13    1    3    3    0    0 -0.59693917174E+02 -0.18537219542E+02 -0.10665060877E+02  0.63409360129E+02  0.10570000000E+00 0. -1.
<mgrwt>
<rscale>  0 0.12502091E+03</rscale>
<asrwt>0</asrwt>
<pdfrwt beam="1">  1        4 0.80190702E-02 0.12502091E+03</pdfrwt>
<pdfrwt beam="2">  1       -4 0.11533326E-01 0.12502091E+03</pdfrwt>
<totfact> 0.10402268E+04</totfact>
</mgrwt>
</event>
<event>
 5    1  0.1685506E-006  0.1250002E+03  0.7818608E-02  0.1235069E+00
         -4   -1    0    0    0  501 -0.00000000000E+00  0.00000000000E+00  0.42287221184E+02  0.42311056185E+02  0.14200000000E+01 0.  1.
          4   -1    0    0  501    0  0.00000000000E+00 -0.00000000000E+00 -0.92319166438E+02  0.92330086601E+02  0.14200000000E+01 0.  1.
         25    2    1    2    0    0  0.00000000000E+00  0.00000000000E+00 -0.50031945254E+02  0.13464114279E+03  0.12500016714E+03 0.  0.
        -13    1    3    3    0    0  0.35777785064E+02  0.46163266003E+02 -0.10477091487E+01  0.58414089902E+02  0.10570000000E+00 0.  1.
         13    1    3    3    0    0 -0.35777785064E+02 -0.46163266003E+02 -0.48984236105E+02  0.76227052884E+02  0.10570000000E+00 0.  1.
<mgrwt>
<rscale>  0 0.12500017E+03</rscale>
<asrwt>0</asrwt>
<pdfrwt beam="2">  1        4 0.14205622E-01 0.12500017E+03</pdfrwt>
<pdfrwt beam="1">  1       -4 0.65083998E-02 0.12500017E+03</pdfrwt>
<totfact> 0.10245602E+04</totfact>
</mgrwt>
</event>
<event>
 5    1  0.1685506E-006  0.1250014E+03  0.7818608E-02  0.1235067E+00
         -4   -1    0    0    0  501 -0.00000000000E+00  0.00000000000E+00  0.39274275682E+02  0.39299938045E+02  0.14200000000E+01 0.  1.
          4   -1    0    0  501    0  0.00000000000E+00 -0.00000000000E+00 -0.99399827067E+02  0.99409969424E+02  0.14200000000E+01 0. -1.
         25    2    1    2    0    0  0.00000000000E+00  0.00000000000E+00 -0.60125551385E+02  0.13870990747E+03  0.12500142599E+03 0.  0.
        -13    1    3    3    0    0 -0.41888033948E+02  0.10839895585E+02  0.19985737318E+02  0.47660797234E+02  0.10570000000E+00 0.  1.
         13    1    3    3    0    0  0.41888033948E+02 -0.10839895585E+02 -0.80111288703E+02  0.91049110234E+02  0.10570000000E+00 0. -1.
<mgrwt>
<rscale>  0 0.12500143E+03</rscale>
<asrwt>0</asrwt>
<pdfrwt beam="2">  1        4 0.15295035E-01 0.12500143E+03</pdfrwt>
<pdfrwt beam="1">  1       -4 0.60449505E-02 0.12500143E+03</pdfrwt>
<totfact> 0.10160067E+04</totfact>
</mgrwt>
</event>
<event>
 5    1  0.1685506E-006  0.1249980E+03  0.7818608E-02  0.1235072E+00
         -4   -1    0    0    0  501 -0.00000000000E+00  0.00000000000E+00  0.17411979201E+02  0.17469785909E+02  0.14200000000E+01 0. -1.
          4   -1    0    0  501    0  0.00000000000E+00 -0.00000000000E+00 -0.22390375840E+03  0.22390826118E+03  0.14200000000E+01 0.  1.
         25    2    1    2    0    0  0.00000000000E+00  0.00000000000E+00 -0.20649177920E+03  0.24137804709E+03  0.12499802695E+03 0.  0.
        -13    1    3    3    0    0  0.43686636646E+02  0.27820802818E+02 -0.35697706018E+02  0.62903550602E+02  0.10570000000E+00 0. -1.
         13    1    3    3    0    0 -0.43686636646E+02 -0.27820802818E+02 -0.17079407318E+03  0.17847449649E+03  0.10570000000E+00 0.  1.
<mgrwt>
<rscale>  0 0.12499803E+03</rscale>
<asrwt>0</asrwt>
<pdfrwt beam="2">  1        4 0.34451523E-01 0.12499803E+03</pdfrwt>
<pdfrwt beam="1">  1       -4 0.26835592E-02 0.12499803E+03</pdfrwt>
<totfact> 0.83596236E+03</totfact>
</mgrwt>
</event>
<event>
 5    1  0.1685506E-006  0.1249975E+03  0.7818608E-02  0.1235073E+00
          4   -1    0    0  501    0  0.00000000000E+00  0.00000000000E+00  0.18663721345E+03  0.18664261530E+03  0.14200000000E+01 0.  1.
         -4   -1    0    0    0  501 -0.00000000000E+00 -0.00000000000E+00 -0.20899017280E+02  0.20947203232E+02  0.14200000000E+01 0. -1.
         25    2    1    2    0    0  0.00000000000E+00  0.00000000000E+00  0.16573819617E+03  0.20758981853E+03  0.12499753232E+03 0.  0.
        -13    1    3    3    0    0 -0.37600047272E+02  0.49866176743E+02  0.78909168440E+02  0.10063333033E+03  0.10570000000E+00 0. -1.
         13    1    3    3    0    0  0.37600047272E+02 -0.49866176743E+02  0.86829027734E+02  0.10695648820E+03  0.10570000000E+00 0.  1.
<mgrwt>
<rscale>  0 0.12499753E+03</rscale>
<asrwt>0</asrwt>
<pdfrwt beam="1">  1        4 0.28717540E-01 0.12499753E+03</pdfrwt>
<pdfrwt beam="2">  1       -4 0.32193555E-02 0.12499753E+03</pdfrwt>
<totfact> 0.88875917E+03</totfact>
</mgrwt>
</event>
<event>
 5    1  0.1685506E-006  0.1250003E+03  0.7818608E-02  0.1235069E+00
         -4   -1    0    0    0  501 -0.00000000000E+00  0.00000000000E+00  0.49780822992E+02  0.49801071652E+02  0.14200000000E+01 0. -1.
          4   -1    0    0  501    0  0.00000000000E+00 -0.00000000000E+00 -0.78426717215E+02  0.78439571474E+02  0.14200000000E+01 0. -1.
         25    2    1    2    0    0  0.00000000000E+00  0.00000000000E+00 -0.28645894223E+02  0.12824064313E+03  0.12500030117E+03 0.  0.
        -13    1    3    3    0    0  0.34723141233E+02  0.25611132542E+02 -0.60712704252E+02  0.74482684412E+02  0.10570000000E+00 0. -1.
         13    1    3    3    0    0 -0.34723141233E+02 -0.25611132542E+02  0.32066810029E+02  0.53757958714E+02  0.10570000000E+00 0. -1.
<mgrwt>
<rscale>  0 0.12500030E+03</rscale>
<asrwt>0</asrwt>
<pdfrwt beam="2">  1        4 0.12068195E-01 0.12500030E+03</pdfrwt>
<pdfrwt beam="1">  1       -4 0.76611345E-02 0.12500030E+03</pdfrwt>
<totfact> 0.10382223E+04</totfact>
</mgrwt>
</event>
<event>
 5    1  0.1685506E-006  0.1249942E+03  0.7818608E-02  0.1235078E+00
          4   -1    0    0  501    0  0.00000000000E+00  0.00000000000E+00  0.33625189855E+03  0.33625489688E+03  0.14200000000E+01 0.  1.
         -4   -1    0    0    0  501 -0.00000000000E+00 -0.00000000000E+00 -0.11569488623E+02  0.11656305890E+02  0.14200000000E+01 0. -1.
         25    2    1    2    0    0  0.00000000000E+00  0.00000000000E+00  0.32468240993E+03  0.34791120277E+03  0.12499415066E+03 0.  0.
        -13    1    3    3    0    0  0.50321618321E+02  0.26861020206E+02  0.23341895704E+03  0.24028774491E+03  0.10570000000E+00 0. -1.
         13    1    3    3    0    0 -0.50321618321E+02 -0.26861020206E+02  0.91263452890E+02  0.10762345787E+03  0.10570000000E+00 0.  1.
<mgrwt>
<rscale>  0 0.12499415E+03</rscale>
<asrwt>0</asrwt>
<pdfrwt beam="1">  1        4 0.51737971E-01 0.12499415E+03</pdfrwt>
<pdfrwt beam="2">  1       -4 0.17868302E-02 0.12499415E+03</pdfrwt>
<totfact> 0.69964017E+03</totfact>
</mgrwt>
</event>
<event>
 5    1  0.1685506E-006  0.1249992E+03  0.7818608E-02  0.1235070E+00
         -4   -1    0    0    0  501 -0.00000000000E+00  0.00000000000E+00  0.27535847273E+02  0.27572437053E+02  0.14200000000E+01 0. -1.
          4   -1    0    0  501    0  0.00000000000E+00 -0.00000000000E+00 -0.14172445562E+03  0.14173156924E+03  0.14200000000E+01 0.  1.
         25    2    1    2    0    0  0.00000000000E+00  0.00000000000E+00 -0.11418860835E+03  0.16930400630E+03  0.12499923309E+03 0.  0.
        -13    1    3    3    0    0  0.50526412241E+01  0.61187887973E+02 -0.41258117182E+02  0.73971144535E+02  0.10570000000E+00 0. -1.
         13    1    3    3    0    0 -0.50526412241E+01 -0.61187887973E+02 -0.72930491163E+02  0.95332861762E+02  0.10570000000E+00 0.  1.
<mgrwt>
<rscale>  0 0.12499923E+03</rscale>
<asrwt>0</asrwt>
<pdfrwt beam="2">  1        4 0.21807124E-01 0.12499923E+03</pdfrwt>
<pdfrwt beam="1">  1       -4 0.42396461E-02 0.12499923E+03</pdfrwt>
<totfact> 0.95580080E+03</totfact>
</mgrwt>
</event>
<event>
 5    1  0.1685506E-006  0.1250041E+03  0.7818608E-02  0.1235063E+00
          4   -1    0    0  501    0  0.00000000000E+00  0.00000000000E+00  0.15755646955E+02  0.15819507292E+02  0.14200000000E+01 0. -1.
         -4   -1    0    0    0  501 -0.00000000000E+00 -0.00000000000E+00 -0.24737605392E+03  0.24738012947E+03  0.14200000000E+01 0.  1.
         25    2    1    2    0    0  0.00000000000E+00  0.00000000000E+00 -0.23162040697E+03  0.26319963676E+03  0.12500414339E+03 0.  0.
        -13    1    3    3    0    0  0.11764803321E+02  0.57025362180E+02 -0.16364763852E+03  0.17369762029E+03  0.10570000000E+00 0.  1.
         13    1    3    3    0    0 -0.11764803321E+02 -0.57025362180E+02 -0.67972768450E+02  0.89502016470E+02  0.10570000000E+00 0. -1.
<mgrwt>
<rscale>  0 0.12500414E+03</rscale>
<asrwt>0</asrwt>
<pdfrwt beam="1">  1        4 0.24291717E-02 0.12500414E+03</pdfrwt>
<pdfrwt beam="2">  1       -4 0.38063077E-01 0.12500414E+03</pdfrwt>
<totfact> 0.80451706E+03</totfact>
</mgrwt>
</event>
<event>
 5    1  0.1685506E-006  0.1249942E+03  0.7818608E-02  0.1235078E+00
          4   -1    0    0  501    0  0.00000000000E+00  0.00000000000E+00  0.80545330713E+02  0.80557846915E+02  0.14200000000E+01 0.  1.
         -4   -1    0    0    0  501 -0.00000000000E+00 -0.00000000000E+00 -0.48466348851E+02  0.48487146450E+02  0.14200000000E+01 0. -1.
         25    2    1    2    0    0  0.00000000000E+00  0.00000000000E+00  0.32078981862E+02  0.12904499337E+03  0.12499419681E+03 0.  0.
        -13    1    3    3    0    0 -0.42994329308E+02 -0.86449333544E+01 -0.29930246892E+02  0.53094991071E+02  0.10570000000E+00 0. -1.
         13    1    3    3    0    0  0.42994329308E+02  0.86449333544E+01  0.62009228754E+02  0.75950002294E+02  0.10570000000E+00 0.  1.
<mgrwt>
<rscale>  0 0.12499420E+03</rscale>
<asrwt>0</asrwt>
<pdfrwt beam="1">  1        4 0.12394152E-01 0.12499420E+03</pdfrwt>
<pdfrwt beam="2">  1       -4 0.74589240E-02 0.12499420E+03</pdfrwt>
<totfact> 0.10366338E+04</totfact>
</mgrwt>
</event>
<event>
 5    1  0.1685506E-006  0.1250017E+03  0.7818608E-02  0.1235067E+00
          4   -1    0    0  501    0  0.00000000000E+00  0.00000000000E+00  0.63813597853E+02  0.63829395039E+02  0.14200000000E+01 0. -1.
         -4   -1    0    0    0  501 -0.00000000000E+00 -0.00000000000E+00 -0.61183535344E+02  0.61200011415E+02  0.14200000000E+01 0.  1.
         25    2    1    2    0    0  0.00000000000E+00  0.00000000000E+00  0.26300625096E+01  0.12502940645E+03  0.12500174098E+03 0.  0.
        -13    1    3    3    0    0  0.31886113677E+02  0.51948508189E+02 -0.12507429978E+02  0.62223940133E+02  0.10570000000E+00 0.  1.
         13    1    3    3    0    0 -0.31886113677E+02 -0.51948508189E+02  0.15137492488E+02  0.62805466321E+02  0.10570000000E+00 0. -1.
<mgrwt>
<rscale>  0 0.12500174E+03</rscale>
<asrwt>0</asrwt>
<pdfrwt beam="1">  1        4 0.98199591E-02 0.12500174E+03</pdfrwt>
<pdfrwt beam="2">  1       -4 0.94153342E-02 0.12500174E+03</pdfrwt>
<totfact> 0.10451813E+04</totfact>
</mgrwt>
</event>
<event>
 5    1  0.1685506E-006  0.1250111E+03  0.7818608E-02  0.1235052E+00
         -4   -1    0    0    0  501 -0.00000000000E+00  0.00000000000E+00  0.17154096093E+02  0.17212768887E+02  0.14200000000E+01 0.  1.
          4   -1    0    0  501    0  0.00000000000E+00 -0.00000000000E+00 -0.22730593615E+03  0.22731037154E+03  0.14200000000E+01 0. -1.
         25    2    1    2    0    0  0.00000000000E+00  0.00000000000E+00 -0.21015184006E+03  0.24452314042E+03  0.12501108081E+03 0.  0.
        -13    1    3    3    0    0  0.32312067984E+02 -0.18001808776E+02 -0.65193899352E+01  0.37558600536E+02  0.10570000000E+00 0.  1.
         13    1    3    3    0    0 -0.32312067984E+02  0.18001808776E+02 -0.20363245012E+03  0.20696453989E+03  0.10570000000E+00 0. -1.
<mgrwt>
<rscale>  0 0.12501108E+03</rscale>
<asrwt>0</asrwt>
<pdfrwt beam="2">  1        4 0.34974996E-01 0.12501108E+03</pdfrwt>
<pdfrwt beam="1">  1       -4 0.26439463E-02 0.12501108E+03</pdfrwt>
<totfact> 0.83107780E+03</totfact>
</mgrwt>
</event>
<event>
 5    1  0.1685506E-006  0.1250296E+03  0.7818608E-02  0.1235023E+00
          4   -1    0    0  501    0  0.00000000000E+00  0.00000000000E+00  0.29923688942E+02  0.29957362365E+02  0.14200000000E+01 0. -1.
         -4   -1    0    0    0  501 -0.00000000000E+00 -0.00000000000E+00 -0.13049113737E+03  0.13049886334E+03  0.14200000000E+01 0.  1.
         25    2    1    2    0    0  0.00000000000E+00  0.00000000000E+00 -0.10056744843E+03  0.16045622570E+03  0.12502955124E+03 0.  0.
        -13    1    3    3    0    0 -0.45814685162E+02 -0.30584788491E+02 -0.88216789923E+02  0.10400301852E+03  0.10570000000E+00 0.  1.
         13    1    3    3    0    0  0.45814685162E+02  0.30584788491E+02 -0.12350658504E+02  0.56453207185E+02  0.10570000000E+00 0. -1.
<mgrwt>
<rscale>  0 0.12502955E+03</rscale>
<asrwt>0</asrwt>
<pdfrwt beam="1">  1        4 0.46068291E-02 0.12502955E+03</pdfrwt>
<pdfrwt beam="2">  1       -4 0.20078744E-01 0.12502955E+03</pdfrwt>
<totfact> 0.97190332E+03</totfact>
</mgrwt>
</event>
<event>
 5    1  0.1685506E-006  0.1249993E+03  0.7818608E-02  0.1235070E+00
         -4   -1    0    0    0  501 -0.00000000000E+00  0.00000000000E+00  0.16485192081E+03  0.16485803649E+03  0.14200000000E+01 0.  1.
          4   -1    0    0  501    0  0.00000000000E+00 -0.00000000000E+00 -0.23667391132E+02  0.23709951561E+02  0.14200000000E+01 0. -1.
         25    2    1    2    0    0  0.00000000000E+00  0.00000000000E+00  0.14118452968E+03  0.18856798805E+03  0.12499925878E+03 0.  0.
        -13    1    3    3    0    0 -0.51490934865E+02  0.32419963622E+02  0.92129311642E+02  0.11040920093E+03  0.10570000000E+00 0.  1.
         13    1    3    3    0    0  0.51490934865E+02 -0.32419963622E+02  0.49055218037E+02  0.78158787118E+02  0.10570000000E+00 0. -1.
<mgrwt>
<rscale>  0 0.12499926E+03</rscale>
<asrwt>0</asrwt>
<pdfrwt beam="2">  1        4 0.36448816E-02 0.12499926E+03</pdfrwt>
<pdfrwt beam="1">  1       -4 0.25365577E-01 0.12499926E+03</pdfrwt>
<totfact> 0.92098608E+03</totfact>
</mgrwt>
</event>
<event>
 5    1  0.1685506E-006  0.1249994E+03  0.7818608E-02  0.1235070E+00
          4   -1    0    0  501    0  0.00000000000E+00  0.00000000000E+00  0.51306563460E+03  0.51306759965E+03  0.14200000000E+01 0. -1.
         -4   -1    0    0    0  501 -0.00000000000E+00 -0.00000000000E+00 -0.75452661108E+01  0.76777236654E+01  0.14200000000E+01 0.  1.
         25    2    1    2    0    0  0.00000000000E+00  0.00000000000E+00  0.50552036849E+03  0.52074532331E+03  0.12499939518E+03 0.  0.
        -13    1    3    3    0    0  0.53006802979E+02 -0.33081349376E+02  0.25880328286E+03  0.26623907908E+03  0.10570000000E+00 0.  1.
         13    1    3    3    0    0 -0.53006802979E+02  0.33081349376E+02  0.24671708564E+03  0.25450624424E+03  0.10570000000E+00 0. -1.
<mgrwt>
<rscale>  0 0.12499940E+03</rscale>
<asrwt>0</asrwt>
<pdfrwt beam="1">  1        4 0.78943527E-01 0.12499940E+03</pdfrwt>
<pdfrwt beam="2">  1       -4 0.11711502E-02 0.12499940E+03</pdfrwt>
<totfact> 0.54290674E+03</totfact>
</mgrwt>
</event>
<event>
 5    1  0.1685506E-006  0.1249983E+03  0.7818608E-02  0.1235072E+00
          4   -1    0    0  501    0  0.00000000000E+00  0.00000000000E+00  0.20116423825E+02  0.20166479799E+02  0.14200000000E+01 0.  1.
         -4   -1    0    0    0  501 -0.00000000000E+00 -0.00000000000E+00 -0.19388293972E+03  0.19388813970E+03  0.14200000000E+01 0. -1.
         25    2    1    2    0    0  0.00000000000E+00  0.00000000000E+00 -0.17376651590E+03  0.21405461949E+03  0.12499831231E+03 0.  0.
        -13    1    3    3    0    0 -0.15715085879E+02 -0.60324280642E+02 -0.94570389664E+02  0.11326761467E+03  0.10570000000E+00 0. -1.
         13    1    3    3    0    0  0.15715085879E+02  0.60324280642E+02 -0.79196126231E+02  0.10078700483E+03  0.10570000000E+00 0.  1.
<mgrwt>
<rscale>  0 0.12499831E+03</rscale>
<asrwt>0</asrwt>
<pdfrwt beam="1">  1        4 0.30990850E-02 0.12499831E+03</pdfrwt>
<pdfrwt beam="2">  1       -4 0.29832394E-01 0.12499831E+03</pdfrwt>
<totfact> 0.87821273E+03</totfact>
</mgrwt>
</event>
<event>
 5    1  0.1685506E-006  0.1250167E+03  0.7818608E-02  0.1235043E+00
         -4   -1    0    0    0  501 -0.00000000000E+00  0.00000000000E+00  0.20414250952E+03  0.20414744816E+03  0.14200000000E+01 0.  1.
          4   -1    0    0  501    0  0.00000000000E+00 -0.00000000000E+00 -0.19108524398E+02  0.19161213549E+02  0.14200000000E+01 0. -1.
         25    2    1    2    0    0  0.00000000000E+00  0.00000000000E+00  0.18503398512E+03  0.22330866171E+03  0.12501672987E+03 0.  0.
        -13    1    3    3    0    0 -0.50634571140E+02 -0.33746798606E+02  0.11806559925E+03  0.13282395533E+03  0.10570000000E+00 0.  1.
         13    1    3    3    0    0  0.50634571140E+02  0.33746798606E+02  0.66968385870E+02  0.90484706383E+02  0.10570000000E+00 0. -1.
<mgrwt>
<rscale>  0 0.12501673E+03</rscale>
<asrwt>0</asrwt>
<pdfrwt beam="2">  1        4 0.29442059E-02 0.12501673E+03</pdfrwt>
<pdfrwt beam="1">  1       -4 0.31410972E-01 0.12501673E+03</pdfrwt>
<totfact> 0.86315240E+03</totfact>
</mgrwt>
</event>
<event>
 5    1  0.1685506E-006  0.1250116E+03  0.7818608E-02  0.1235051E+00
         -4   -1    0    0    0  501 -0.00000000000E+00  0.00000000000E+00  0.26553843048E+02  0.26591784082E+02  0.14200000000E+01 0. -1.
          4   -1    0    0  501    0  0.00000000000E+00 -0.00000000000E+00 -0.14698769553E+03  0.14699455445E+03  0.14200000000E+01 0.  1.
         25    2    1    2    0    0  0.00000000000E+00  0.00000000000E+00 -0.12043385248E+03  0.17358633853E+03  0.12501161586E+03 0.  0.
        -13    1    3    3    0    0 -0.31486784204E+02 -0.28847822582E+02  0.31622126957E+01  0.42820850165E+02  0.10570000000E+00 0. -1.
         13    1    3    3    0    0  0.31486784204E+02  0.28847822582E+02 -0.12359606518E+03  0.13076548836E+03  0.10570000000E+00 0.  1.
<mgrwt>
<rscale>  0 0.12501162E+03</rscale>
<asrwt>0</asrwt>
<pdfrwt beam="2">  1        4 0.22616937E-01 0.12501162E+03</pdfrwt>
<pdfrwt beam="1">  1       -4 0.40886529E-02 0.12501162E+03</pdfrwt>
<totfact> 0.94759690E+03</totfact>
</mgrwt>
</event>
<event>
 5    1  0.1685506E-006  0.1250006E+03  0.7818608E-02  0.1235068E+00
          4   -1    0    0  501    0  0.00000000000E+00  0.00000000000E+00  0.68906644523E+02  0.68921274360E+02  0.14200000000E+01 0.  1.
         -4   -1    0    0    0  501 -0.00000000000E+00 -0.00000000000E+00 -0.56660046130E+02  0.56677837180E+02  0.14200000000E+01 0.  1.
         25    2    1    2    0    0  0.00000000000E+00  0.00000000000E+00  0.12246598393E+02  0.12559911154E+03  0.12500063059E+03 0.  0.
        -13    1    3    3    0    0 -0.39247052643E+02  0.48594418381E+02  0.82617748414E+01  0.63008068809E+02  0.10570000000E+00 0. -1.
         13    1    3    3    0    0  0.39247052643E+02 -0.48594418381E+02  0.39848235511E+01  0.62591042731E+02  0.10570000000E+00 0. -1.
<mgrwt>
<rscale>  0 0.12500063E+03</rscale>
<asrwt>0</asrwt>
<pdfrwt beam="1">  1        4 0.10603516E-01 0.12500063E+03</pdfrwt>
<pdfrwt beam="2">  1       -4 0.87194241E-02 0.12500063E+03</pdfrwt>
<totfact> 0.10439618E+04</totfact>
</mgrwt>
</event>
<event>
 5    1  0.1685506E-006  0.1250039E+03  0.7818608E-02  0.1235063E+00
          4   -1    0    0  501    0  0.00000000000E+00  0.00000000000E+00  0.32848577713E+03  0.32848884635E+03  0.14200000000E+01 0.  1.
         -4   -1    0    0    0  501 -0.00000000000E+00 -0.00000000000E+00 -0.11846906030E+02  0.11931704927E+02  0.14200000000E+01 0. -1.
         25    2    1    2    0    0  0.00000000000E+00  0.00000000000E+00  0.31663887110E+03  0.34042055127E+03  0.12500390810E+03 0.  0.
        -13    1    3    3    0    0 -0.21449562618E+02  0.57794497814E+02  0.13025573238E+03  0.14410709456E+03  0.10570000000E+00 0. -1.
         13    1    3    3    0    0  0.21449562618E+02 -0.57794497814E+02  0.18638313872E+03  0.19631345671E+03  0.10570000000E+00 0.  1.
<mgrwt>
<rscale>  0 0.12500391E+03</rscale>
<asrwt>0</asrwt>
<pdfrwt beam="1">  1        4 0.50543022E-01 0.12500391E+03</pdfrwt>
<pdfrwt beam="2">  1       -4 0.18293604E-02 0.12500391E+03</pdfrwt>
<totfact> 0.70785310E+03</totfact>
</mgrwt>
</event>
<event>
 5    1  0.1685506E-006  0.1249991E+03  0.7818608E-02  0.1235071E+00
          4   -1    0    0  501    0  0.00000000000E+00  0.00000000000E+00  0.73167705652E+02  0.73181483658E+02  0.14200000000E+01 0. -1.
         -4   -1    0    0    0  501 -0.00000000000E+00 -0.00000000000E+00 -0.53358613466E+02  0.53377504916E+02  0.14200000000E+01 0.  1.
         25    2    1    2    0    0  0.00000000000E+00  0.00000000000E+00  0.19809092186E+02  0.12655898857E+03  0.12499910982E+03 0.  0.
        -13    1    3    3    0    0  0.30145272074E+02 -0.19047354858E+02 -0.42064775600E+02  0.55145223495E+02  0.10570000000E+00 0.  1.
         13    1    3    3    0    0 -0.30145272074E+02  0.19047354858E+02  0.61873867786E+02  0.71413765079E+02  0.10570000000E+00 0. -1.
<mgrwt>
<rscale>  0 0.12499911E+03</rscale>
<asrwt>0</asrwt>
<pdfrwt beam="1">  1        4 0.11259083E-01 0.12499911E+03</pdfrwt>
<pdfrwt beam="2">  1       -4 0.82115305E-02 0.12499911E+03</pdfrwt>
<totfact> 0.10418951E+04</totfact>
</mgrwt>
</event>
<event>
 5    1  0.1685506E-006  0.1250003E+03  0.7818608E-02  0.1235069E+00
         -4   -1    0    0    0  501 -0.00000000000E+00  0.00000000000E+00  0.18551081851E+03  0.18551625316E+03  0.14200000000E+01 0. -1.
          4   -1    0    0  501    0  0.00000000000E+00 -0.00000000000E+00 -0.21027124407E+02  0.21075017458E+02  0.14200000000E+01 0. -1.
         25    2    1    2    0    0  0.00000000000E+00  0.00000000000E+00  0.16448369410E+03  0.20659127061E+03  0.12500026987E+03 0.  0.
        -13    1    3    3    0    0 -0.12571468811E+02  0.47886718374E+02  0.14528586228E+03  0.15348997549E+03  0.10570000000E+00 0. -1.
         13    1    3    3    0    0  0.12571468811E+02 -0.47886718374E+02  0.19197831826E+02  0.53101295126E+02  0.10570000000E+00 0. -1.
<mgrwt>
<rscale>  0 0.12500027E+03</rscale>
<asrwt>0</asrwt>
<pdfrwt beam="2">  1        4 0.32390444E-02 0.12500027E+03</pdfrwt>
<pdfrwt beam="1">  1       -4 0.28544227E-01 0.12500027E+03</pdfrwt>
<totfact> 0.89035077E+03</totfact>
</mgrwt>
</event>
<event>
 5    1  0.1685506E-006  0.1250073E+03  0.7818608E-02  0.1235058E+00
          4   -1    0    0  501    0  0.00000000000E+00  0.00000000000E+00  0.19404544670E+03  0.19405064232E+03  0.14200000000E+01 0. -1.
         -4   -1    0    0    0  501 -0.00000000000E+00 -0.00000000000E+00 -0.20102439456E+02  0.20152530166E+02  0.14200000000E+01 0.  1.
         25    2    1    2    0    0  0.00000000000E+00  0.00000000000E+00  0.17394300724E+03  0.21420317249E+03  0.12500731712E+03 0.  0.
        -13    1    3    3    0    0 -0.41368102412E+02 -0.37804494323E+02  0.39540693950E+02  0.68585547593E+02  0.10570000000E+00 0.  1.
         13    1    3    3    0    0  0.41368102412E+02  0.37804494323E+02  0.13440231329E+03  0.14561762489E+03  0.10570000000E+00 0. -1.
<mgrwt>
<rscale>  0 0.12500732E+03</rscale>
<asrwt>0</asrwt>
<pdfrwt beam="1">  1        4 0.29857400E-01 0.12500732E+03</pdfrwt>
<pdfrwt beam="2">  1       -4 0.30969357E-02 0.12500732E+03</pdfrwt>
<totfact> 0.87779659E+03</totfact>
</mgrwt>
</event>
<event>
 5    1  0.1685506E-006  0.1250026E+03  0.7818608E-02  0.1235065E+00
          4   -1    0    0  501    0  0.00000000000E+00  0.00000000000E+00  0.13296185271E+03  0.13296943512E+03  0.14200000000E+01 0.  1.
         -4   -1    0    0    0  501 -0.00000000000E+00 -0.00000000000E+00 -0.29354362617E+02  0.29388688379E+02  0.14200000000E+01 0. -1.
         25    2    1    2    0    0  0.00000000000E+00  0.00000000000E+00  0.10360749009E+03  0.16235812350E+03  0.12500259302E+03 0.  0.
        -13    1    3    3    0    0  0.55760872588E+02  0.17069514891E+02  0.81013386657E+02  0.99818952311E+02  0.10570000000E+00 0. -1.
         13    1    3    3    0    0 -0.55760872588E+02 -0.17069514891E+02  0.22594103437E+02  0.62539171189E+02  0.10570000000E+00 0.  1.
<mgrwt>
<rscale>  0 0.12500259E+03</rscale>
<asrwt>0</asrwt>
<pdfrwt beam="1">  1        4 0.20458893E-01 0.12500259E+03</pdfrwt>
<pdfrwt beam="2">  1       -4 0.45192796E-02 0.12500259E+03</pdfrwt>
<totfact> 0.96884429E+03</totfact>
</mgrwt>
</event>
<event>
 5    1  0.1685506E-006  0.1250046E+03  0.7818608E-02  0.1235062E+00
         -4   -1    0    0    0  501 -0.00000000000E+00  0.00000000000E+00  0.58516814919E+02  0.58534041619E+02  0.14200000000E+01 0. -1.
          4   -1    0    0  501    0  0.00000000000E+00 -0.00000000000E+00 -0.66724572651E+02  0.66739680816E+02  0.14200000000E+01 0.  1.
         25    2    1    2    0    0  0.00000000000E+00  0.00000000000E+00 -0.82077577320E+01  0.12527372243E+03  0.12500455290E+03 0.  0.
        -13    1    3    3    0    0  0.35999281678E+02  0.50684307444E+02  0.23657239100E+01  0.62212981962E+02  0.10570000000E+00 0. -1.
         13    1    3    3    0    0 -0.35999281678E+02 -0.50684307444E+02 -0.10573481642E+02  0.63060740473E+02  0.10570000000E+00 0.  1.
<mgrwt>
<rscale>  0 0.12500455E+03</rscale>
<asrwt>0</asrwt>
<pdfrwt beam="2">  1        4 0.10267806E-01 0.12500455E+03</pdfrwt>
<pdfrwt beam="1">  1       -4 0.90050742E-02 0.12500455E+03</pdfrwt>
<totfact> 0.10445845E+04</totfact>
</mgrwt>
</event>
<event>
 5    1  0.1685506E-006  0.1249991E+03  0.7818608E-02  0.1235071E+00
          4   -1    0    0  501    0  0.00000000000E+00  0.00000000000E+00  0.10220668995E+03  0.10221655380E+03  0.14200000000E+01 0. -1.
         -4   -1    0    0    0  501 -0.00000000000E+00 -0.00000000000E+00 -0.38193686573E+02  0.38220074490E+02  0.14200000000E+01 0.  1.
         25    2    1    2    0    0  0.00000000000E+00  0.00000000000E+00  0.64013003380E+02  0.14043662829E+03  0.12499912785E+03 0.  0.
        -13    1    3    3    0    0  0.28519245868E+01 -0.44663360966E+02 -0.17007439199E+02  0.47877065984E+02  0.10570000000E+00 0.  1.
         13    1    3    3    0    0 -0.28519245868E+01  0.44663360966E+02  0.81020442579E+02  0.92559562309E+02  0.10570000000E+00 0. -1.
<mgrwt>
<rscale>  0 0.12499913E+03</rscale>
<asrwt>0</asrwt>
<pdfrwt beam="1">  1        4 0.15726895E-01 0.12499913E+03</pdfrwt>
<pdfrwt beam="2">  1       -4 0.58787405E-02 0.12499913E+03</pdfrwt>
<totfact> 0.10124743E+04</totfact>
</mgrwt>
</event>
<event>
 5    1  0.1685506E-006  0.1249925E+03  0.7818608E-02  0.1235081E+00
          4   -1    0    0  501    0  0.00000000000E+00  0.00000000000E+00  0.37407795400E+03  0.37408064915E+03  0.14200000000E+01 0. -1.
         -4   -1    0    0    0  501 -0.00000000000E+00 -0.00000000000E+00 -0.10390058878E+02  0.10486645006E+02  0.14200000000E+01 0.  1.
         25    2    1    2    0    0  0.00000000000E+00  0.00000000000E+00  0.36368789512E+03  0.38456729416E+03  0.12499247448E+03 0.  0.
        -13    1    3    3    0    0  0.51775105937E+02  0.32990558672E+02  0.14586733302E+03  0.15826031900E+03  0.10570000000E+00 0.  1.
         13    1    3    3    0    0 -0.51775105937E+02 -0.32990558672E+02  0.21782056210E+03  0.22630697515E+03  0.10570000000E+00 0. -1.
<mgrwt>
<rscale>  0 0.12499247E+03</rscale>
<asrwt>0</asrwt>
<pdfrwt beam="1">  1        4 0.57558090E-01 0.12499247E+03</pdfrwt>
<pdfrwt beam="2">  1       -4 0.16061077E-02 0.12499247E+03</pdfrwt>
<totfact> 0.66092938E+03</totfact>
</mgrwt>
</event>
<event>
 5    1  0.1685506E-006  0.1250009E+03  0.7818608E-02  0.1235068E+00
          4   -1    0    0  501    0  0.00000000000E+00  0.00000000000E+00  0.26230939183E+03  0.26231323535E+03  0.14200000000E+01 0. -1.
         -4   -1    0    0    0  501 -0.00000000000E+00 -0.00000000000E+00 -0.14854165292E+02  0.14921884148E+02  0.14200000000E+01 0.  1.
         25    2    1    2    0    0  0.00000000000E+00  0.00000000000E+00  0.24745522654E+03  0.27723511950E+03  0.12500088937E+03 0.  0.
        -13    1    3    3    0    0  0.32694355865E+02 -0.33801472031E+02  0.32421737730E+02  0.57119529645E+02  0.10570000000E+00 0.  1.
         13    1    3    3    0    0 -0.32694355865E+02  0.33801472031E+02  0.21503348881E+03  0.22011558986E+03  0.10570000000E+00 0. -1.
<mgrwt>
<rscale>  0 0.12500089E+03</rscale>
<asrwt>0</asrwt>
<pdfrwt beam="1">  1        4 0.40360792E-01 0.12500089E+03</pdfrwt>
<pdfrwt beam="2">  1       -4 0.22907612E-02 0.12500089E+03</pdfrwt>
<totfact> 0.78544591E+03</totfact>
</mgrwt>
</event>
<event>
 5    1  0.1685506E-006  0.1250013E+03  0.7818608E-02  0.1235067E+00
          4   -1    0    0  501    0  0.00000000000E+00  0.00000000000E+00  0.43611483060E+02  0.43634594701E+02  0.14200000000E+01 0. -1.
         -4   -1    0    0    0  501 -0.00000000000E+00 -0.00000000000E+00 -0.89518713729E+02  0.89529975470E+02  0.14200000000E+01 0.  1.
         25    2    1    2    0    0  0.00000000000E+00  0.00000000000E+00 -0.45907230669E+02  0.13316457017E+03  0.12500131568E+03 0.  0.
        -13    1    3    3    0    0  0.13349257953E+02 -0.55857623358E+02 -0.49222504741E+02  0.75638237159E+02  0.10570000000E+00 0.  1.
         13    1    3    3    0    0 -0.13349257953E+02  0.55857623358E+02  0.33152740723E+01  0.57526333012E+02  0.10570000000E+00 0. -1.
<mgrwt>
<rscale>  0 0.12500132E+03</rscale>
<asrwt>0</asrwt>
<pdfrwt beam="1">  1        4 0.67121031E-02 0.12500132E+03</pdfrwt>
<pdfrwt beam="2">  1       -4 0.13774754E-01 0.12500132E+03</pdfrwt>
<totfact> 0.10276599E+04</totfact>
</mgrwt>
</event>
<event>
 5    1  0.1685506E-006  0.1249993E+03  0.7818608E-02  0.1235070E+00
         -4   -1    0    0    0  501 -0.00000000000E+00  0.00000000000E+00  0.51032329253E+02  0.51052081534E+02  0.14200000000E+01 0.  1.
          4   -1    0    0  501    0  0.00000000000E+00 -0.00000000000E+00 -0.76502623063E+02  0.76515800561E+02  0.14200000000E+01 0. -1.
         25    2    1    2    0    0  0.00000000000E+00  0.00000000000E+00 -0.25470293810E+02  0.12756788209E+03  0.12499931470E+03 0.  0.
        -13    1    3    3    0    0  0.15674410290E+01  0.48732300511E+02  0.27169506163E+02  0.55816549715E+02  0.10570000000E+00 0.  1.
         13    1    3    3    0    0 -0.15674410290E+01 -0.48732300511E+02 -0.52639799973E+02  0.71751332379E+02  0.10570000000E+00 0. -1.
<mgrwt>
<rscale>  0 0.12499931E+03</rscale>
<asrwt>0</asrwt>
<pdfrwt beam="2">  1        4 0.11772167E-01 0.12499931E+03</pdfrwt>
<pdfrwt beam="1">  1       -4 0.78536606E-02 0.12499931E+03</pdfrwt>
<totfact> 0.10396991E+04</totfact>
</mgrwt>
</event>
<event>
 5    1  0.1685506E-006  0.1249883E+03  0.7818608E-02  0.1235088E+00
         -4   -1    0    0    0  501 -0.00000000000E+00  0.00000000000E+00  0.32030685850E+03  0.32031000609E+03  0.14200000000E+01 0.  1.
          4   -1    0    0  501    0  0.00000000000E+00 -0.00000000000E+00 -0.12148490910E+02  0.12231199098E+02  0.14200000000E+01 0. -1.
         25    2    1    2    0    0  0.00000000000E+00  0.00000000000E+00  0.30815836759E+03  0.33254120519E+03  0.12498829398E+03 0.  0.
        -13    1    3    3    0    0 -0.44230989473E+01  0.61491963051E+02  0.12685769031E+03  0.14104506403E+03  0.10570000000E+00 0.  1.
         13    1    3    3    0    0  0.44230989473E+01 -0.61491963051E+02  0.18130067728E+03  0.19149614116E+03  0.10570000000E+00 0. -1.
<mgrwt>
<rscale>  0 0.12498829E+03</rscale>
<asrwt>0</asrwt>
<pdfrwt beam="2">  1        4 0.18756030E-02 0.12498829E+03</pdfrwt>
<pdfrwt beam="1">  1       -4 0.49284580E-01 0.12498829E+03</pdfrwt>
<totfact> 0.71707522E+03</totfact>
</mgrwt>
</event>
<event>
 5    1  0.1685506E-006  0.1249999E+03  0.7818608E-02  0.1235069E+00
          4   -1    0    0  501    0  0.00000000000E+00  0.00000000000E+00  0.18249213632E+03  0.18249766086E+03  0.14200000000E+01 0. -1.
         -4   -1    0    0    0  501 -0.00000000000E+00 -0.00000000000E+00 -0.21375588543E+02  0.21422702574E+02  0.14200000000E+01 0.  1.
         25    2    1    2    0    0  0.00000000000E+00  0.00000000000E+00  0.16111654778E+03  0.20392036343E+03  0.12499989062E+03 0.  0.
        -13    1    3    3    0    0 -0.77135233032E+01  0.38353076132E+02  0.10424383693E+01  0.39135083247E+02  0.10570000000E+00 0.  1.
         13    1    3    3    0    0  0.77135233032E+01 -0.38353076132E+02  0.16007410941E+03  0.16478528019E+03  0.10570000000E+00 0. -1.
<mgrwt>
<rscale>  0 0.12499989E+03</rscale>
<asrwt>0</asrwt>
<pdfrwt beam="1">  1        4 0.28079763E-01 0.12499989E+03</pdfrwt>
<pdfrwt beam="2">  1       -4 0.32926012E-02 0.12499989E+03</pdfrwt>
<totfact> 0.89478709E+03</totfact>
</mgrwt>
</event>
<event>
 5    1  0.1685506E-006  0.1249965E+03  0.7818608E-02  0.1235075E+00
         -4   -1    0    0    0  501 -0.00000000000E+00  0.00000000000E+00  0.26331553158E+03  0.26331936042E+03  0.14200000000E+01 0. -1.
          4   -1    0    0  501    0  0.00000000000E+00 -0.00000000000E+00 -0.14796106413E+02  0.14864089780E+02  0.14200000000E+01 0. -1.
         25    2    1    2    0    0  0.00000000000E+00  0.00000000000E+00  0.24851942517E+03  0.27818345020E+03  0.12499650907E+03 0.  0.
        -13    1    3    3    0    0  0.38229777508E+02  0.49115055092E+02  0.11162777304E+03  0.12780678938E+03  0.10570000000E+00 0.  1.
         13    1    3    3    0    0 -0.38229777508E+02 -0.49115055092E+02  0.13689165212E+03  0.15037666082E+03  0.10570000000E+00 0.  1.
<mgrwt>
<rscale>  0 0.12499651E+03</rscale>
<asrwt>0</asrwt>
<pdfrwt beam="2">  1        4 0.22818482E-02 0.12499651E+03</pdfrwt>
<pdfrwt beam="1">  1       -4 0.40515603E-01 0.12499651E+03</pdfrwt>
<totfact> 0.78425672E+03</totfact>
</mgrwt>
</event>
<event>
 5    1  0.1685506E-006  0.1250252E+03  0.7818608E-02  0.1235030E+00
          4   -1    0    0  501    0  0.00000000000E+00  0.00000000000E+00  0.27535549147E+03  0.27535915290E+03  0.14200000000E+01 0. -1.
         -4   -1    0    0    0  501 -0.00000000000E+00 -0.00000000000E+00 -0.14152633367E+02  0.14223692601E+02  0.14200000000E+01 0.  1.
         25    2    1    2    0    0  0.00000000000E+00  0.00000000000E+00  0.26120285811E+03  0.28958284550E+03  0.12502516276E+03 0.  0.
        -13    1    3    3    0    0  0.56850503651E+02  0.18450522609E+02  0.88182131134E+02  0.10652934325E+03  0.10570000000E+00 0.  1.
         13    1    3    3    0    0 -0.56850503651E+02 -0.18450522609E+02  0.17302072697E+03  0.18305350225E+03  0.10570000000E+00 0. -1.
<mgrwt>
<rscale>  0 0.12502516E+03</rscale>
<asrwt>0</asrwt>
<pdfrwt beam="1">  1        4 0.42368131E-01 0.12502516E+03</pdfrwt>
<pdfrwt beam="2">  1       -4 0.21830760E-02 0.12502516E+03</pdfrwt>
<totfact> 0.76881424E+03</totfact>
</mgrwt>
</event>
<event>
 5    1  0.1685506E-006  0.1250000E+03  0.7818608E-02  0.1235069E+00
         -4   -1    0    0    0  501 -0.00000000000E+00  0.00000000000E+00  0.22077324416E+02  0.22122944049E+02  0.14200000000E+01 0.  1.
          4   -1    0    0  501    0  0.00000000000E+00 -0.00000000000E+00 -0.17670391551E+03  0.17670962100E+03  0.14200000000E+01 0.  1.
         25    2    1    2    0    0  0.00000000000E+00  0.00000000000E+00 -0.15462659109E+03  0.19883256505E+03  0.12500002501E+03 0.  0.
        -13    1    3    3    0    0 -0.54037528228E+02 -0.89552445049E+01 -0.29434964351E+02  0.62182627478E+02  0.10570000000E+00 0.  1.
         13    1    3    3    0    0  0.54037528228E+02  0.89552445049E+01 -0.12519162674E+03  0.13664993757E+03  0.10570000000E+00 0.  1.
<mgrwt>
<rscale>  0 0.12500003E+03</rscale>
<asrwt>0</asrwt>
<pdfrwt beam="2">  1        4 0.27189165E-01 0.12500003E+03</pdfrwt>
<pdfrwt beam="1">  1       -4 0.34004597E-02 0.12500003E+03</pdfrwt>
<totfact> 0.90332728E+03</totfact>
</mgrwt>
</event>
<event>
 5    1  0.1685506E-006  0.1250001E+03  0.7818608E-02  0.1235069E+00
          4   -1    0    0  501    0  0.00000000000E+00  0.00000000000E+00  0.16555767275E+02  0.16616552893E+02  0.14200000000E+01 0.  1.
         -4   -1    0    0    0  501 -0.00000000000E+00 -0.00000000000E+00 -0.23545021116E+03  0.23545449313E+03  0.14200000000E+01 0. -1.
         25    2    1    2    0    0  0.00000000000E+00  0.00000000000E+00 -0.21889444389E+03  0.25207104603E+03  0.12500013872E+03 0.  0.
        -13    1    3    3    0    0  0.17628154562E+02  0.58913695536E+02 -0.13196352991E+03  0.14558832286E+03  0.10570000000E+00 0. -1.
         13    1    3    3    0    0 -0.17628154562E+02 -0.58913695536E+02 -0.86930913979E+02  0.10648272316E+03  0.10570000000E+00 0.  1.
<mgrwt>
<rscale>  0 0.12500014E+03</rscale>
<asrwt>0</asrwt>
<pdfrwt beam="1">  1        4 0.25520465E-02 0.12500014E+03</pdfrwt>
<pdfrwt beam="2">  1       -4 0.36228112E-01 0.12500014E+03</pdfrwt>
<totfact> 0.82031563E+03</totfact>
</mgrwt>
</event>
<event>
 5    1  0.1685506E-006  0.1249996E+03  0.7818608E-02  0.1235070E+00
         -4   -1    0    0    0  501 -0.00000000000E+00  0.00000000000E+00  0.11702547928E+03  0.11703409418E+03  0.14200000000E+01 0. -1.
          4   -1    0    0  501    0  0.00000000000E+00 -0.00000000000E+00 -0.33354334319E+02  0.33384547591E+02  0.14200000000E+01 0. -1.
         25    2    1    2    0    0  0.00000000000E+00  0.00000000000E+00  0.83671144959E+02  0.15041864177E+03  0.12499962917E+03 0.  0.
        -13    1    3    3    0    0  0.35402906065E+02 -0.36194106345E+02  0.85932112704E+02  0.99738248722E+02  0.10570000000E+00 0.  1.
         13    1    3    3    0    0 -0.35402906065E+02  0.36194106345E+02 -0.22609677447E+01  0.50680393048E+02  0.10570000000E+00 0.  1.
<mgrwt>
<rscale>  0 0.12499963E+03</rscale>
<asrwt>0</asrwt>
<pdfrwt beam="2">  1        4 0.51344228E-02 0.12499963E+03</pdfrwt>
<pdfrwt beam="1">  1       -4 0.18006907E-01 0.12499963E+03</pdfrwt>
<totfact> 0.99221141E+03</totfact>
</mgrwt>
</event>
<event>
 5    1  0.1685506E-006  0.1250002E+03  0.7818608E-02  0.1235069E+00
         -4   -1    0    0    0  501 -0.00000000000E+00  0.00000000000E+00  0.19274087373E+02  0.19326325157E+02  0.14200000000E+01 0.  1.
          4   -1    0    0  501    0  0.00000000000E+00 -0.00000000000E+00 -0.20234000085E+03  0.20234498350E+03  0.14200000000E+01 0.  1.
         25    2    1    2    0    0  0.00000000000E+00  0.00000000000E+00 -0.18306591348E+03  0.22167130865E+03  0.12500016160E+03 0.  0.
        -13    1    3    3    0    0  0.39975967976E+02  0.39008626087E+02 -0.41799605729E+02  0.69763666306E+02  0.10570000000E+00 0.  1.
         13    1    3    3    0    0 -0.39975967976E+02 -0.39008626087E+02 -0.14126630775E+03  0.15190764235E+03  0.10570000000E+00 0.  1.
<mgrwt>
<rscale>  0 0.12500016E+03</rscale>
<asrwt>0</asrwt>
<pdfrwt beam="2">  1        4 0.31133631E-01 0.12500016E+03</pdfrwt>
<pdfrwt beam="1">  1       -4 0.29696459E-02 0.12500016E+03</pdfrwt>
<totfact> 0.86604264E+03</totfact>
</mgrwt>
</event>
<event>
 5    1  0.1685506E-006  0.1249987E+03  0.7818608E-02  0.1235071E+00
          4   -1    0    0  501    0  0.00000000000E+00  0.00000000000E+00  0.56919747727E+02  0.56937457629E+02  0.14200000000E+01 0. -1.
         -4   -1    0    0    0  501 -0.00000000000E+00 -0.00000000000E+00 -0.68590177731E+02  0.68604875054E+02  0.14200000000E+01 0. -1.
         25    2    1    2    0    0  0.00000000000E+00  0.00000000000E+00 -0.11670430004E+02  0.12554233268E+03  0.12499871343E+03 0.  0.
        -13    1    3    3    0    0 -0.51139951526E+01  0.57685976837E+02 -0.29439201736E+02  0.64965395723E+02  0.10570000000E+00 0. -1.
         13    1    3    3    0    0  0.51139951526E+01 -0.57685976837E+02  0.17768771732E+02  0.60576936960E+02  0.10570000000E+00 0. -1.
<mgrwt>
<rscale>  0 0.12499871E+03</rscale>
<asrwt>0</asrwt>
<pdfrwt beam="1">  1        4 0.87593771E-02 0.12499871E+03</pdfrwt>
<pdfrwt beam="2">  1       -4 0.10554828E-01 0.12499871E+03</pdfrwt>
<totfact> 0.10441322E+04</totfact>
</mgrwt>
</event>
<event>
 5    1  0.1685506E-006  0.1250055E+03  0.7818608E-02  0.1235061E+00
         -4   -1    0    0    0  501 -0.00000000000E+00  0.00000000000E+00  0.49887004067E+02  0.49907209648E+02  0.14200000000E+01 0.  1.
          4   -1    0    0  501    0  0.00000000000E+00 -0.00000000000E+00 -0.78266389228E+02  0.78279269815E+02  0.14200000000E+01 0. -1.
         25    2    1    2    0    0  0.00000000000E+00  0.00000000000E+00 -0.28379385161E+02  0.12818647946E+03  0.12500553594E+03 0.  0.
        -13    1    3    3    0    0  0.28795595636E+02  0.13564072712E+02  0.40969550203E+02  0.51881457313E+02  0.10570000000E+00 0.  1.
         13    1    3    3    0    0 -0.28795595636E+02 -0.13564072712E+02 -0.69348935364E+02  0.76305022149E+02  0.10570000000E+00 0. -1.
<mgrwt>
<rscale>  0 0.12500554E+03</rscale>
<asrwt>0</asrwt>
<pdfrwt beam="2">  1        4 0.12043528E-01 0.12500554E+03</pdfrwt>
<pdfrwt beam="1">  1       -4 0.76774688E-02 0.12500554E+03</pdfrwt>
<totfact> 0.10382165E+04</totfact>
</mgrwt>
</event>
<event>
 5    1  0.1685506E-006  0.1249969E+03  0.7818608E-02  0.1235074E+00
         -4   -1    0    0    0  501 -0.00000000000E+00  0.00000000000E+00  0.40693507435E+02  0.40718275349E+02  0.14200000000E+01 0. -1.
          4   -1    0    0  501    0  0.00000000000E+00 -0.00000000000E+00 -0.95927912903E+02  0.95938422303E+02  0.14200000000E+01 0. -1.
         25    2    1    2    0    0  0.00000000000E+00  0.00000000000E+00 -0.55234405468E+02  0.13665669765E+03  0.12499685382E+03 0.  0.
        -13    1    3    3    0    0  0.57830072923E+02 -0.64341414790E+01 -0.52555677501E+02  0.78408073060E+02  0.10570000000E+00 0.  1.
         13    1    3    3    0    0 -0.57830072923E+02  0.64341414790E+01 -0.26787279666E+01  0.58248624592E+02  0.10570000000E+00 0.  1.
<mgrwt>
<rscale>  0 0.12499685E+03</rscale>
<asrwt>0</asrwt>
<pdfrwt beam="2">  1        4 0.14760854E-01 0.12499685E+03</pdfrwt>
<pdfrwt beam="1">  1       -4 0.62632532E-02 0.12499685E+03</pdfrwt>
<totfact> 0.10203993E+04</totfact>
</mgrwt>
</event>
<event>
 5    1  0.1685506E-006  0.1249996E+03  0.7818608E-02  0.1235070E+00
         -4   -1    0    0    0  501 -0.00000000000E+00  0.00000000000E+00  0.10120825778E+03  0.10121821893E+03  0.14200000000E+01 0. -1.
          4   -1    0    0  501    0  0.00000000000E+00 -0.00000000000E+00 -0.38570957551E+02  0.38597087538E+02  0.14200000000E+01 0. -1.
         25    2    1    2    0    0  0.00000000000E+00  0.00000000000E+00  0.62637300230E+02  0.13981530647E+03  0.12499955417E+03 0.  0.
        -13    1    3    3    0    0 -0.54832878946E+01 -0.30942419642E+02  0.91747150399E+02  0.96979639916E+02  0.10570000000E+00 0. -1.
         13    1    3    3    0    0  0.54832878946E+01  0.30942419642E+02 -0.29109850169E+02  0.42835666550E+02  0.10570000000E+00 0. -1.
<mgrwt>
<rscale>  0 0.12499955E+03</rscale>
<asrwt>0</asrwt>
<pdfrwt beam="2">  1        4 0.59367697E-02 0.12499955E+03</pdfrwt>
<pdfrwt beam="1">  1       -4 0.15573278E-01 0.12499955E+03</pdfrwt>
<totfact> 0.10137517E+04</totfact>
</mgrwt>
</event>
<event>
 5    1  0.1685506E-006  0.1250005E+03  0.7818608E-02  0.1235069E+00
          4   -1    0    0  501    0  0.00000000000E+00  0.00000000000E+00  0.37870921672E+03  0.37871187891E+03  0.14200000000E+01 0. -1.
         -4   -1    0    0    0  501 -0.00000000000E+00 -0.00000000000E+00 -0.10263133901E+02  0.10360903314E+02  0.14200000000E+01 0.  1.
         25    2    1    2    0    0  0.00000000000E+00  0.00000000000E+00  0.36844608282E+03  0.38907278223E+03  0.12500045570E+03 0.  0.
        -13    1    3    3    0    0  0.55655213673E+02  0.14373381293E+02  0.26060291930E+03  0.26686698862E+03  0.10570000000E+00 0.  1.
         13    1    3    3    0    0 -0.55655213673E+02 -0.14373381293E+02  0.10784316352E+03  0.12220579360E+03  0.10570000000E+00 0. -1.
<mgrwt>
<rscale>  0 0.12500046E+03</rscale>
<asrwt>0</asrwt>
<pdfrwt beam="1">  1        4 0.58270676E-01 0.12500046E+03</pdfrwt>
<pdfrwt beam="2">  1       -4 0.15866693E-02 0.12500046E+03</pdfrwt>
<totfact> 0.65628956E+03</totfact>
</mgrwt>
</event>
<event>
 5    1  0.1685506E-006  0.1249967E+03  0.7818608E-02  0.1235074E+00
         -4   -1    0    0    0  501 -0.00000000000E+00  0.00000000000E+00  0.68445375256E+02  0.68460103666E+02  0.14200000000E+01 0. -1.
          4   -1    0    0  501    0  0.00000000000E+00 -0.00000000000E+00 -0.57038315285E+02  0.57055988385E+02  0.14200000000E+01 0.  1.
         25    2    1    2    0    0  0.00000000000E+00  0.00000000000E+00  0.11407059971E+02  0.12551609205E+03  0.12499667334E+03 0.  0.
        -13    1    3    3    0    0 -0.10256587642E+01 -0.59869045359E+02  0.23685381922E+02  0.64392259297E+02  0.10570000000E+00 0. -1.
         13    1    3    3    0    0  0.10256587642E+01  0.59869045359E+02 -0.12278321951E+02  0.61123832754E+02  0.10570000000E+00 0.  1.
<mgrwt>
<rscale>  0 0.12499667E+03</rscale>
<asrwt>0</asrwt>
<pdfrwt beam="2">  1        4 0.87776178E-02 0.12499667E+03</pdfrwt>
<pdfrwt beam="1">  1       -4 0.10532550E-01 0.12499667E+03</pdfrwt>
<totfact> 0.10442382E+04</totfact>
</mgrwt>
</event>
<event>
 5    1  0.1685506E-006  0.1250023E+03  0.7818608E-02  0.1235066E+00
         -4   -1    0    0    0  501 -0.00000000000E+00  0.00000000000E+00  0.41082183485E+02  0.41106717212E+02  0.14200000000E+01 0.  1.
          4   -1    0    0  501    0  0.00000000000E+00 -0.00000000000E+00 -0.95029003248E+02  0.95039612049E+02  0.14200000000E+01 0.  1.
         25    2    1    2    0    0  0.00000000000E+00  0.00000000000E+00 -0.53946819763E+02  0.13614632926E+03  0.12500225441E+03 0.  0.
        -13    1    3    3    0    0 -0.24678602959E+02  0.41130033500E+02  0.16669709262E+02  0.50779951547E+02  0.10570000000E+00 0.  1.
         13    1    3    3    0    0  0.24678602959E+02 -0.41130033500E+02 -0.70616529025E+02  0.85366377713E+02  0.10570000000E+00 0.  1.
<mgrwt>
<rscale>  0 0.12500225E+03</rscale>
<asrwt>0</asrwt>
<pdfrwt beam="2">  1        4 0.14622550E-01 0.12500225E+03</pdfrwt>
<pdfrwt beam="1">  1       -4 0.63230392E-02 0.12500225E+03</pdfrwt>
<totfact> 0.10213446E+04</totfact>
</mgrwt>
</event>
<event>
 5    1  0.1685506E-006  0.1249920E+03  0.7818608E-02  0.1235082E+00
         -4   -1    0    0    0  501 -0.00000000000E+00  0.00000000000E+00  0.21596222130E+03  0.21596688966E+03  0.14200000000E+01 0.  1.
          4   -1    0    0  501    0  0.00000000000E+00 -0.00000000000E+00 -0.18052603201E+02  0.18108364982E+02  0.14200000000E+01 0. -1.
         25    2    1    2    0    0  0.00000000000E+00  0.00000000000E+00  0.19790961810E+03  0.23407525464E+03  0.12499203134E+03 0.  0.
        -13    1    3    3    0    0  0.32515619136E+02  0.52936583093E+02  0.86226710128E+02  0.10627607459E+03  0.10570000000E+00 0.  1.
         13    1    3    3    0    0 -0.32515619136E+02 -0.52936583093E+02  0.11168290797E+03  0.12779918005E+03  0.10570000000E+00 0. -1.
<mgrwt>
<rscale>  0 0.12499203E+03</rscale>
<asrwt>0</asrwt>
<pdfrwt beam="2">  1        4 0.27819722E-02 0.12499203E+03</pdfrwt>
<pdfrwt beam="1">  1       -4 0.33229603E-01 0.12499203E+03</pdfrwt>
<totfact> 0.84702796E+03</totfact>
</mgrwt>
</event>
<event>
 5    1  0.1685506E-006  0.1250026E+03  0.7818608E-02  0.1235065E+00
         -4   -1    0    0    0  501 -0.00000000000E+00  0.00000000000E+00  0.31861435195E+03  0.31861751626E+03  0.14200000000E+01 0.  1.
          4   -1    0    0  501    0  0.00000000000E+00 -0.00000000000E+00 -0.12216280233E+02  0.12298532544E+02  0.14200000000E+01 0. -1.
         25    2    1    2    0    0  0.00000000000E+00  0.00000000000E+00  0.30639807172E+03  0.33091604881E+03  0.12500261199E+03 0.  0.
        -13    1    3    3    0    0  0.43380393973E+02  0.37733098320E+02  0.88313471584E+02  0.10537991140E+03  0.10570000000E+00 0.  1.
         13    1    3    3    0    0 -0.43380393973E+02 -0.37733098320E+02  0.21808460013E+03  0.22553613741E+03  0.10570000000E+00 0. -1.
<mgrwt>
<rscale>  0 0.12500261E+03</rscale>
<asrwt>0</asrwt>
<pdfrwt beam="2">  1        4 0.18859987E-02 0.12500261E+03</pdfrwt>
<pdfrwt beam="1">  1       -4 0.49024151E-01 0.12500261E+03</pdfrwt>
<totfact> 0.71872191E+03</totfact>
</mgrwt>
</event>
<event>
 5    1  0.1685506E-006  0.1249966E+03  0.7818608E-02  0.1235075E+00
         -4   -1    0    0    0  501 -0.00000000000E+00  0.00000000000E+00  0.69076553626E+02  0.69091147486E+02  0.14200000000E+01 0.  1.
          4   -1    0    0  501    0  0.00000000000E+00 -0.00000000000E+00 -0.56516976798E+02  0.56534812871E+02  0.14200000000E+01 0. -1.
         25    2    1    2    0    0  0.00000000000E+00  0.00000000000E+00  0.12559576828E+02  0.12562596036E+03  0.12499655573E+03 0.  0.
        -13    1    3    3    0    0 -0.45828671862E+02 -0.24027770020E+02  0.41505133737E+02  0.66334668129E+02  0.10570000000E+00 0.  1.
         13    1    3    3    0    0  0.45828671862E+02  0.24027770020E+02 -0.28945556908E+02  0.59291292228E+02  0.10570000000E+00 0. -1.
<mgrwt>
<rscale>  0 0.12499656E+03</rscale>
<asrwt>0</asrwt>
<pdfrwt beam="2">  1        4 0.86974141E-02 0.12499656E+03</pdfrwt>
<pdfrwt beam="1">  1       -4 0.10629657E-01 0.12499656E+03</pdfrwt>
<totfact> 0.10439986E+04</totfact>
</mgrwt>
</event>
<event>
 5    1  0.1685506E-006  0.1249996E+03  0.7818608E-02  0.1235070E+00
         -4   -1    0    0    0  501 -0.00000000000E+00  0.00000000000E+00  0.22013788305E+02  0.22059539332E+02  0.14200000000E+01 0.  1.
          4   -1    0    0  501    0  0.00000000000E+00 -0.00000000000E+00 -0.17721159067E+03  0.17721727983E+03  0.14200000000E+01 0.  1.
         25    2    1    2    0    0  0.00000000000E+00  0.00000000000E+00 -0.15519780237E+03  0.19927681916E+03  0.12499957118E+03 0.  0.
        -13    1    3    3    0    0 -0.27662121038E+01  0.41557821078E+02 -0.15188865797E+03  0.15749565078E+03  0.10570000000E+00 0. -1.
         13    1    3    3    0    0  0.27662121038E+01 -0.41557821078E+02 -0.33091444008E+01  0.41781168381E+02  0.10570000000E+00 0. -1.
<mgrwt>
<rscale>  0 0.12499957E+03</rscale>
<asrwt>0</asrwt>
<pdfrwt beam="2">  1        4 0.27267278E-01 0.12499957E+03</pdfrwt>
<pdfrwt beam="1">  1       -4 0.33906937E-02 0.12499957E+03</pdfrwt>
<totfact> 0.90258487E+03</totfact>
</mgrwt>
</event>
<event>
 5    1  0.1685506E-006  0.1249996E+03  0.7818608E-02  0.1235070E+00
          4   -1    0    0  501    0  0.00000000000E+00  0.00000000000E+00  0.23638298678E+03  0.23638725185E+03  0.14200000000E+01 0.  1.
         -4   -1    0    0    0  501 -0.00000000000E+00 -0.00000000000E+00 -0.16490064111E+02  0.16551091034E+02  0.14200000000E+01 0. -1.
         25    2    1    2    0    0  0.00000000000E+00  0.00000000000E+00  0.21989292267E+03  0.25293834289E+03  0.12499963145E+03 0.  0.
        -13    1    3    3    0    0 -0.23278909953E+02 -0.58002585859E+02  0.10976346731E+03  0.12631008489E+03  0.10570000000E+00 0. -1.
         13    1    3    3    0    0  0.23278909953E+02  0.58002585859E+02  0.11012945535E+03  0.12662825800E+03  0.10570000000E+00 0.  1.
<mgrwt>
<rscale>  0 0.12499963E+03</rscale>
<asrwt>0</asrwt>
<pdfrwt beam="1">  1        4 0.36371635E-01 0.12499963E+03</pdfrwt>
<pdfrwt beam="2">  1       -4 0.25419555E-02 0.12499963E+03</pdfrwt>
<totfact> 0.81908064E+03</totfact>
</mgrwt>
</event>
<event>
 5    1  0.1685506E-006  0.1250003E+03  0.7818608E-02  0.1235069E+00
          4   -1    0    0  501    0  0.00000000000E+00  0.00000000000E+00  0.94054745676E+01  0.95120634903E+01  0.14200000000E+01 0.  1.
         -4   -1    0    0    0  501 -0.00000000000E+00 -0.00000000000E+00 -0.41287045888E+03  0.41287290081E+03  0.14200000000E+01 0. -1.
         25    2    1    2    0    0  0.00000000000E+00  0.00000000000E+00 -0.40346498432E+03  0.42238496430E+03  0.12500025797E+03 0.  0.
        -13    1    3    3    0    0 -0.26833898301E+02 -0.56333054642E+02 -0.18965080316E+03  0.19965197083E+03  0.10570000000E+00 0. -1.
         13    1    3    3    0    0  0.26833898301E+02  0.56333054642E+02 -0.21381418115E+03  0.22273299347E+03  0.10570000000E+00 0.  1.
<mgrwt>
<rscale>  0 0.12500026E+03</rscale>
<asrwt>0</asrwt>
<pdfrwt beam="1">  1        4 0.14553834E-02 0.12500026E+03</pdfrwt>
<pdfrwt beam="2">  1       -4 0.63526905E-01 0.12500026E+03</pdfrwt>
<totfact> 0.62432017E+03</totfact>
</mgrwt>
</event>
<event>
 5    1  0.1685506E-006  0.1250001E+03  0.7818608E-02  0.1235069E+00
         -4   -1    0    0    0  501 -0.00000000000E+00  0.00000000000E+00  0.18468839512E+03  0.18469385396E+03  0.14200000000E+01 0.  1.
          4   -1    0    0  501    0  0.00000000000E+00 -0.00000000000E+00 -0.21120909001E+02  0.21168589868E+02  0.14200000000E+01 0.  1.
         25    2    1    2    0    0  0.00000000000E+00  0.00000000000E+00  0.16356748612E+03  0.20586244383E+03  0.12500009306E+03 0.  0.
        -13    1    3    3    0    0 -0.52508413129E+02 -0.25009913943E+02  0.11946913122E+03  0.13287405213E+03  0.10570000000E+00 0.  1.
         13    1    3    3    0    0  0.52508413129E+02  0.25009913943E+02  0.44098354902E+02  0.72988391696E+02  0.10570000000E+00 0.  1.
<mgrwt>
<rscale>  0 0.12500009E+03</rscale>
<asrwt>0</asrwt>
<pdfrwt beam="2">  1        4 0.32534584E-02 0.12500009E+03</pdfrwt>
<pdfrwt beam="1">  1       -4 0.28417686E-01 0.12500009E+03</pdfrwt>
<totfact> 0.89155902E+03</totfact>
</mgrwt>
</event>
<event>
 5    1  0.1685506E-006  0.1250010E+03  0.7818608E-02  0.1235068E+00
          4   -1    0    0  501    0  0.00000000000E+00  0.00000000000E+00  0.76717642753E+02  0.76730783325E+02  0.14200000000E+01 0.  1.
         -4   -1    0    0    0  501 -0.00000000000E+00 -0.00000000000E+00 -0.50890627238E+02  0.50910434497E+02  0.14200000000E+01 0.  1.
         25    2    1    2    0    0  0.00000000000E+00  0.00000000000E+00  0.25827015515E+02  0.12764121782E+03  0.12500098302E+03 0.  0.
        -13    1    3    3    0    0 -0.30600297526E+02 -0.45199211720E+02 -0.18175470017E+02  0.57530042861E+02  0.10570000000E+00 0.  1.
         13    1    3    3    0    0  0.30600297526E+02  0.45199211720E+02  0.44002485533E+02  0.70111174961E+02  0.10570000000E+00 0.  1.
<mgrwt>
<rscale>  0 0.12500098E+03</rscale>
<asrwt>0</asrwt>
<pdfrwt beam="1">  1        4 0.11805249E-01 0.12500098E+03</pdfrwt>
<pdfrwt beam="2">  1       -4 0.78318618E-02 0.12500098E+03</pdfrwt>
<totfact> 0.10395013E+04</totfact>
</mgrwt>
</event>
<event>
 5    1  0.1685506E-006  0.1249999E+03  0.7818608E-02  0.1235069E+00
          4   -1    0    0  501    0  0.00000000000E+00  0.00000000000E+00  0.95736721522E+01  0.96784088815E+01  0.14200000000E+01 0. -1.
         -4   -1    0    0    0  501 -0.00000000000E+00 -0.00000000000E+00 -0.40569369239E+03  0.40569617751E+03  0.14200000000E+01 0.  1.
         25    2    1    2    0    0  0.00000000000E+00  0.00000000000E+00 -0.39612002024E+03  0.41537458639E+03  0.12499990634E+03 0.  0.
        -13    1    3    3    0    0  0.15183966713E+02  0.52452389061E+02 -0.29909377752E+03  0.30403767018E+03  0.10570000000E+00 0.  1.
         13    1    3    3    0    0 -0.15183966713E+02 -0.52452389061E+02 -0.97026242718E+02  0.11133691621E+03  0.10570000000E+00 0. -1.
<mgrwt>
<rscale>  0 0.12499991E+03</rscale>
<asrwt>0</asrwt>
<pdfrwt beam="1">  1        4 0.14811208E-02 0.12499991E+03</pdfrwt>
<pdfrwt beam="2">  1       -4 0.62422649E-01 0.12499991E+03</pdfrwt>
<totfact> 0.63084584E+03</totfact>
</mgrwt>
</event>
<event>
 5    1  0.1685506E-006  0.1250001E+03  0.7818608E-02  0.1235069E+00
          4   -1    0    0  501    0  0.00000000000E+00  0.00000000000E+00  0.14507992649E+03  0.14508687560E+03  0.14200000000E+01 0. -1.
         -4   -1    0    0    0  501 -0.00000000000E+00 -0.00000000000E+00 -0.26898545199E+02  0.26936000702E+02  0.14200000000E+01 0.  1.
         25    2    1    2    0    0  0.00000000000E+00  0.00000000000E+00  0.11818138129E+03  0.17202287630E+03  0.12500012434E+03 0.  0.
        -13    1    3    3    0    0 -0.44852035072E+02  0.28936324905E+02  0.14344029771E+02  0.55270048956E+02  0.10570000000E+00 0.  1.
         13    1    3    3    0    0  0.44852035072E+02 -0.28936324905E+02  0.10383735152E+03  0.11675282734E+03  0.10570000000E+00 0. -1.
<mgrwt>
<rscale>  0 0.12500012E+03</rscale>
<asrwt>0</asrwt>
<pdfrwt beam="1">  1        4 0.22323404E-01 0.12500012E+03</pdfrwt>
<pdfrwt beam="2">  1       -4 0.41416535E-02 0.12500012E+03</pdfrwt>
<totfact> 0.95072674E+03</totfact>
</mgrwt>
</event>
<event>
 5    1  0.1685506E-006  0.1249969E+03  0.7818608E-02  0.1235074E+00
         -4   -1    0    0    0  501 -0.00000000000E+00  0.00000000000E+00  0.45030136287E+02  0.45052520174E+02  0.14200000000E+01 0.  1.
          4   -1    0    0  501    0  0.00000000000E+00 -0.00000000000E+00 -0.86693415167E+02  0.86705043875E+02  0.14200000000E+01 0. -1.
         25    2    1    2    0    0  0.00000000000E+00  0.00000000000E+00 -0.41663278880E+02  0.13175756405E+03  0.12499690747E+03 0.  0.
        -13    1    3    3    0    0 -0.15968278581E+01 -0.62281220268E+02 -0.26053922028E+02  0.67530128704E+02  0.10570000000E+00 0.  1.
         13    1    3    3    0    0  0.15968278581E+01  0.62281220268E+02 -0.15609356851E+02  0.64227435345E+02  0.10570000000E+00 0. -1.
<mgrwt>
<rscale>  0 0.12499691E+03</rscale>
<asrwt>0</asrwt>
<pdfrwt beam="2">  1        4 0.13340065E-01 0.12499691E+03</pdfrwt>
<pdfrwt beam="1">  1       -4 0.69303297E-02 0.12499691E+03</pdfrwt>
<totfact> 0.10307595E+04</totfact>
</mgrwt>
</event>
<event>
 5    1  0.1685506E-006  0.1250004E+03  0.7818608E-02  0.1235069E+00
         -4   -1    0    0    0  501 -0.00000000000E+00  0.00000000000E+00  0.35158203164E+02  0.35186867575E+02  0.14200000000E+01 0.  1.
          4   -1    0    0  501    0  0.00000000000E+00 -0.00000000000E+00 -0.11102713923E+03  0.11103621952E+03  0.14200000000E+01 0.  1.
         25    2    1    2    0    0  0.00000000000E+00  0.00000000000E+00 -0.75868936066E+02  0.14622308710E+03  0.12500038296E+03 0.  0.
        -13    1    3    3    0    0  0.38116942318E+02 -0.47990502277E+02 -0.23594594620E+02  0.65671193595E+02  0.10570000000E+00 0. -1.
         13    1    3    3    0    0 -0.38116942318E+02  0.47990502277E+02 -0.52274341446E+02  0.80551893501E+02  0.10570000000E+00 0. -1.
<mgrwt>
<rscale>  0 0.12500038E+03</rscale>
<asrwt>0</asrwt>
<pdfrwt beam="2">  1        4 0.17084002E-01 0.12500038E+03</pdfrwt>
<pdfrwt beam="1">  1       -4 0.54118578E-02 0.12500038E+03</pdfrwt>
<totfact> 0.10006111E+04</totfact>
</mgrwt>
</event>
<event>
 5    1  0.1685506E-006  0.1249996E+03  0.7818608E-02  0.1235070E+00
          4   -1    0    0  501    0  0.00000000000E+00  0.00000000000E+00  0.34440892930E+02  0.34470153841E+02  0.14200000000E+01 0. -1.
         -4   -1    0    0    0  501 -0.00000000000E+00 -0.00000000000E+00 -0.11333631412E+03  0.11334520942E+03  0.14200000000E+01 0. -1.
         25    2    1    2    0    0  0.00000000000E+00  0.00000000000E+00 -0.78895421191E+02  0.14781536326E+03  0.12499957652E+03 0.  0.
        -13    1    3    3    0    0 -0.13664277461E+02  0.52104693935E+02 -0.19670028780E+01  0.53902614792E+02  0.10570000000E+00 0.  1.
         13    1    3    3    0    0  0.13664277461E+02 -0.52104693935E+02 -0.76928418313E+02  0.93912748470E+02  0.10570000000E+00 0.  1.
<mgrwt>
<rscale>  0 0.12499958E+03</rscale>
<asrwt>0</asrwt>
<pdfrwt beam="1">  1        4 0.53015340E-02 0.12499958E+03</pdfrwt>
<pdfrwt beam="2">  1       -4 0.17439291E-01 0.12499958E+03</pdfrwt>
<totfact> 0.99741919E+03</totfact>
</mgrwt>
</event>
<event>
 5    1  0.1685506E-006  0.1249953E+03  0.7818608E-02  0.1235077E+00
         -4   -1    0    0    0  501 -0.00000000000E+00  0.00000000000E+00  0.10328185994E+03  0.10329162112E+03  0.14200000000E+01 0.  1.
          4   -1    0    0  501    0  0.00000000000E+00 -0.00000000000E+00 -0.37793543737E+02  0.37820210843E+02  0.14200000000E+01 0. -1.
         25    2    1    2    0    0  0.00000000000E+00  0.00000000000E+00  0.65488316202E+02  0.14111183196E+03  0.12499531815E+03 0.  0.
        -13    1    3    3    0    0 -0.40352604018E+02 -0.33944943254E+02  0.70615817890E+02  0.88131701063E+02  0.10570000000E+00 0.  1.
         13    1    3    3    0    0  0.40352604018E+02  0.33944943254E+02 -0.51275016878E+01  0.52980130895E+02  0.10570000000E+00 0. -1.
<mgrwt>
<rscale>  0 0.12499532E+03</rscale>
<asrwt>0</asrwt>
<pdfrwt beam="2">  1        4 0.58171936E-02 0.12499532E+03</pdfrwt>
<pdfrwt beam="1">  1       -4 0.15892319E-01 0.12499532E+03</pdfrwt>
<totfact> 0.10111661E+04</totfact>
</mgrwt>
</event>
<event>
 5    1  0.1685506E-006  0.1249967E+03  0.7818608E-02  0.1235074E+00
          4   -1    0    0  501    0  0.00000000000E+00  0.00000000000E+00  0.24221166911E+02  0.24262755955E+02  0.14200000000E+01 0. -1.
         -4   -1    0    0    0  501 -0.00000000000E+00 -0.00000000000E+00 -0.16108274537E+03  0.16108900414E+03  0.14200000000E+01 0.  1.
         25    2    1    2    0    0  0.00000000000E+00  0.00000000000E+00 -0.13686157846E+03  0.18535176009E+03  0.12499673321E+03 0.  0.
        -13    1    3    3    0    0 -0.29682907345E+00 -0.62488390187E+02 -0.66842239229E+02  0.91502913251E+02  0.10570000000E+00 0.  1.
         13    1    3    3    0    0  0.29682907345E+00  0.62488390187E+02 -0.70019339227E+02  0.93848846844E+02  0.10570000000E+00 0. -1.
<mgrwt>
<rscale>  0 0.12499673E+03</rscale>
<asrwt>0</asrwt>
<pdfrwt beam="1">  1        4 0.37300141E-02 0.12499673E+03</pdfrwt>
<pdfrwt beam="2">  1       -4 0.24785641E-01 0.12499673E+03</pdfrwt>
<totfact> 0.92669227E+03</totfact>
</mgrwt>
</event>
<event>
 5    1  0.1685506E-006  0.1249995E+03  0.7818608E-02  0.1235070E+00
          4   -1    0    0  501    0  0.00000000000E+00  0.00000000000E+00  0.10710969233E+03  0.10711910470E+03  0.14200000000E+01 0.  1.
         -4   -1    0    0    0  501 -0.00000000000E+00 -0.00000000000E+00 -0.36444510475E+02  0.36472163958E+02  0.14200000000E+01 0.  1.
         25    2    1    2    0    0  0.00000000000E+00  0.00000000000E+00  0.70665181856E+02  0.14359126866E+03  0.12499953803E+03 0.  0.
        -13    1    3    3    0    0 -0.24694395496E+02 -0.56782952226E+02  0.25578954991E+02  0.66995603911E+02  0.10570000000E+00 0. -1.
         13    1    3    3    0    0  0.24694395496E+02  0.56782952226E+02  0.45086226865E+02  0.76595664746E+02  0.10570000000E+00 0. -1.
<mgrwt>
<rscale>  0 0.12499954E+03</rscale>
<asrwt>0</asrwt>
<pdfrwt beam="1">  1        4 0.16481265E-01 0.12499954E+03</pdfrwt>
<pdfrwt beam="2">  1       -4 0.56096990E-02 0.12499954E+03</pdfrwt>
<totfact> 0.10059794E+04</totfact>
</mgrwt>
</event>
<event>
 5    1  0.1685506E-006  0.1250016E+03  0.7818608E-02  0.1235067E+00
          4   -1    0    0  501    0  0.00000000000E+00  0.00000000000E+00  0.13040709177E+02  0.13117793101E+02  0.14200000000E+01 0. -1.
         -4   -1    0    0    0  501 -0.00000000000E+00 -0.00000000000E+00 -0.29858891372E+03  0.29859229025E+03  0.14200000000E+01 0.  1.
         25    2    1    2    0    0  0.00000000000E+00  0.00000000000E+00 -0.28554820455E+03  0.31171008335E+03  0.12500159577E+03 0.  0.
        -13    1    3    3    0    0  0.60265261850E+01 -0.51162508081E+02 -0.23102310886E+03  0.23669729456E+03  0.10570000000E+00 0.  1.
         13    1    3    3    0    0 -0.60265261850E+01  0.51162508081E+02 -0.54525095685E+02  0.75012788796E+02  0.10570000000E+00 0. -1.
<mgrwt>
<rscale>  0 0.12500160E+03</rscale>
<asrwt>0</asrwt>
<pdfrwt beam="1">  1        4 0.20124524E-02 0.12500160E+03</pdfrwt>
<pdfrwt beam="2">  1       -4 0.45942940E-01 0.12500160E+03</pdfrwt>
<totfact> 0.74150416E+03</totfact>
</mgrwt>
</event>
<event>
 5    1  0.1685506E-006  0.1249995E+03  0.7818608E-02  0.1235070E+00
         -4   -1    0    0    0  501 -0.00000000000E+00  0.00000000000E+00  0.75342811854E+02  0.75356192168E+02  0.14200000000E+01 0.  1.
          4   -1    0    0  501    0  0.00000000000E+00 -0.00000000000E+00 -0.51818263616E+02  0.51837716426E+02  0.14200000000E+01 0. -1.
         25    2    1    2    0    0  0.00000000000E+00  0.00000000000E+00  0.23524548237E+02  0.12719390859E+03  0.12499954405E+03 0.  0.
        -13    1    3    3    0    0  0.62187896793E+02 -0.44742708231E+01  0.16180938396E+02  0.64414187465E+02  0.10570000000E+00 0.  1.
         13    1    3    3    0    0 -0.62187896793E+02  0.44742708231E+01  0.73436098410E+01  0.62779721128E+02  0.10570000000E+00 0. -1.
<mgrwt>
<rscale>  0 0.12499954E+03</rscale>
<asrwt>0</asrwt>
<pdfrwt beam="2">  1        4 0.79745662E-02 0.12499954E+03</pdfrwt>
<pdfrwt beam="1">  1       -4 0.11593727E-01 0.12499954E+03</pdfrwt>
<totfact> 0.10405043E+04</totfact>
</mgrwt>
</event>
<event>
 5    1  0.1685506E-006  0.1249986E+03  0.7818608E-02  0.1235071E+00
         -4   -1    0    0    0  501 -0.00000000000E+00  0.00000000000E+00  0.22946958024E+03  0.22947397381E+03  0.14200000000E+01 0. -1.
          4   -1    0    0  501    0  0.00000000000E+00 -0.00000000000E+00 -0.16988400798E+02  0.17047643874E+02  0.14200000000E+01 0.  1.
         25    2    1    2    0    0  0.00000000000E+00  0.00000000000E+00  0.21248117945E+03  0.24652161769E+03  0.12499862547E+03 0.  0.
        -13    1    3    3    0    0 -0.60106781909E+02 -0.13351590275E+02  0.12739578798E+03  0.14149483440E+03  0.10570000000E+00 0. -1.
         13    1    3    3    0    0  0.60106781909E+02  0.13351590275E+02  0.85085391470E+02  0.10502678329E+03  0.10570000000E+00 0.  1.
<mgrwt>
<rscale>  0 0.12499863E+03</rscale>
<asrwt>0</asrwt>
<pdfrwt beam="2">  1        4 0.26184953E-02 0.12499863E+03</pdfrwt>
<pdfrwt beam="1">  1       -4 0.35307906E-01 0.12499863E+03</pdfrwt>
<totfact> 0.82838113E+03</totfact>
</mgrwt>
</event>
<event>
 4    1  0.1685506E-006  0.1239514E+03  0.7818608E-02  0.1236717E+00
          4   -1    0    0  501    0  0.00000000000E+00  0.00000000000E+00  0.11074134297E+02  0.11164804092E+02  0.14200000000E+01 0.  1.
         -4   -1    0    0    0  501 -0.00000000000E+00 -0.00000000000E+00 -0.34533685503E+03  0.34533977449E+03  0.14200000000E+01 0. -1.
        -13    1    1    2    0    0 -0.23246009429E+02  0.56200193260E+02 -0.13284135699E+03  0.14610159471E+03  0.10570000000E+00 0. -1.
         13    1    1    2    0    0  0.23246009429E+02 -0.56200193260E+02 -0.20142136374E+03  0.21040298387E+03  0.10570000000E+00 0.  1.
<mgrwt>
<rscale>  0 0.12395139E+03</rscale>
<asrwt>0</asrwt>
<pdfrwt beam="1">  1        4 0.17109124E-02 0.12395139E+03</pdfrwt>
<pdfrwt beam="2">  1       -4 0.53135938E-01 0.12395139E+03</pdfrwt>
<totfact> 0.70640704E+03</totfact>
</mgrwt>
</event>
<event>
 5    1  0.1685506E-006  0.1250021E+03  0.7818608E-02  0.1235066E+00
          4   -1    0    0  501    0  0.00000000000E+00  0.00000000000E+00  0.77262206472E+02  0.77275254441E+02  0.14200000000E+01 0.  1.
         -4   -1    0    0    0  501 -0.00000000000E+00 -0.00000000000E+00 -0.50532744579E+02  0.50552692062E+02  0.14200000000E+01 0. -1.
         25    2    1    2    0    0  0.00000000000E+00  0.00000000000E+00  0.26729461893E+02  0.12782794650E+03  0.12500207908E+03 0.  0.
        -13    1    3    3    0    0  0.21250520018E+02 -0.58776634722E+02  0.13055604633E+02  0.63849333396E+02  0.10570000000E+00 0. -1.
         13    1    3    3    0    0 -0.21250520018E+02  0.58776634722E+02  0.13673857259E+02  0.63978613107E+02  0.10570000000E+00 0.  1.
<mgrwt>
<rscale>  0 0.12500208E+03</rscale>
<asrwt>0</asrwt>
<pdfrwt beam="1">  1        4 0.11889031E-01 0.12500208E+03</pdfrwt>
<pdfrwt beam="2">  1       -4 0.77768065E-02 0.12500208E+03</pdfrwt>
<totfact> 0.10390717E+04</totfact>
</mgrwt>
</event>
<event>
 5    1  0.1685506E-006  0.1249961E+03  0.7818608E-02  0.1235075E+00
          4   -1    0    0  501    0  0.00000000000E+00  0.00000000000E+00  0.10973887840E+02  0.11065379086E+02  0.14200000000E+01 0.  1.
         -4   -1    0    0    0  501 -0.00000000000E+00 -0.00000000000E+00 -0.35436575039E+03  0.35436859546E+03  0.14200000000E+01 0. -1.
         25    2    1    2    0    0  0.00000000000E+00  0.00000000000E+00 -0.34339186255E+03  0.36543397455E+03  0.12499607389E+03 0.  0.
        -13    1    3    3    0    0  0.33424979180E+02 -0.38933900932E+02 -0.27600266582E+03  0.28073218659E+03  0.10570000000E+00 0. -1.
         13    1    3    3    0    0 -0.33424979180E+02  0.38933900932E+02 -0.67389196729E+02  0.84701787957E+02  0.10570000000E+00 0.  1.
<mgrwt>
<rscale>  0 0.12499607E+03</rscale>
<asrwt>0</asrwt>
<pdfrwt beam="1">  1        4 0.16955473E-02 0.12499607E+03</pdfrwt>
<pdfrwt beam="2">  1       -4 0.54525056E-01 0.12499607E+03</pdfrwt>
<totfact> 0.68065262E+03</totfact>
</mgrwt>
</event>
<event>
 5    1  0.1685506E-006  0.1250034E+03  0.7818608E-02  0.1235064E+00
          4   -1    0    0  501    0  0.00000000000E+00  0.00000000000E+00  0.28543535293E+03  0.28543888505E+03  0.14200000000E+01 0.  1.
         -4   -1    0    0    0  501 -0.00000000000E+00 -0.00000000000E+00 -0.13645528942E+02  0.13719214996E+02  0.14200000000E+01 0.  1.
         25    2    1    2    0    0  0.00000000000E+00  0.00000000000E+00  0.27178982398E+03  0.29915810005E+03  0.12500344157E+03 0.  0.
        -13    1    3    3    0    0 -0.30826026542E+02 -0.48136367784E+02  0.75393815826E+02  0.94612855645E+02  0.10570000000E+00 0.  1.
         13    1    3    3    0    0  0.30826026542E+02  0.48136367784E+02  0.19639600816E+03  0.20454524440E+03  0.10570000000E+00 0.  1.
<mgrwt>
<rscale>  0 0.12500344E+03</rscale>
<asrwt>0</asrwt>
<pdfrwt beam="1">  1        4 0.43919072E-01 0.12500344E+03</pdfrwt>
<pdfrwt beam="2">  1       -4 0.21052519E-02 0.12500344E+03</pdfrwt>
<totfact> 0.75698780E+03</totfact>
</mgrwt>
</event>
<event>
 5    1  0.1685506E-006  0.1249997E+03  0.7818608E-02  0.1235070E+00
         -4   -1    0    0    0  501 -0.00000000000E+00  0.00000000000E+00  0.37088090274E+02  0.37115264247E+02  0.14200000000E+01 0. -1.
          4   -1    0    0  501    0  0.00000000000E+00 -0.00000000000E+00 -0.10525258065E+03  0.10526215908E+03  0.14200000000E+01 0.  1.
         25    2    1    2    0    0  0.00000000000E+00  0.00000000000E+00 -0.68164490378E+02  0.14237742333E+03  0.12499973170E+03 0.  0.
        -13    1    3    3    0    0  0.34953985459E+02 -0.25367824788E+02  0.17374752799E+02  0.46553204415E+02  0.10570000000E+00 0. -1.
         13    1    3    3    0    0 -0.34953985459E+02  0.25367824788E+02 -0.85539243177E+02  0.95824218911E+02  0.10570000000E+00 0.  1.
<mgrwt>
<rscale>  0 0.12499973E+03</rscale>
<asrwt>0</asrwt>
<pdfrwt beam="2">  1        4 0.16195532E-01 0.12499973E+03</pdfrwt>
<pdfrwt beam="1">  1       -4 0.57086872E-02 0.12499973E+03</pdfrwt>
<totfact> 0.10084609E+04</totfact>
</mgrwt>
</event>
<event>
 5    1  0.1685506E-006  0.1250002E+03  0.7818608E-02  0.1235069E+00
         -4   -1    0    0    0  501 -0.00000000000E+00  0.00000000000E+00  0.10860984742E+03  0.10861912979E+03  0.14200000000E+01 0. -1.
          4   -1    0    0  501    0  0.00000000000E+00 -0.00000000000E+00 -0.35941165029E+02  0.35969205491E+02  0.14200000000E+01 0. -1.
         25    2    1    2    0    0  0.00000000000E+00  0.00000000000E+00  0.72668682394E+02  0.14458833528E+03  0.12500019720E+03 0.  0.
        -13    1    3    3    0    0  0.24220135862E+02 -0.27865050355E+02 -0.21998172833E+02  0.42976816925E+02  0.10570000000E+00 0. -1.
         13    1    3    3    0    0 -0.24220135862E+02  0.27865050355E+02  0.94666855227E+02  0.10161151836E+03  0.10570000000E+00 0. -1.
<mgrwt>
<rscale>  0 0.12500020E+03</rscale>
<asrwt>0</asrwt>
<pdfrwt beam="2">  1        4 0.55322811E-02 0.12500020E+03</pdfrwt>
<pdfrwt beam="1">  1       -4 0.16712078E-01 0.12500020E+03</pdfrwt>
<totfact> 0.10039315E+04</totfact>
</mgrwt>
</event>
<event>
 5    1  0.1685506E-006  0.1249983E+03  0.7818608E-02  0.1235072E+00
          4   -1    0    0  501    0  0.00000000000E+00  0.00000000000E+00  0.32581047793E+02  0.32611977482E+02  0.14200000000E+01 0. -1.
         -4   -1    0    0    0  501 -0.00000000000E+00 -0.00000000000E+00 -0.11979796553E+03  0.11980638107E+03  0.14200000000E+01 0.  1.
         25    2    1    2    0    0  0.00000000000E+00  0.00000000000E+00 -0.87216917740E+02  0.15241835856E+03  0.12499826113E+03 0.  0.
        -13    1    3    3    0    0 -0.38804177620E+02 -0.30362215366E+02 -0.90494573107E+02  0.10303837759E+03  0.10570000000E+00 0.  1.
         13    1    3    3    0    0  0.38804177620E+02  0.30362215366E+02  0.32776553673E+01  0.49379980963E+02  0.10570000000E+00 0. -1.
<mgrwt>
<rscale>  0 0.12499826E+03</rscale>
<asrwt>0</asrwt>
<pdfrwt beam="1">  1        4 0.50154955E-02 0.12499826E+03</pdfrwt>
<pdfrwt beam="2">  1       -4 0.18433483E-01 0.12499826E+03</pdfrwt>
<totfact> 0.98827668E+03</totfact>
</mgrwt>
</event>
<event>
 5    1  0.1685506E-006  0.1250003E+03  0.7818608E-02  0.1235069E+00
         -4   -1    0    0    0  501 -0.00000000000E+00  0.00000000000E+00  0.46193970295E+02  0.46215790501E+02  0.14200000000E+01 0.  1.
          4   -1    0    0  501    0  0.00000000000E+00 -0.00000000000E+00 -0.84514517677E+02  0.84526446146E+02  0.14200000000E+01 0. -1.
         25    2    1    2    0    0  0.00000000000E+00  0.00000000000E+00 -0.38320547381E+02  0.13074223665E+03  0.12500027237E+03 0.  0.
        -13    1    3    3    0    0 -0.39746346664E+02  0.31919513902E+02  0.18661955740E+02  0.54285423508E+02  0.10570000000E+00 0.  1.
         13    1    3    3    0    0  0.39746346664E+02 -0.31919513902E+02 -0.56982503121E+02  0.76456813139E+02  0.10570000000E+00 0. -1.
<mgrwt>
<rscale>  0 0.12500027E+03</rscale>
<asrwt>0</asrwt>
<pdfrwt beam="2">  1        4 0.13004830E-01 0.12500027E+03</pdfrwt>
<pdfrwt beam="1">  1       -4 0.71093607E-02 0.12500027E+03</pdfrwt>
<totfact> 0.10328555E+04</totfact>
</mgrwt>
</event>
<event>
 5    1  0.1685506E-006  0.1249999E+03  0.7818608E-02  0.1235069E+00
          4   -1    0    0  501    0  0.00000000000E+00  0.00000000000E+00  0.26781167477E+02  0.26818786912E+02  0.14200000000E+01 0.  1.
         -4   -1    0    0    0  501 -0.00000000000E+00 -0.00000000000E+00 -0.14571437666E+03  0.14572129551E+03  0.14200000000E+01 0. -1.
         25    2    1    2    0    0  0.00000000000E+00  0.00000000000E+00 -0.11893320919E+03  0.17254008243E+03  0.12499988718E+03 0.  0.
        -13    1    3    3    0    0  0.49595625116E+02  0.27857495616E+02 -0.95207765719E+02  0.11090669916E+03  0.10570000000E+00 0. -1.
         13    1    3    3    0    0 -0.49595625116E+02 -0.27857495616E+02 -0.23725443467E+02  0.61633383266E+02  0.10570000000E+00 0.  1.
<mgrwt>
<rscale>  0 0.12499989E+03</rscale>
<asrwt>0</asrwt>
<pdfrwt beam="1">  1        4 0.41236057E-02 0.12499989E+03</pdfrwt>
<pdfrwt beam="2">  1       -4 0.22421022E-01 0.12499989E+03</pdfrwt>
<totfact> 0.94977550E+03</totfact>
</mgrwt>
</event>
<event>
 5    1  0.1685506E-006  0.1250010E+03  0.7818608E-02  0.1235068E+00
          4   -1    0    0  501    0  0.00000000000E+00  0.00000000000E+00  0.11264986747E+03  0.11265881697E+03  0.14200000000E+01 0. -1.
         -4   -1    0    0    0  501 -0.00000000000E+00 -0.00000000000E+00 -0.34651732131E+02  0.34680815153E+02  0.14200000000E+01 0. -1.
         25    2    1    2    0    0  0.00000000000E+00  0.00000000000E+00  0.77998135341E+02  0.14733963212E+03  0.12500103231E+03 0.  0.
        -13    1    3    3    0    0 -0.43041347678E+01 -0.50125620426E+02  0.82709882780E+02  0.96809293361E+02  0.10570000000E+00 0.  1.
         13    1    3    3    0    0  0.43041347678E+01  0.50125620426E+02 -0.47117474387E+01  0.50530338764E+02  0.10570000000E+00 0.  1.
<mgrwt>
<rscale>  0 0.12500103E+03</rscale>
<asrwt>0</asrwt>
<pdfrwt beam="1">  1        4 0.17333674E-01 0.12500103E+03</pdfrwt>
<pdfrwt beam="2">  1       -4 0.53339613E-02 0.12500103E+03</pdfrwt>
<totfact> 0.99834350E+03</totfact>
</mgrwt>
</event>
<event>
 5    1  0.1685506E-006  0.1249992E+03  0.7818608E-02  0.1235071E+00
         -4   -1    0    0    0  501 -0.00000000000E+00  0.00000000000E+00  0.15778621466E+03  0.15779260419E+03  0.14200000000E+01 0.  1.
          4   -1    0    0  501    0  0.00000000000E+00 -0.00000000000E+00 -0.24729028115E+02  0.24769764463E+02  0.14200000000E+01 0. -1.
         25    2    1    2    0    0  0.00000000000E+00  0.00000000000E+00  0.13305718654E+03  0.18256236865E+03  0.12499921422E+03 0.  0.
        -13    1    3    3    0    0  0.51436459041E+02 -0.14963825458E+02  0.11355070271E+03  0.12555237413E+03  0.10570000000E+00 0.  1.
         13    1    3    3    0    0 -0.51436459041E+02  0.14963825458E+02  0.19506483830E+02  0.57009994518E+02  0.10570000000E+00 0. -1.
<mgrwt>
<rscale>  0 0.12499921E+03</rscale>
<asrwt>0</asrwt>
<pdfrwt beam="2">  1        4 0.38080908E-02 0.12499921E+03</pdfrwt>
<pdfrwt beam="1">  1       -4 0.24278428E-01 0.12499921E+03</pdfrwt>
<totfact> 0.93159431E+03</totfact>
</mgrwt>
</event>
<event>
 5    1  0.1685506E-006  0.1249990E+03  0.7818608E-02  0.1235071E+00
          4   -1    0    0  501    0  0.00000000000E+00  0.00000000000E+00  0.87654440659E+02  0.87665941888E+02  0.14200000000E+01 0.  1.
         -4   -1    0    0    0  501 -0.00000000000E+00 -0.00000000000E+00 -0.44537759111E+02  0.44560390333E+02  0.14200000000E+01 0. -1.
         25    2    1    2    0    0  0.00000000000E+00  0.00000000000E+00  0.43116681547E+02  0.13222633222E+03  0.12499901882E+03 0.  0.
        -13    1    3    3    0    0  0.36497711371E+02 -0.27970611762E+02  0.66334699664E+02  0.80713949289E+02  0.10570000000E+00 0. -1.
         13    1    3    3    0    0 -0.36497711371E+02  0.27970611762E+02 -0.23218018117E+02  0.51512382933E+02  0.10570000000E+00 0.  1.
<mgrwt>
<rscale>  0 0.12499902E+03</rscale>
<asrwt>0</asrwt>
<pdfrwt beam="1">  1        4 0.13487924E-01 0.12499902E+03</pdfrwt>
<pdfrwt beam="2">  1       -4 0.68545885E-02 0.12499902E+03</pdfrwt>
<totfact> 0.10297098E+04</totfact>
</mgrwt>
</event>
<event>
 5    1  0.1685506E-006  0.1250088E+03  0.7818608E-02  0.1235056E+00
          4   -1    0    0  501    0  0.00000000000E+00  0.00000000000E+00  0.40670410736E+02  0.40695192706E+02  0.14200000000E+01 0. -1.
         -4   -1    0    0    0  501 -0.00000000000E+00 -0.00000000000E+00 -0.96000662884E+02  0.96011164320E+02  0.14200000000E+01 0.  1.
         25    2    1    2    0    0  0.00000000000E+00  0.00000000000E+00 -0.55330252148E+02  0.13670635703E+03  0.12500876469E+03 0.  0.
        -13    1    3    3    0    0  0.25762680728E+02  0.22401032137E+02 -0.84921485696E+02  0.91527000740E+02  0.10570000000E+00 0.  1.
         13    1    3    3    0    0 -0.25762680728E+02 -0.22401032137E+02  0.29591233548E+02  0.45179356287E+02  0.10570000000E+00 0. -1.
<mgrwt>
<rscale>  0 0.12500876E+03</rscale>
<asrwt>0</asrwt>
<pdfrwt beam="1">  1        4 0.62597004E-02 0.12500876E+03</pdfrwt>
<pdfrwt beam="2">  1       -4 0.14772047E-01 0.12500876E+03</pdfrwt>
<totfact> 0.10200213E+04</totfact>
</mgrwt>
</event>
<event>
 5    1  0.1685506E-006  0.1249996E+03  0.7818608E-02  0.1235070E+00
         -4   -1    0    0    0  501 -0.00000000000E+00  0.00000000000E+00  0.68160569350E+02  0.68175359289E+02  0.14200000000E+01 0.  1.
          4   -1    0    0  501    0  0.00000000000E+00 -0.00000000000E+00 -0.57279314644E+02  0.57296913408E+02  0.14200000000E+01 0. -1.
         25    2    1    2    0    0  0.00000000000E+00  0.00000000000E+00  0.10881254706E+02  0.12547227270E+03  0.12499955805E+03 0.  0.
        -13    1    3    3    0    0 -0.27871703143E+02  0.45518868855E+02  0.38081472383E+02  0.65566828269E+02  0.10570000000E+00 0.  1.
         13    1    3    3    0    0  0.27871703143E+02 -0.45518868855E+02 -0.27200217677E+02  0.59905444428E+02  0.10570000000E+00 0. -1.
<mgrwt>
<rscale>  0 0.12499956E+03</rscale>
<asrwt>0</asrwt>
<pdfrwt beam="2">  1        4 0.88146937E-02 0.12499956E+03</pdfrwt>
<pdfrwt beam="1">  1       -4 0.10488733E-01 0.12499956E+03</pdfrwt>
<totfact> 0.10442671E+04</totfact>
</mgrwt>
</event>
<event>
 5    1  0.1685506E-006  0.1250058E+03  0.7818608E-02  0.1235060E+00
          4   -1    0    0  501    0  0.00000000000E+00  0.00000000000E+00  0.17056002412E+03  0.17056593513E+03  0.14200000000E+01 0.  1.
         -4   -1    0    0    0  501 -0.00000000000E+00 -0.00000000000E+00 -0.22876294059E+02  0.22920323511E+02  0.14200000000E+01 0. -1.
         25    2    1    2    0    0  0.00000000000E+00  0.00000000000E+00  0.14768373006E+03  0.19348625864E+03  0.12500579250E+03 0.  0.
        -13    1    3    3    0    0 -0.60085538559E+02 -0.12040588754E+02  0.92884003337E+02  0.11127756724E+03  0.10570000000E+00 0. -1.
         13    1    3    3    0    0  0.60085538559E+02  0.12040588754E+02  0.54799726720E+02  0.82208691405E+02  0.10570000000E+00 0.  1.
<mgrwt>
<rscale>  0 0.12500579E+03</rscale>
<asrwt>0</asrwt>
<pdfrwt beam="1">  1        4 0.26243846E-01 0.12500579E+03</pdfrwt>
<pdfrwt beam="2">  1       -4 0.35232714E-02 0.12500579E+03</pdfrwt>
<totfact> 0.91232396E+03</totfact>
</mgrwt>
</event>
<event>
 5    1  0.1685506E-006  0.1250168E+03  0.7818608E-02  0.1235043E+00
          4   -1    0    0  501    0  0.00000000000E+00  0.00000000000E+00  0.11582205077E+02  0.11668927733E+02  0.14200000000E+01 0. -1.
         -4   -1    0    0    0  501 -0.00000000000E+00 -0.00000000000E+00 -0.33600748559E+03  0.33601048611E+03  0.14200000000E+01 0.  1.
         25    2    1    2    0    0  0.00000000000E+00  0.00000000000E+00 -0.32442528051E+03  0.34767941384E+03  0.12501684755E+03 0.  0.
        -13    1    3    3    0    0 -0.38663925384E+02 -0.44661951602E+02 -0.21905134057E+03  0.22687681685E+03  0.10570000000E+00 0.  1.
         13    1    3    3    0    0  0.38663925384E+02  0.44661951602E+02 -0.10537393994E+03  0.12080259699E+03  0.10570000000E+00 0. -1.
<mgrwt>
<rscale>  0 0.12501685E+03</rscale>
<asrwt>0</asrwt>
<pdfrwt beam="1">  1        4 0.17887797E-02 0.12501685E+03</pdfrwt>
<pdfrwt beam="2">  1       -4 0.51700354E-01 0.12501685E+03</pdfrwt>
<totfact> 0.69954520E+03</totfact>
</mgrwt>
</event>
<event>
 5    1  0.1685506E-006  0.1250004E+03  0.7818608E-02  0.1235069E+00
         -4   -1    0    0    0  501 -0.00000000000E+00  0.00000000000E+00  0.49691170851E+02  0.49711456029E+02  0.14200000000E+01 0. -1.
          4   -1    0    0  501    0  0.00000000000E+00 -0.00000000000E+00 -0.78568322168E+02  0.78581153264E+02  0.14200000000E+01 0.  1.
         25    2    1    2    0    0  0.00000000000E+00  0.00000000000E+00 -0.28877151317E+02  0.12829260929E+03  0.12500041492E+03 0.  0.
        -13    1    3    3    0    0 -0.41147887640E+02 -0.14032487391E+02  0.31646209842E+02  0.53773163655E+02  0.10570000000E+00 0. -1.
         13    1    3    3    0    0  0.41147887640E+02  0.14032487391E+02 -0.60523361159E+02  0.74519445637E+02  0.10570000000E+00 0.  1.
<mgrwt>
<rscale>  0 0.12500041E+03</rscale>
<asrwt>0</asrwt>
<pdfrwt beam="2">  1        4 0.12089982E-01 0.12500041E+03</pdfrwt>
<pdfrwt beam="1">  1       -4 0.76473429E-02 0.12500041E+03</pdfrwt>
<totfact> 0.10381076E+04</totfact>
</mgrwt>
</event>
<event>
 5    1  0.1685506E-006  0.1250006E+03  0.7818608E-02  0.1235068E+00
         -4   -1    0    0    0  501 -0.00000000000E+00  0.00000000000E+00  0.10832026706E+03  0.10832957424E+03  0.14200000000E+01 0. -1.
          4   -1    0    0  501    0  0.00000000000E+00 -0.00000000000E+00 -0.36037530901E+02  0.36065496440E+02  0.14200000000E+01 0.  1.
         25    2    1    2    0    0  0.00000000000E+00  0.00000000000E+00  0.72282736159E+02  0.14439507068E+03  0.12500056996E+03 0.  0.
        -13    1    3    3    0    0  0.51805812857E+02 -0.14232121138E+02  0.73031880248E+02  0.90664558802E+02  0.10570000000E+00 0. -1.
         13    1    3    3    0    0 -0.51805812857E+02  0.14232121138E+02 -0.74914408830E+00  0.53730511883E+02  0.10570000000E+00 0.  1.
<mgrwt>
<rscale>  0 0.12500057E+03</rscale>
<asrwt>0</asrwt>
<pdfrwt beam="2">  1        4 0.55471027E-02 0.12500057E+03</pdfrwt>
<pdfrwt beam="1">  1       -4 0.16667523E-01 0.12500057E+03</pdfrwt>
<totfact> 0.10043165E+04</totfact>
</mgrwt>
</event>
<event>
 5    1  0.1685506E-006  0.1249989E+03  0.7818608E-02  0.1235071E+00
         -4   -1    0    0    0  501 -0.00000000000E+00  0.00000000000E+00  0.22504260508E+02  0.22549016409E+02  0.14200000000E+01 0.  1.
          4   -1    0    0  501    0  0.00000000000E+00 -0.00000000000E+00 -0.17335522360E+03  0.17336103931E+03  0.14200000000E+01 0. -1.
         25    2    1    2    0    0  0.00000000000E+00  0.00000000000E+00 -0.15085096309E+03  0.19591005572E+03  0.12499894746E+03 0.  0.
        -13    1    3    3    0    0 -0.10807816472E+02 -0.33049179152E+02  0.59699775433E+01  0.35280432875E+02  0.10570000000E+00 0.  1.
         13    1    3    3    0    0  0.10807816472E+02  0.33049179152E+02 -0.15682094064E+03  0.16062962284E+03  0.10570000000E+00 0. -1.
<mgrwt>
<rscale>  0 0.12499895E+03</rscale>
<asrwt>0</asrwt>
<pdfrwt beam="2">  1        4 0.26673924E-01 0.12499895E+03</pdfrwt>
<pdfrwt beam="1">  1       -4 0.34660842E-02 0.12499895E+03</pdfrwt>
<totfact> 0.90831172E+03</totfact>
</mgrwt>
</event>
<event>
 5    1  0.1685506E-006  0.1250050E+03  0.7818608E-02  0.1235061E+00
         -4   -1    0    0    0  501 -0.00000000000E+00  0.00000000000E+00  0.99780435598E+02  0.99790539272E+02  0.14200000000E+01 0.  1.
          4   -1    0    0  501    0  0.00000000000E+00 -0.00000000000E+00 -0.39126649083E+02  0.39152408208E+02  0.14200000000E+01 0. -1.
         25    2    1    2    0    0  0.00000000000E+00  0.00000000000E+00  0.60653786515E+02  0.13894294748E+03  0.12500504324E+03 0.  0.
        -13    1    3    3    0    0 -0.18538633676E+02 -0.11516199574E+02  0.95425527155E+02  0.97889459067E+02  0.10570000000E+00 0.  1.
         13    1    3    3    0    0  0.18538633676E+02  0.11516199574E+02 -0.34771740640E+02  0.41053488412E+02  0.10570000000E+00 0. -1.
<mgrwt>
<rscale>  0 0.12500504E+03</rscale>
<asrwt>0</asrwt>
<pdfrwt beam="2">  1        4 0.60222433E-02 0.12500504E+03</pdfrwt>
<pdfrwt beam="1">  1       -4 0.15353594E-01 0.12500504E+03</pdfrwt>
<totfact> 0.10154387E+04</totfact>
</mgrwt>
</event>
<event>
 5    1  0.1685506E-006  0.1249981E+03  0.7818608E-02  0.1235072E+00
         -4   -1    0    0    0  501 -0.00000000000E+00  0.00000000000E+00  0.15552483699E+03  0.15553131942E+03  0.14200000000E+01 0.  1.
          4   -1    0    0  501    0  0.00000000000E+00 -0.00000000000E+00 -0.25088701663E+02  0.25128854951E+02  0.14200000000E+01 0. -1.
         25    2    1    2    0    0  0.00000000000E+00  0.00000000000E+00  0.13043613532E+03  0.18066017437E+03  0.12499805280E+03 0.  0.
        -13    1    3    3    0    0  0.45845776380E+02  0.37860926190E+02  0.93050290136E+02  0.11042487315E+03  0.10570000000E+00 0.  1.
         13    1    3    3    0    0 -0.45845776380E+02 -0.37860926190E+02  0.37385845187E+02  0.70235301215E+02  0.10570000000E+00 0. -1.
<mgrwt>
<rscale>  0 0.12499805E+03</rscale>
<asrwt>0</asrwt>
<pdfrwt beam="2">  1        4 0.38633876E-02 0.12499805E+03</pdfrwt>
<pdfrwt beam="1">  1       -4 0.23930485E-01 0.12499805E+03</pdfrwt>
<totfact> 0.93502386E+03</totfact>
</mgrwt>
</event>
<event>
 5    1  0.1685506E-006  0.1249999E+03  0.7818608E-02  0.1235069E+00
         -4   -1    0    0    0  501 -0.00000000000E+00  0.00000000000E+00  0.29440474175E+02  0.29474699653E+02  0.14200000000E+01 0.  1.
          4   -1    0    0  501    0  0.00000000000E+00 -0.00000000000E+00 -0.13256775426E+03  0.13257535921E+03  0.14200000000E+01 0. -1.
         25    2    1    2    0    0  0.00000000000E+00  0.00000000000E+00 -0.10312728009E+03  0.16205005887E+03  0.12499994272E+03 0.  0.
        -13    1    3    3    0    0  0.22276018532E+02  0.34389050680E+02  0.96205495513E+01  0.42087931221E+02  0.10570000000E+00 0.  1.
         13    1    3    3    0    0 -0.22276018532E+02 -0.34389050680E+02 -0.11274782964E+03  0.11996212765E+03  0.10570000000E+00 0. -1.
<mgrwt>
<rscale>  0 0.12499994E+03</rscale>
<asrwt>0</asrwt>
<pdfrwt beam="2">  1        4 0.20398256E-01 0.12499994E+03</pdfrwt>
<pdfrwt beam="1">  1       -4 0.45325215E-02 0.12499994E+03</pdfrwt>
<totfact> 0.96949125E+03</totfact>
</mgrwt>
</event>
<event>
 5    1  0.1685506E-006  0.1250042E+03  0.7818608E-02  0.1235063E+00
         -4   -1    0    0    0  501 -0.00000000000E+00  0.00000000000E+00  0.22847729151E+02  0.22891813545E+02  0.14200000000E+01 0.  1.
          4   -1    0    0  501    0  0.00000000000E+00 -0.00000000000E+00 -0.17076846964E+03  0.17077437344E+03  0.14200000000E+01 0. -1.
         25    2    1    2    0    0  0.00000000000E+00  0.00000000000E+00 -0.14792074049E+03  0.19366618698E+03  0.12500418598E+03 0.  0.
        -13    1    3    3    0    0 -0.40542387275E+02 -0.10526078815E+01 -0.28073856975E+00  0.40557158874E+02  0.10570000000E+00 0.  1.
         13    1    3    3    0    0  0.40542387275E+02  0.10526078815E+01 -0.14764000192E+03  0.15310902811E+03  0.10570000000E+00 0. -1.
<mgrwt>
<rscale>  0 0.12500419E+03</rscale>
<asrwt>0</asrwt>
<pdfrwt beam="2">  1        4 0.26275917E-01 0.12500419E+03</pdfrwt>
<pdfrwt beam="1">  1       -4 0.35188806E-02 0.12500419E+03</pdfrwt>
<totfact> 0.91204746E+03</totfact>
</mgrwt>
</event>
<event>
 5    1  0.1685506E-006  0.1249994E+03  0.7818608E-02  0.1235070E+00
          4   -1    0    0  501    0  0.00000000000E+00  0.00000000000E+00  0.52025085088E+02  0.52044460593E+02  0.14200000000E+01 0. -1.
         -4   -1    0    0    0  501 -0.00000000000E+00 -0.00000000000E+00 -0.75043182802E+02  0.75056616531E+02  0.14200000000E+01 0. -1.
         25    2    1    2    0    0  0.00000000000E+00  0.00000000000E+00 -0.23018097714E+02  0.12710107712E+03  0.12499940393E+03 0.  0.
        -13    1    3    3    0    0 -0.12469173550E+02 -0.54090368662E+02  0.17695867830E+02  0.58261506862E+02  0.10570000000E+00 0. -1.
         13    1    3    3    0    0  0.12469173550E+02  0.54090368662E+02 -0.40713965544E+02  0.68839570262E+02  0.10570000000E+00 0. -1.
<mgrwt>
<rscale>  0 0.12499940E+03</rscale>
<asrwt>0</asrwt>
<pdfrwt beam="1">  1        4 0.80063831E-02 0.12499940E+03</pdfrwt>
<pdfrwt beam="2">  1       -4 0.11547629E-01 0.12499940E+03</pdfrwt>
<totfact> 0.10407090E+04</totfact>
</mgrwt>
</event>
<event>
 5    1  0.1685506E-006  0.1249980E+03  0.7818608E-02  0.1235072E+00
         -4   -1    0    0    0  501 -0.00000000000E+00  0.00000000000E+00  0.16677521504E+03  0.16678126020E+03  0.14200000000E+01 0. -1.
          4   -1    0    0  501    0  0.00000000000E+00 -0.00000000000E+00 -0.23393484825E+02  0.23436542668E+02  0.14200000000E+01 0.  1.
         25    2    1    2    0    0  0.00000000000E+00  0.00000000000E+00  0.14338173022E+03  0.19021780286E+03  0.12499796785E+03 0.  0.
        -13    1    3    3    0    0 -0.16417770887E+02 -0.59045417311E+02  0.90341505427E+02  0.10916731783E+03  0.10570000000E+00 0. -1.
         13    1    3    3    0    0  0.16417770887E+02  0.59045417311E+02  0.53040224791E+02  0.81050485037E+02  0.10570000000E+00 0.  1.
<mgrwt>
<rscale>  0 0.12499797E+03</rscale>
<asrwt>0</asrwt>
<pdfrwt beam="2">  1        4 0.36027747E-02 0.12499797E+03</pdfrwt>
<pdfrwt beam="1">  1       -4 0.25661503E-01 0.12499797E+03</pdfrwt>
<totfact> 0.91813609E+03</totfact>
</mgrwt>
</event>
<event>
 5    1  0.1685506E-006  0.1250022E+03  0.7818608E-02  0.1235066E+00
         -4   -1    0    0    0  501 -0.00000000000E+00  0.00000000000E+00  0.10233554366E+02  0.10331603698E+02  0.14200000000E+01 0. -1.
          4   -1    0    0  501    0  0.00000000000E+00 -0.00000000000E+00 -0.37980429709E+03  0.37980695160E+03  0.14200000000E+01 0.  1.
         25    2    1    2    0    0  0.00000000000E+00  0.00000000000E+00 -0.36957074272E+03  0.39013855530E+03  0.12500223381E+03 0.  0.
        -13    1    3    3    0    0  0.54596676612E+02 -0.64892316877E+01 -0.92017562277E+02  0.10719211802E+03  0.10570000000E+00 0. -1.
         13    1    3    3    0    0 -0.54596676612E+02  0.64892316877E+01 -0.27755318044E+03  0.28294643728E+03  0.10570000000E+00 0.  1.
<mgrwt>
<rscale>  0 0.12500223E+03</rscale>
<asrwt>0</asrwt>
<pdfrwt beam="2">  1        4 0.58439166E-01 0.12500223E+03</pdfrwt>
<pdfrwt beam="1">  1       -4 0.15821397E-02 0.12500223E+03</pdfrwt>
<totfact> 0.65520108E+03</totfact>
</mgrwt>
</event>
<event>
 5    1  0.1685506E-006  0.1249953E+03  0.7818608E-02  0.1235077E+00
          4   -1    0    0  501    0  0.00000000000E+00  0.00000000000E+00  0.17991176667E+02  0.18047128245E+02  0.14200000000E+01 0. -1.
         -4   -1    0    0    0  501 -0.00000000000E+00 -0.00000000000E+00 -0.21670854755E+03  0.21671319983E+03  0.14200000000E+01 0. -1.
         25    2    1    2    0    0  0.00000000000E+00  0.00000000000E+00 -0.19871737088E+03  0.23476032807E+03  0.12499527250E+03 0.  0.
        -13    1    3    3    0    0 -0.34883005383E+02  0.20065565443E+02 -0.95504838782E+01  0.41360293711E+02  0.10570000000E+00 0. -1.
         13    1    3    3    0    0  0.34883005383E+02 -0.20065565443E+02 -0.18916688700E+03  0.19340003436E+03  0.10570000000E+00 0. -1.
<mgrwt>
<rscale>  0 0.12499527E+03</rscale>
<asrwt>0</asrwt>
<pdfrwt beam="1">  1        4 0.27725353E-02 0.12499527E+03</pdfrwt>
<pdfrwt beam="2">  1       -4 0.33344437E-01 0.12499527E+03</pdfrwt>
<totfact> 0.84592884E+03</totfact>
</mgrwt>
</event>
<event>
 5    1  0.1685506E-006  0.1250245E+03  0.7818608E-02  0.1235031E+00
         -4   -1    0    0    0  501 -0.00000000000E+00  0.00000000000E+00  0.14222885951E+03  0.14223594791E+03  0.14200000000E+01 0.  1.
          4   -1    0    0  501    0  0.00000000000E+00 -0.00000000000E+00 -0.27449194531E+02  0.27485899665E+02  0.14200000000E+01 0. -1.
         25    2    1    2    0    0  0.00000000000E+00  0.00000000000E+00  0.11477966498E+03  0.16972184757E+03  0.12502453380E+03 0.  0.
        -13    1    3    3    0    0 -0.10657601434E+02 -0.54742901389E+02  0.95723585117E+02  0.11078531329E+03  0.10570000000E+00 0.  1.
         13    1    3    3    0    0  0.10657601434E+02  0.54742901389E+02  0.19056079858E+02  0.58936534280E+02  0.10570000000E+00 0. -1.
<mgrwt>
<rscale>  0 0.12502453E+03</rscale>
<asrwt>0</asrwt>
<pdfrwt beam="2">  1        4 0.42263218E-02 0.12502453E+03</pdfrwt>
<pdfrwt beam="1">  1       -4 0.21884731E-01 0.12502453E+03</pdfrwt>
<totfact> 0.95447935E+03</totfact>
</mgrwt>
</event>
<event>
 5    1  0.1685506E-006  0.1250001E+03  0.7818608E-02  0.1235069E+00
          4   -1    0    0  501    0  0.00000000000E+00  0.00000000000E+00  0.15171933153E+03  0.15172597655E+03  0.14200000000E+01 0. -1.
         -4   -1    0    0    0  501 -0.00000000000E+00 -0.00000000000E+00 -0.25719794291E+02  0.25758963845E+02  0.14200000000E+01 0.  1.
         25    2    1    2    0    0  0.00000000000E+00  0.00000000000E+00  0.12599953724E+03  0.17748494040E+03  0.12500008273E+03 0.  0.
        -13    1    3    3    0    0 -0.45163155784E+01  0.56370863684E+02  0.10078488587E+03  0.11556675894E+03  0.10570000000E+00 0.  1.
         13    1    3    3    0    0  0.45163155784E+01 -0.56370863684E+02  0.25214651370E+02  0.61918181458E+02  0.10570000000E+00 0. -1.
<mgrwt>
<rscale>  0 0.12500008E+03</rscale>
<asrwt>0</asrwt>
<pdfrwt beam="1">  1        4 0.23344959E-01 0.12500008E+03</pdfrwt>
<pdfrwt beam="2">  1       -4 0.39604157E-02 0.12500008E+03</pdfrwt>
<totfact> 0.94071517E+03</totfact>
</mgrwt>
</event>
<event>
 5    1  0.1685506E-006  0.1249983E+03  0.7818608E-02  0.1235072E+00
          4   -1    0    0  501    0  0.00000000000E+00  0.00000000000E+00  0.24080354078E+02  0.24122185899E+02  0.14200000000E+01 0.  1.
         -4   -1    0    0    0  501 -0.00000000000E+00 -0.00000000000E+00 -0.16202718652E+03  0.16203340881E+03  0.14200000000E+01 0. -1.
         25    2    1    2    0    0  0.00000000000E+00  0.00000000000E+00 -0.13794683244E+03  0.18615559471E+03  0.12499830744E+03 0.  0.
        -13    1    3    3    0    0  0.10505526367E+02 -0.59850625694E+02 -0.90742657418E+02  0.10920945256E+03  0.10570000000E+00 0.  1.
         13    1    3    3    0    0 -0.10505526367E+02  0.59850625694E+02 -0.47204175023E+02  0.76946142153E+02  0.10570000000E+00 0. -1.
<mgrwt>
<rscale>  0 0.12499831E+03</rscale>
<asrwt>0</asrwt>
<pdfrwt beam="1">  1        4 0.37083664E-02 0.12499831E+03</pdfrwt>
<pdfrwt beam="2">  1       -4 0.24930955E-01 0.12499831E+03</pdfrwt>
<totfact> 0.92524074E+03</totfact>
</mgrwt>
</event>
<event>
 5    1  0.1685506E-006  0.1250002E+03  0.7818608E-02  0.1235069E+00
          4   -1    0    0  501    0  0.00000000000E+00  0.00000000000E+00  0.29819794173E+02  0.29853584785E+02  0.14200000000E+01 0. -1.
         -4   -1    0    0    0  501 -0.00000000000E+00 -0.00000000000E+00 -0.13088383011E+03  0.13089153290E+03  0.14200000000E+01 0. -1.
         25    2    1    2    0    0  0.00000000000E+00  0.00000000000E+00 -0.10106403594E+03  0.16074511768E+03  0.12500021400E+03 0.  0.
        -13    1    3    3    0    0 -0.31659762791E+02 -0.46846645147E+02 -0.84780637731E+02  0.10190542894E+03  0.10570000000E+00 0. -1.
         13    1    3    3    0    0  0.31659762791E+02  0.46846645147E+02 -0.16283398207E+02  0.58839688741E+02  0.10570000000E+00 0. -1.
<mgrwt>
<rscale>  0 0.12500021E+03</rscale>
<asrwt>0</asrwt>
<pdfrwt beam="1">  1        4 0.45908525E-02 0.12500021E+03</pdfrwt>
<pdfrwt beam="2">  1       -4 0.20139165E-01 0.12500021E+03</pdfrwt>
<totfact> 0.97198857E+03</totfact>
</mgrwt>
</event>
<event>
 5    1  0.1685506E-006  0.1250000E+03  0.7818608E-02  0.1235069E+00
         -4   -1    0    0    0  501 -0.00000000000E+00  0.00000000000E+00  0.27018643675E+03  0.27019016822E+03  0.14200000000E+01 0. -1.
          4   -1    0    0  501    0  0.00000000000E+00 -0.00000000000E+00 -0.14418907774E+02  0.14488661132E+02  0.14200000000E+01 0. -1.
         25    2    1    2    0    0  0.00000000000E+00  0.00000000000E+00  0.25576752898E+03  0.28467882936E+03  0.12500002801E+03 0.  0.
        -13    1    3    3    0    0  0.26668130216E+02 -0.35748679184E+02  0.28167601655E+02  0.52750186616E+02  0.10570000000E+00 0.  1.
         13    1    3    3    0    0 -0.26668130216E+02  0.35748679184E+02  0.22759992732E+03  0.23192864274E+03  0.10570000000E+00 0.  1.
<mgrwt>
<rscale>  0 0.12500003E+03</rscale>
<asrwt>0</asrwt>
<pdfrwt beam="2">  1        4 0.22239461E-02 0.12500003E+03</pdfrwt>
<pdfrwt beam="1">  1       -4 0.41572798E-01 0.12500003E+03</pdfrwt>
<totfact> 0.77561738E+03</totfact>
</mgrwt>
</event>
<event>
 5    1  0.1685506E-006  0.1249871E+03  0.7818608E-02  0.1235089E+00
         -4   -1    0    0    0  501 -0.00000000000E+00  0.00000000000E+00  0.28229456341E+03  0.28229813483E+03  0.14200000000E+01 0.  1.
          4   -1    0    0  501    0  0.00000000000E+00 -0.00000000000E+00 -0.13794529420E+02  0.13867423767E+02  0.14200000000E+01 0. -1.
         25    2    1    2    0    0  0.00000000000E+00  0.00000000000E+00  0.26850003399E+03  0.29616555860E+03  0.12498707873E+03 0.  0.
        -13    1    3    3    0    0  0.48984669264E+02  0.10283000701E+02  0.22291730850E+03  0.22846744960E+03  0.10570000000E+00 0.  1.
         13    1    3    3    0    0 -0.48984669264E+02 -0.10283000701E+02  0.45582725487E+02  0.67698108996E+02  0.10570000000E+00 0. -1.
<mgrwt>
<rscale>  0 0.12498708E+03</rscale>
<asrwt>0</asrwt>
<pdfrwt beam="2">  1        4 0.21281172E-02 0.12498708E+03</pdfrwt>
<pdfrwt beam="1">  1       -4 0.43435816E-01 0.12498708E+03</pdfrwt>
<totfact> 0.76104186E+03</totfact>
</mgrwt>
</event>
<event>
 5    1  0.1685506E-006  0.1250030E+03  0.7818608E-02  0.1235065E+00
          4   -1    0    0  501    0  0.00000000000E+00  0.00000000000E+00  0.93829438131E+02  0.93840182544E+02  0.14200000000E+01 0.  1.
         -4   -1    0    0    0  501 -0.00000000000E+00 -0.00000000000E+00 -0.41608151812E+02  0.41632375589E+02  0.14200000000E+01 0.  1.
         25    2    1    2    0    0  0.00000000000E+00  0.00000000000E+00  0.52221286319E+02  0.13547255813E+03  0.12500300501E+03 0.  0.
        -13    1    3    3    0    0 -0.18191235942E+02  0.50822285399E+02  0.60254942667E+02  0.80898053416E+02  0.10570000000E+00 0.  1.
         13    1    3    3    0    0  0.18191235942E+02 -0.50822285399E+02 -0.80336563480E+01  0.54574504717E+02  0.10570000000E+00 0.  1.
<mgrwt>
<rscale>  0 0.12500301E+03</rscale>
<asrwt>0</asrwt>
<pdfrwt beam="1">  1        4 0.14437988E-01 0.12500301E+03</pdfrwt>
<pdfrwt beam="2">  1       -4 0.64039439E-02 0.12500301E+03</pdfrwt>
<totfact> 0.10227427E+04</totfact>
</mgrwt>
</event>
<event>
 5    1  0.1685506E-006  0.1250015E+03  0.7818608E-02  0.1235067E+00
          4   -1    0    0  501    0  0.00000000000E+00  0.00000000000E+00  0.79962614160E+02  0.79975221558E+02  0.14200000000E+01 0.  1.
         -4   -1    0    0    0  501 -0.00000000000E+00 -0.00000000000E+00 -0.48825341092E+02  0.48845985841E+02  0.14200000000E+01 0.  1.
         25    2    1    2    0    0  0.00000000000E+00  0.00000000000E+00  0.31137273068E+02  0.12882120740E+03  0.12500149480E+03 0.  0.
        -13    1    3    3    0    0 -0.72284163713E+01 -0.46934595459E+02 -0.26308349576E+02  0.54288550211E+02  0.10570000000E+00 0.  1.
         13    1    3    3    0    0  0.72284163713E+01  0.46934595459E+02  0.57445622643E+02  0.74532657188E+02  0.10570000000E+00 0.  1.
<mgrwt>
<rscale>  0 0.12500149E+03</rscale>
<asrwt>0</asrwt>
<pdfrwt beam="1">  1        4 0.12304498E-01 0.12500149E+03</pdfrwt>
<pdfrwt beam="2">  1       -4 0.75141488E-02 0.12500149E+03</pdfrwt>
<totfact> 0.10369440E+04</totfact>
</mgrwt>
</event>
<event>
 5    1  0.1685506E-006  0.1249997E+03  0.7818608E-02  0.1235070E+00
          4   -1    0    0  501    0  0.00000000000E+00  0.00000000000E+00  0.21959802454E+02  0.22005665720E+02  0.14200000000E+01 0. -1.
         -4   -1    0    0    0  501 -0.00000000000E+00 -0.00000000000E+00 -0.17764672480E+03  0.17765240002E+03  0.14200000000E+01 0. -1.
         25    2    1    2    0    0  0.00000000000E+00  0.00000000000E+00 -0.15568692235E+03  0.19965806574E+03  0.12499970170E+03 0.  0.
        -13    1    3    3    0    0  0.55054934589E+02  0.46643779168E+01 -0.31181953536E+02  0.63443893661E+02  0.10570000000E+00 0. -1.
         13    1    3    3    0    0 -0.55054934589E+02 -0.46643779168E+01 -0.12450496881E+03  0.13621417208E+03  0.10570000000E+00 0. -1.
<mgrwt>
<rscale>  0 0.12499970E+03</rscale>
<asrwt>0</asrwt>
<pdfrwt beam="1">  1        4 0.33823958E-02 0.12499970E+03</pdfrwt>
<pdfrwt beam="2">  1       -4 0.27334229E-01 0.12499970E+03</pdfrwt>
<totfact> 0.90193811E+03</totfact>
</mgrwt>
</event>
<event>
 5    1  0.1685506E-006  0.1249968E+03  0.7818608E-02  0.1235074E+00
         -4   -1    0    0    0  501 -0.00000000000E+00  0.00000000000E+00  0.91681690656E+01  0.92774847893E+01  0.14200000000E+01 0.  1.
          4   -1    0    0  501    0  0.00000000000E+00 -0.00000000000E+00 -0.42340912723E+03  0.42341150837E+03  0.14200000000E+01 0. -1.
         25    2    1    2    0    0  0.00000000000E+00  0.00000000000E+00 -0.41424095816E+03  0.43268899316E+03  0.12499677348E+03 0.  0.
        -13    1    3    3    0    0 -0.53665761313E+01 -0.62255893127E+02 -0.21127556077E+03  0.22032242310E+03  0.10570000000E+00 0.  1.
         13    1    3    3    0    0  0.53665761313E+01  0.62255893127E+02 -0.20296539739E+03  0.21236657006E+03  0.10570000000E+00 0. -1.
<mgrwt>
<rscale>  0 0.12499677E+03</rscale>
<asrwt>0</asrwt>
<pdfrwt beam="2">  1        4 0.65148443E-01 0.12499677E+03</pdfrwt>
<pdfrwt beam="1">  1       -4 0.14190799E-02 0.12499677E+03</pdfrwt>
<totfact> 0.61497386E+03</totfact>
</mgrwt>
</event>
<event>
 5    1  0.1685506E-006  0.1249967E+03  0.7818608E-02  0.1235074E+00
         -4   -1    0    0    0  501 -0.00000000000E+00  0.00000000000E+00  0.26743707093E+02  0.26781379148E+02  0.14200000000E+01 0. -1.
          4   -1    0    0  501    0  0.00000000000E+00 -0.00000000000E+00 -0.14591071613E+03  0.14591762567E+03  0.14200000000E+01 0.  1.
         25    2    1    2    0    0  0.00000000000E+00  0.00000000000E+00 -0.11916700904E+03  0.17269900482E+03  0.12499668085E+03 0.  0.
        -13    1    3    3    0    0 -0.13593552358E+02 -0.52344920892E+02 -0.16303976996E+02  0.56485451643E+02  0.10570000000E+00 0. -1.
         13    1    3    3    0    0  0.13593552358E+02  0.52344920892E+02 -0.10286303204E+03  0.11621355318E+03  0.10570000000E+00 0.  1.
<mgrwt>
<rscale>  0 0.12499668E+03</rscale>
<asrwt>0</asrwt>
<pdfrwt beam="2">  1        4 0.22451231E-01 0.12499668E+03</pdfrwt>
<pdfrwt beam="1">  1       -4 0.41178459E-02 0.12499668E+03</pdfrwt>
<totfact> 0.94955032E+03</totfact>
</mgrwt>
</event>
<event>
 5    1  0.1685506E-006  0.1249997E+03  0.7818608E-02  0.1235070E+00
         -4   -1    0    0    0  501 -0.00000000000E+00  0.00000000000E+00  0.46822470901E+03  0.46822686224E+03  0.14200000000E+01 0. -1.
          4   -1    0    0  501    0  0.00000000000E+00 -0.00000000000E+00 -0.82800274897E+01  0.84009080004E+01  0.14200000000E+01 0.  1.
         25    2    1    2    0    0  0.00000000000E+00  0.00000000000E+00  0.45994468152E+03  0.47662777024E+03  0.12499968524E+03 0.  0.
        -13    1    3    3    0    0  0.23639898877E+02 -0.54779943570E+02  0.30095334998E+03  0.30681039270E+03  0.10570000000E+00 0. -1.
         13    1    3    3    0    0 -0.23639898877E+02  0.54779943570E+02  0.15899133154E+03  0.16981737754E+03  0.10570000000E+00 0.  1.
<mgrwt>
<rscale>  0 0.12499969E+03</rscale>
<asrwt>0</asrwt>
<pdfrwt beam="2">  1        4 0.12833145E-02 0.12499969E+03</pdfrwt>
<pdfrwt beam="1">  1       -4 0.72044036E-01 0.12499969E+03</pdfrwt>
<totfact> 0.57724884E+03</totfact>
</mgrwt>
</event>
<event>
 5    1  0.1685506E-006  0.1249995E+03  0.7818608E-02  0.1235070E+00
          4   -1    0    0  501    0  0.00000000000E+00  0.00000000000E+00  0.17754420172E+03  0.17754988021E+03  0.14200000000E+01 0.  1.
         -4   -1    0    0    0  501 -0.00000000000E+00 -0.00000000000E+00 -0.21972450888E+02  0.22018287809E+02  0.14200000000E+01 0. -1.
         25    2    1    2    0    0  0.00000000000E+00  0.00000000000E+00  0.15557175083E+03  0.19956816802E+03  0.12499953612E+03 0.  0.
        -13    1    3    3    0    0 -0.24568277559E+02 -0.56874421285E+02  0.64629113363E+02  0.89527836594E+02  0.10570000000E+00 0. -1.
         13    1    3    3    0    0  0.24568277559E+02  0.56874421285E+02  0.90942637469E+02  0.11004033143E+03  0.10570000000E+00 0.  1.
<mgrwt>
<rscale>  0 0.12499954E+03</rscale>
<asrwt>0</asrwt>
<pdfrwt beam="1">  1        4 0.27318455E-01 0.12499954E+03</pdfrwt>
<pdfrwt beam="2">  1       -4 0.33843399E-02 0.12499954E+03</pdfrwt>
<totfact> 0.90209326E+03</totfact>
</mgrwt>
</event>
<event>
 5    1  0.1685506E-006  0.1249946E+03  0.7818608E-02  0.1235078E+00
          4   -1    0    0  501    0  0.00000000000E+00  0.00000000000E+00  0.39481825194E+02  0.39507352742E+02  0.14200000000E+01 0. -1.
         -4   -1    0    0    0  501 -0.00000000000E+00 -0.00000000000E+00 -0.98866819602E+02  0.98877016633E+02  0.14200000000E+01 0.  1.
         25    2    1    2    0    0  0.00000000000E+00  0.00000000000E+00 -0.59384994408E+02  0.13838436938E+03  0.12499462439E+03 0.  0.
        -13    1    3    3    0    0 -0.44549384457E+02 -0.21928539967E+01 -0.78159265655E+02  0.89990767551E+02  0.10570000000E+00 0.  1.
         13    1    3    3    0    0  0.44549384457E+02  0.21928539967E+01  0.18774271247E+02  0.48393601824E+02  0.10570000000E+00 0. -1.
<mgrwt>
<rscale>  0 0.12499462E+03</rscale>
<asrwt>0</asrwt>
<pdfrwt beam="1">  1        4 0.60768750E-02 0.12499462E+03</pdfrwt>
<pdfrwt beam="2">  1       -4 0.15213028E-01 0.12499462E+03</pdfrwt>
<totfact> 0.10168412E+04</totfact>
</mgrwt>
</event>
<event>
 5    1  0.1685506E-006  0.1249993E+03  0.7818608E-02  0.1235070E+00
          4   -1    0    0  501    0  0.00000000000E+00  0.00000000000E+00  0.79405690883E+02  0.79418386691E+02  0.14200000000E+01 0. -1.
         -4   -1    0    0    0  501 -0.00000000000E+00 -0.00000000000E+00 -0.49166118736E+02  0.49186620453E+02  0.14200000000E+01 0.  1.
         25    2    1    2    0    0  0.00000000000E+00  0.00000000000E+00  0.30239572146E+02  0.12860500714E+03  0.12499926455E+03 0.  0.
        -13    1    3    3    0    0  0.60516286844E+02 -0.26697709825E+01 -0.71389189405E+00  0.60579447543E+02  0.10570000000E+00 0.  1.
         13    1    3    3    0    0 -0.60516286844E+02  0.26697709825E+01  0.30953464040E+02  0.68025559601E+02  0.10570000000E+00 0. -1.
<mgrwt>
<rscale>  0 0.12499926E+03</rscale>
<asrwt>0</asrwt>
<pdfrwt beam="1">  1        4 0.12218814E-01 0.12499926E+03</pdfrwt>
<pdfrwt beam="2">  1       -4 0.75665720E-02 0.12499926E+03</pdfrwt>
<totfact> 0.10374615E+04</totfact>
</mgrwt>
</event>
<event>
 5    1  0.1685506E-006  0.1250046E+03  0.7818608E-02  0.1235062E+00
         -4   -1    0    0    0  501 -0.00000000000E+00  0.00000000000E+00  0.44786096315E+02  0.44808602111E+02  0.14200000000E+01 0. -1.
          4   -1    0    0  501    0  0.00000000000E+00 -0.00000000000E+00 -0.87176372406E+02  0.87187936700E+02  0.14200000000E+01 0.  1.
         25    2    1    2    0    0  0.00000000000E+00  0.00000000000E+00 -0.42390276091E+02  0.13199653881E+03  0.12500460292E+03 0.  0.
        -13    1    3    3    0    0 -0.62018020445E+02  0.55514752272E+01 -0.15462598281E+02  0.64157282168E+02  0.10570000000E+00 0. -1.
         13    1    3    3    0    0  0.62018020445E+02 -0.55514752272E+01 -0.26927677810E+02  0.67839256643E+02  0.10570000000E+00 0.  1.
<mgrwt>
<rscale>  0 0.12500460E+03</rscale>
<asrwt>0</asrwt>
<pdfrwt beam="2">  1        4 0.13414370E-01 0.12500460E+03</pdfrwt>
<pdfrwt beam="1">  1       -4 0.68927894E-02 0.12500460E+03</pdfrwt>
<totfact> 0.10300703E+04</totfact>
</mgrwt>
</event>
<event>
 5    1  0.1685506E-006  0.1250022E+03  0.7818608E-02  0.1235066E+00
          4   -1    0    0  501    0  0.00000000000E+00  0.00000000000E+00  0.27462265187E+03  0.27462632306E+03  0.14200000000E+01 0. -1.
         -4   -1    0    0    0  501 -0.00000000000E+00 -0.00000000000E+00 -0.14185350023E+02  0.14256246184E+02  0.14200000000E+01 0.  1.
         25    2    1    2    0    0  0.00000000000E+00  0.00000000000E+00  0.26043730184E+03  0.28888256924E+03  0.12500220247E+03 0.  0.
        -13    1    3    3    0    0 -0.38909089812E+02 -0.39033034113E+02  0.62097192337E+02  0.83027510445E+02  0.10570000000E+00 0.  1.
         13    1    3    3    0    0  0.38909089812E+02  0.39033034113E+02  0.19834010951E+03  0.20585505880E+03  0.10570000000E+00 0. -1.
<mgrwt>
<rscale>  0 0.12500220E+03</rscale>
<asrwt>0</asrwt>
<pdfrwt beam="1">  1        4 0.42255370E-01 0.12500220E+03</pdfrwt>
<pdfrwt beam="2">  1       -4 0.21880977E-02 0.12500220E+03</pdfrwt>
<totfact> 0.77011126E+03</totfact>
</mgrwt>
</event>
<event>
 5    1  0.1685506E-006  0.1250061E+03  0.7818608E-02  0.1235060E+00
         -4   -1    0    0    0  501 -0.00000000000E+00  0.00000000000E+00  0.13081260679E+03  0.13082031377E+03  0.14200000000E+01 0.  1.
          4   -1    0    0  501    0  0.00000000000E+00 -0.00000000000E+00 -0.29838839057E+02  0.29872608127E+02  0.14200000000E+01 0. -1.
         25    2    1    2    0    0  0.00000000000E+00  0.00000000000E+00  0.10097376773E+03  0.16069292190E+03  0.12500605337E+03 0.  0.
        -13    1    3    3    0    0 -0.36851516103E+02 -0.11018967696E+02  0.11381774298E+03  0.12014134042E+03  0.10570000000E+00 0.  1.
         13    1    3    3    0    0  0.36851516103E+02  0.11018967696E+02 -0.12843975243E+02  0.40551581482E+02  0.10570000000E+00 0. -1.
<mgrwt>
<rscale>  0 0.12500605E+03</rscale>
<asrwt>0</asrwt>
<pdfrwt beam="2">  1        4 0.45937811E-02 0.12500605E+03</pdfrwt>
<pdfrwt beam="1">  1       -4 0.20128207E-01 0.12500605E+03</pdfrwt>
<totfact> 0.97196137E+03</totfact>
</mgrwt>
</event>
<event>
 5    1  0.1685506E-006  0.1250017E+03  0.7818608E-02  0.1235067E+00
          4   -1    0    0  501    0  0.00000000000E+00  0.00000000000E+00  0.23702028863E+02  0.23744527206E+02  0.14200000000E+01 0. -1.
         -4   -1    0    0    0  501 -0.00000000000E+00 -0.00000000000E+00 -0.16461778407E+03  0.16462390844E+03  0.14200000000E+01 0.  1.
         25    2    1    2    0    0  0.00000000000E+00  0.00000000000E+00 -0.14091575520E+03  0.18836843565E+03  0.12500166993E+03 0.  0.
        -13    1    3    3    0    0  0.58785761456E+01 -0.49846366601E+02 -0.14333678167E+02  0.52198500200E+02  0.10570000000E+00 0.  1.
         13    1    3    3    0    0 -0.58785761456E+01  0.49846366601E+02 -0.12658207704E+03  0.13616993545E+03  0.10570000000E+00 0. -1.
<mgrwt>
<rscale>  0 0.12500167E+03</rscale>
<asrwt>0</asrwt>
<pdfrwt beam="1">  1        4 0.36502063E-02 0.12500167E+03</pdfrwt>
<pdfrwt beam="2">  1       -4 0.25329552E-01 0.12500167E+03</pdfrwt>
<totfact> 0.92128532E+03</totfact>
</mgrwt>
</event>
<event>
 5    1  0.1685506E-006  0.1250009E+03  0.7818608E-02  0.1235068E+00
         -4   -1    0    0    0  501 -0.00000000000E+00  0.00000000000E+00  0.19167523456E+02  0.19220050870E+02  0.14200000000E+01 0.  1.
          4   -1    0    0  501    0  0.00000000000E+00 -0.00000000000E+00 -0.20346417277E+03  0.20346912788E+03  0.14200000000E+01 0. -1.
         25    2    1    2    0    0  0.00000000000E+00  0.00000000000E+00 -0.18429664931E+03  0.22268917875E+03  0.12500086154E+03 0.  0.
        -13    1    3    3    0    0 -0.45406472818E+02  0.38683902858E+02 -0.58910050313E+02  0.83836730104E+02  0.10570000000E+00 0.  1.
         13    1    3    3    0    0  0.45406472818E+02 -0.38683902858E+02 -0.12538659900E+03  0.13885244865E+03  0.10570000000E+00 0. -1.
<mgrwt>
<rscale>  0 0.12500086E+03</rscale>
<asrwt>0</asrwt>
<pdfrwt beam="2">  1        4 0.31306601E-01 0.12500086E+03</pdfrwt>
<pdfrwt beam="1">  1       -4 0.29532716E-02 0.12500086E+03</pdfrwt>
<totfact> 0.86442941E+03</totfact>
</mgrwt>
</event>
<event>
 5    1  0.1685506E-006  0.1250030E+03  0.7818608E-02  0.1235065E+00
         -4   -1    0    0    0  501 -0.00000000000E+00  0.00000000000E+00  0.62208436551E+02  0.62224641246E+02  0.14200000000E+01 0. -1.
          4   -1    0    0  501    0  0.00000000000E+00 -0.00000000000E+00 -0.62763535057E+02  0.62779596469E+02  0.14200000000E+01 0.  1.
         25    2    1    2    0    0  0.00000000000E+00  0.00000000000E+00 -0.55509850580E+00  0.12500423772E+03  0.12500300521E+03 0.  0.
        -13    1    3    3    0    0  0.38319971763E+02 -0.43943096163E+02  0.22239571286E+02  0.62402128488E+02  0.10570000000E+00 0. -1.
         13    1    3    3    0    0 -0.38319971763E+02  0.43943096163E+02 -0.22794669792E+02  0.62602109227E+02  0.10570000000E+00 0.  1.
<mgrwt>
<rscale>  0 0.12500301E+03</rscale>
<asrwt>0</asrwt>
<pdfrwt beam="2">  1        4 0.96584104E-02 0.12500301E+03</pdfrwt>
<pdfrwt beam="1">  1       -4 0.95730108E-02 0.12500301E+03</pdfrwt>
<totfact> 0.10452061E+04</totfact>
</mgrwt>
</event>
<event>
 5    1  0.1685506E-006  0.1250017E+03  0.7818608E-02  0.1235067E+00
          4   -1    0    0  501    0  0.00000000000E+00  0.00000000000E+00  0.11164431497E+03  0.11165334507E+03  0.14200000000E+01 0. -1.
         -4   -1    0    0    0  501 -0.00000000000E+00 -0.00000000000E+00 -0.34964438868E+02  0.34993261999E+02  0.14200000000E+01 0.  1.
         25    2    1    2    0    0  0.00000000000E+00  0.00000000000E+00  0.76679876105E+02  0.14664660707E+03  0.12500169585E+03 0.  0.
        -13    1    3    3    0    0 -0.40489587933E+02 -0.13480061701E+02 -0.15231423270E+02  0.45311435883E+02  0.10570000000E+00 0.  1.
         13    1    3    3    0    0  0.40489587933E+02  0.13480061701E+02  0.91911299375E+02  0.10133517119E+03  0.10570000000E+00 0. -1.
<mgrwt>
<rscale>  0 0.12500170E+03</rscale>
<asrwt>0</asrwt>
<pdfrwt beam="1">  1        4 0.17178960E-01 0.12500170E+03</pdfrwt>
<pdfrwt beam="2">  1       -4 0.53820563E-02 0.12500170E+03</pdfrwt>
<totfact> 0.99972580E+03</totfact>
</mgrwt>
</event>
<event>
 5    1  0.1685506E-006  0.1250036E+03  0.7818608E-02  0.1235064E+00
          4   -1    0    0  501    0  0.00000000000E+00  0.00000000000E+00  0.12343973173E+03  0.12344789901E+03  0.14200000000E+01 0. -1.
         -4   -1    0    0    0  501 -0.00000000000E+00 -0.00000000000E+00 -0.31621647220E+02  0.31653514384E+02  0.14200000000E+01 0.  1.
         25    2    1    2    0    0  0.00000000000E+00  0.00000000000E+00  0.91818084514E+02  0.15510141340E+03  0.12500355112E+03 0.  0.
        -13    1    3    3    0    0 -0.18823885072E+02  0.21624948292E+02 -0.23001338123E+02  0.36756628868E+02  0.10570000000E+00 0.  1.
         13    1    3    3    0    0  0.18823885072E+02 -0.21624948292E+02  0.11481942264E+03  0.11834478453E+03  0.10570000000E+00 0. -1.
<mgrwt>
<rscale>  0 0.12500355E+03</rscale>
<asrwt>0</asrwt>
<pdfrwt beam="1">  1        4 0.18993808E-01 0.12500355E+03</pdfrwt>
<pdfrwt beam="2">  1       -4 0.48679484E-02 0.12500355E+03</pdfrwt>
<totfact> 0.98287744E+03</totfact>
</mgrwt>
</event>
<event>
 5    1  0.1685506E-006  0.1250030E+03  0.7818608E-02  0.1235065E+00
          4   -1    0    0  501    0  0.00000000000E+00  0.00000000000E+00  0.25596382515E+03  0.25596776395E+03  0.14200000000E+01 0.  1.
         -4   -1    0    0    0  501 -0.00000000000E+00 -0.00000000000E+00 -0.15224590418E+02  0.15290668835E+02  0.14200000000E+01 0. -1.
         25    2    1    2    0    0  0.00000000000E+00  0.00000000000E+00  0.24073923473E+03  0.27125843279E+03  0.12500303285E+03 0.  0.
        -13    1    3    3    0    0  0.30316260236E+02  0.40814445398E+02  0.19925596244E+03  0.20564008444E+03  0.10570000000E+00 0. -1.
         13    1    3    3    0    0 -0.30316260236E+02 -0.40814445398E+02  0.41483272287E+02  0.65618348349E+02  0.10570000000E+00 0.  1.
<mgrwt>
<rscale>  0 0.12500303E+03</rscale>
<asrwt>0</asrwt>
<pdfrwt beam="1">  1        4 0.39384431E-01 0.12500303E+03</pdfrwt>
<pdfrwt beam="2">  1       -4 0.23476309E-02 0.12500303E+03</pdfrwt>
<totfact> 0.79346258E+03</totfact>
</mgrwt>
</event>
<event>
 5    1  0.1685506E-006  0.1250004E+03  0.7818608E-02  0.1235069E+00
         -4   -1    0    0    0  501 -0.00000000000E+00  0.00000000000E+00  0.25863289350E+03  0.25863679166E+03  0.14200000000E+01 0. -1.
          4   -1    0    0  501    0  0.00000000000E+00 -0.00000000000E+00 -0.15066142529E+02  0.15132912829E+02  0.14200000000E+01 0. -1.
         25    2    1    2    0    0  0.00000000000E+00  0.00000000000E+00  0.24356675098E+03  0.27376970449E+03  0.12500035567E+03 0.  0.
        -13    1    3    3    0    0 -0.36128839298E+02  0.50157108808E+02  0.14200316639E+03  0.15487394562E+03  0.10570000000E+00 0.  1.
         13    1    3    3    0    0  0.36128839298E+02 -0.50157108808E+02  0.10156358458E+03  0.11889575888E+03  0.10570000000E+00 0.  1.
<mgrwt>
<rscale>  0 0.12500036E+03</rscale>
<asrwt>0</asrwt>
<pdfrwt beam="2">  1        4 0.23233042E-02 0.12500036E+03</pdfrwt>
<pdfrwt beam="1">  1       -4 0.39795110E-01 0.12500036E+03</pdfrwt>
<totfact> 0.79010891E+03</totfact>
</mgrwt>
</event>
<event>
 5    1  0.1685506E-006  0.1250014E+03  0.7818608E-02  0.1235067E+00
          4   -1    0    0  501    0  0.00000000000E+00  0.00000000000E+00  0.40296652615E+03  0.40296902808E+03  0.14200000000E+01 0. -1.
         -4   -1    0    0    0  501 -0.00000000000E+00 -0.00000000000E+00 -0.96393971577E+01  0.97434274034E+01  0.14200000000E+01 0.  1.
         25    2    1    2    0    0  0.00000000000E+00  0.00000000000E+00  0.39332712899E+03  0.41271245549E+03  0.12500136205E+03 0.  0.
        -13    1    3    3    0    0 -0.57008315859E+02 -0.25547162350E+02  0.20303019193E+03  0.21242381125E+03  0.10570000000E+00 0.  1.
         13    1    3    3    0    0  0.57008315859E+02  0.25547162350E+02  0.19029693706E+03  0.20028864423E+03  0.10570000000E+00 0. -1.
<mgrwt>
<rscale>  0 0.12500136E+03</rscale>
<asrwt>0</asrwt>
<pdfrwt beam="1">  1        4 0.62003041E-01 0.12500136E+03</pdfrwt>
<pdfrwt beam="2">  1       -4 0.14911791E-02 0.12500136E+03</pdfrwt>
<totfact> 0.63332986E+03</totfact>
</mgrwt>
</event>
<event>
 5    1  0.1685506E-006  0.1249994E+03  0.7818608E-02  0.1235070E+00
         -4   -1    0    0    0  501 -0.00000000000E+00  0.00000000000E+00  0.48621375946E+02  0.48642107262E+02  0.14200000000E+01 0.  1.
          4   -1    0    0  501    0  0.00000000000E+00 -0.00000000000E+00 -0.80295219475E+02  0.80307774658E+02  0.14200000000E+01 0. -1.
         25    2    1    2    0    0  0.00000000000E+00  0.00000000000E+00 -0.31673843529E+02  0.12894988192E+03  0.12499935873E+03 0.  0.
        -13    1    3    3    0    0  0.11668872667E+02  0.93285692737E+01  0.46768918087E+02  0.49097124820E+02  0.10570000000E+00 0.  1.
         13    1    3    3    0    0 -0.11668872667E+02 -0.93285692737E+01 -0.78442761616E+02  0.79852757100E+02  0.10570000000E+00 0. -1.
<mgrwt>
<rscale>  0 0.12499936E+03</rscale>
<asrwt>0</asrwt>
<pdfrwt beam="2">  1        4 0.12355671E-01 0.12499936E+03</pdfrwt>
<pdfrwt beam="1">  1       -4 0.74827722E-02 0.12499936E+03</pdfrwt>
<totfact> 0.10367174E+04</totfact>
</mgrwt>
</event>
<event>
 5    1  0.1685506E-006  0.1250012E+03  0.7818608E-02  0.1235067E+00
         -4   -1    0    0    0  501 -0.00000000000E+00  0.00000000000E+00  0.54051864817E+02  0.54070514055E+02  0.14200000000E+01 0.  1.
          4   -1    0    0  501    0  0.00000000000E+00 -0.00000000000E+00 -0.72231828577E+02  0.72245785065E+02  0.14200000000E+01 0. -1.
         25    2    1    2    0    0  0.00000000000E+00  0.00000000000E+00 -0.18179963761E+02  0.12631629912E+03  0.12500118536E+03 0.  0.
        -13    1    3    3    0    0  0.40888324539E+02  0.71694482919E+01  0.38124777795E+02  0.56362806236E+02  0.10570000000E+00 0.  1.
         13    1    3    3    0    0 -0.40888324539E+02 -0.71694482919E+01 -0.56304741556E+02  0.69953492883E+02  0.10570000000E+00 0. -1.
<mgrwt>
<rscale>  0 0.12500119E+03</rscale>
<asrwt>0</asrwt>
<pdfrwt beam="2">  1        4 0.11115097E-01 0.12500119E+03</pdfrwt>
<pdfrwt beam="1">  1       -4 0.83181796E-02 0.12500119E+03</pdfrwt>
<totfact> 0.10423758E+04</totfact>
</mgrwt>
</event>
<event>
 5    1  0.1685506E-006  0.1249954E+03  0.7818608E-02  0.1235077E+00
          4   -1    0    0  501    0  0.00000000000E+00  0.00000000000E+00  0.48326652361E+02  0.48347510054E+02  0.14200000000E+01 0. -1.
         -4   -1    0    0    0  501 -0.00000000000E+00 -0.00000000000E+00 -0.80779611134E+02  0.80792091042E+02  0.14200000000E+01 0.  1.
         25    2    1    2    0    0  0.00000000000E+00  0.00000000000E+00 -0.32452958773E+02  0.12913960110E+03  0.12499536807E+03 0.  0.
        -13    1    3    3    0    0 -0.51137957741E+02  0.21907510463E+01 -0.53277144221E+02  0.73880683408E+02  0.10570000000E+00 0.  1.
         13    1    3    3    0    0  0.51137957741E+02 -0.21907510463E+01  0.20824185448E+02  0.55258917688E+02  0.10570000000E+00 0. -1.
<mgrwt>
<rscale>  0 0.12499537E+03</rscale>
<asrwt>0</asrwt>
<pdfrwt beam="1">  1        4 0.74374341E-02 0.12499537E+03</pdfrwt>
<pdfrwt beam="2">  1       -4 0.12430197E-01 0.12499537E+03</pdfrwt>
<totfact> 0.10364032E+04</totfact>
</mgrwt>
</event>
<event>
 5    1  0.1685506E-006  0.1250004E+03  0.7818608E-02  0.1235069E+00
          4   -1    0    0  501    0  0.00000000000E+00  0.00000000000E+00  0.21591254701E+02  0.21637899148E+02  0.14200000000E+01 0. -1.
         -4   -1    0    0    0  501 -0.00000000000E+00 -0.00000000000E+00 -0.18067479409E+03  0.18068037419E+03  0.14200000000E+01 0. -1.
         25    2    1    2    0    0  0.00000000000E+00  0.00000000000E+00 -0.15908353939E+03  0.20231827334E+03  0.12500044490E+03 0.  0.
        -13    1    3    3    0    0 -0.50879159600E+02 -0.17290833698E+02 -0.27885098655E+02  0.60541322343E+02  0.10570000000E+00 0. -1.
         13    1    3    3    0    0  0.50879159600E+02  0.17290833698E+02 -0.13119844073E+03  0.14177695100E+03  0.10570000000E+00 0. -1.
<mgrwt>
<rscale>  0 0.12500044E+03</rscale>
<asrwt>0</asrwt>
<pdfrwt beam="1">  1        4 0.33257489E-02 0.12500044E+03</pdfrwt>
<pdfrwt beam="2">  1       -4 0.27800138E-01 0.12500044E+03</pdfrwt>
<totfact> 0.89745086E+03</totfact>
</mgrwt>
</event>
<event>
 5    1  0.1685506E-006  0.1249958E+03  0.7818608E-02  0.1235076E+00
          4   -1    0    0  501    0  0.00000000000E+00  0.00000000000E+00  0.81646625659E+01  0.82872260024E+01  0.14200000000E+01 0. -1.
         -4   -1    0    0    0  501 -0.00000000000E+00 -0.00000000000E+00 -0.47471398169E+03  0.47471610549E+03  0.14200000000E+01 0.  1.
         25    2    1    2    0    0  0.00000000000E+00  0.00000000000E+00 -0.46654931912E+03  0.48300333149E+03  0.12499580416E+03 0.  0.
        -13    1    3    3    0    0 -0.30022284041E+02  0.48661487572E+02 -0.33077848750E+03  0.33568392407E+03  0.10570000000E+00 0.  1.
         13    1    3    3    0    0  0.30022284041E+02 -0.48661487572E+02 -0.13577083162E+03  0.14731940742E+03  0.10570000000E+00 0. -1.
<mgrwt>
<rscale>  0 0.12499580E+03</rscale>
<asrwt>0</asrwt>
<pdfrwt beam="1">  1        4 0.12656936E-02 0.12499580E+03</pdfrwt>
<pdfrwt beam="2">  1       -4 0.73042490E-01 0.12499580E+03</pdfrwt>
<totfact> 0.57212933E+03</totfact>
</mgrwt>
</event>
<event>
 5    1  0.1685506E-006  0.1249930E+03  0.7818608E-02  0.1235080E+00
          4   -1    0    0  501    0  0.00000000000E+00  0.00000000000E+00  0.97456212319E+02  0.97466556929E+02  0.14200000000E+01 0. -1.
         -4   -1    0    0    0  501 -0.00000000000E+00 -0.00000000000E+00 -0.40052583015E+02  0.40077747020E+02  0.14200000000E+01 0.  1.
         25    2    1    2    0    0  0.00000000000E+00  0.00000000000E+00  0.57403629304E+02  0.13754430395E+03  0.12499303537E+03 0.  0.
        -13    1    3    3    0    0 -0.57638763074E+02 -0.21854520208E+02  0.17374666706E+02  0.64044806798E+02  0.10570000000E+00 0.  1.
         13    1    3    3    0    0  0.57638763074E+02  0.21854520208E+02  0.40028962598E+02  0.73499497150E+02  0.10570000000E+00 0. -1.
<mgrwt>
<rscale>  0 0.12499304E+03</rscale>
<asrwt>0</asrwt>
<pdfrwt beam="1">  1        4 0.14995995E-01 0.12499304E+03</pdfrwt>
<pdfrwt beam="2">  1       -4 0.61646673E-02 0.12499304E+03</pdfrwt>
<totfact> 0.10186317E+04</totfact>
</mgrwt>
</event>
<event>
 5    1  0.1685506E-006  0.1249969E+03  0.7818608E-02  0.1235074E+00
          4   -1    0    0  501    0  0.00000000000E+00  0.00000000000E+00  0.24706996073E+03  0.24707404132E+03  0.14200000000E+01 0.  1.
         -4   -1    0    0    0  501 -0.00000000000E+00 -0.00000000000E+00 -0.15773405239E+02  0.15837193969E+02  0.14200000000E+01 0.  1.
         25    2    1    2    0    0  0.00000000000E+00  0.00000000000E+00  0.23129655549E+03  0.26291123529E+03  0.12499688420E+03 0.  0.
        -13    1    3    3    0    0 -0.36945446290E+02 -0.37651270538E+02  0.45148337404E+02  0.69433188877E+02  0.10570000000E+00 0. -1.
         13    1    3    3    0    0  0.36945446290E+02  0.37651270538E+02  0.18614821809E+03  0.19347804641E+03  0.10570000000E+00 0. -1.
<mgrwt>
<rscale>  0 0.12499688E+03</rscale>
<asrwt>0</asrwt>
<pdfrwt beam="1">  1        4 0.38015983E-01 0.12499688E+03</pdfrwt>
<pdfrwt beam="2">  1       -4 0.24318985E-02 0.12499688E+03</pdfrwt>
<totfact> 0.80504820E+03</totfact>
</mgrwt>
</event>
<event>
 5    1  0.1685506E-006  0.1250025E+03  0.7818608E-02  0.1235065E+00
          4   -1    0    0  501    0  0.00000000000E+00  0.00000000000E+00  0.17896613002E+02  0.17952859297E+02  0.14200000000E+01 0. -1.
         -4   -1    0    0    0  501 -0.00000000000E+00 -0.00000000000E+00 -0.21787510236E+03  0.21787972973E+03  0.14200000000E+01 0.  1.
         25    2    1    2    0    0  0.00000000000E+00  0.00000000000E+00 -0.19997848936E+03  0.23583258903E+03  0.12500245535E+03 0.  0.
        -13    1    3    3    0    0  0.58286537223E+02 -0.22116813928E+02 -0.10840925437E+03  0.12505619331E+03  0.10570000000E+00 0.  1.
         13    1    3    3    0    0 -0.58286537223E+02  0.22116813928E+02 -0.91569234993E+02  0.11077639572E+03  0.10570000000E+00 0. -1.
<mgrwt>
<rscale>  0 0.12500246E+03</rscale>
<asrwt>0</asrwt>
<pdfrwt beam="1">  1        4 0.27580078E-02 0.12500246E+03</pdfrwt>
<pdfrwt beam="2">  1       -4 0.33523927E-01 0.12500246E+03</pdfrwt>
<totfact> 0.84417349E+03</totfact>
</mgrwt>
</event>
<event>
 5    1  0.1685506E-006  0.1250066E+03  0.7818608E-02  0.1235059E+00
         -4   -1    0    0    0  501 -0.00000000000E+00  0.00000000000E+00  0.18982996578E+02  0.19036033176E+02  0.14200000000E+01 0.  1.
          4   -1    0    0  501    0  0.00000000000E+00 -0.00000000000E+00 -0.20545556691E+03  0.20546047400E+03  0.14200000000E+01 0. -1.
         25    2    1    2    0    0  0.00000000000E+00  0.00000000000E+00 -0.18647257034E+03  0.22449650718E+03  0.12500664881E+03 0.  0.
        -13    1    3    3    0    0 -0.51571813203E+02  0.33376559532E+02 -0.72524623538E+02  0.95044614972E+02  0.10570000000E+00 0.  1.
         13    1    3    3    0    0  0.51571813203E+02 -0.33376559532E+02 -0.11394794680E+03  0.12945189220E+03  0.10570000000E+00 0. -1.
<mgrwt>
<rscale>  0 0.12500665E+03</rscale>
<asrwt>0</asrwt>
<pdfrwt beam="2">  1        4 0.31613004E-01 0.12500665E+03</pdfrwt>
<pdfrwt beam="1">  1       -4 0.29249184E-02 0.12500665E+03</pdfrwt>
<totfact> 0.86149010E+03</totfact>
</mgrwt>
</event>
<event>
 5    1  0.1685506E-006  0.1250019E+03  0.7818608E-02  0.1235066E+00
          4   -1    0    0  501    0  0.00000000000E+00  0.00000000000E+00  0.39813540645E+03  0.39813793874E+03  0.14200000000E+01 0. -1.
         -4   -1    0    0    0  501 -0.00000000000E+00 -0.00000000000E+00 -0.97577092698E+01  0.98604913769E+01  0.14200000000E+01 0.  1.
         25    2    1    2    0    0  0.00000000000E+00  0.00000000000E+00  0.38837769718E+03  0.40799843012E+03  0.12500193325E+03 0.  0.
        -13    1    3    3    0    0 -0.51408773811E+02 -0.18982802035E+02  0.29227821106E+03  0.29737143883E+03  0.10570000000E+00 0.  1.
         13    1    3    3    0    0  0.51408773811E+02  0.18982802035E+02  0.96099486115E+02  0.11062699129E+03  0.10570000000E+00 0. -1.
<mgrwt>
<rscale>  0 0.12500193E+03</rscale>
<asrwt>0</asrwt>
<pdfrwt beam="1">  1        4 0.61259688E-01 0.12500193E+03</pdfrwt>
<pdfrwt beam="2">  1       -4 0.15092875E-02 0.12500193E+03</pdfrwt>
<totfact> 0.63779521E+03</totfact>
</mgrwt>
</event>
<event>
 5    1  0.1685506E-006  0.1249994E+03  0.7818608E-02  0.1235070E+00
         -4   -1    0    0    0  501 -0.00000000000E+00  0.00000000000E+00  0.15867768188E+02  0.15931179093E+02  0.14200000000E+01 0.  1.
          4   -1    0    0  501    0  0.00000000000E+00 -0.00000000000E+00 -0.24561644214E+03  0.24562054688E+03  0.14200000000E+01 0.  1.
         25    2    1    2    0    0  0.00000000000E+00  0.00000000000E+00 -0.22974867395E+03  0.26155172597E+03  0.12499940871E+03 0.  0.
        -13    1    3    3    0    0  0.50691130469E+00 -0.41318341650E+02 -0.21298958960E+03  0.21696091530E+03  0.10570000000E+00 0. -1.
         13    1    3    3    0    0 -0.50691130469E+00  0.41318341650E+02 -0.16759084348E+02  0.44590810673E+02  0.10570000000E+00 0. -1.
<mgrwt>
<rscale>  0 0.12499941E+03</rscale>
<asrwt>0</asrwt>
<pdfrwt beam="2">  1        4 0.37792336E-01 0.12499941E+03</pdfrwt>
<pdfrwt beam="1">  1       -4 0.24463888E-02 0.12499941E+03</pdfrwt>
<totfact> 0.80689853E+03</totfact>
</mgrwt>
</event>
<event>
 5    1  0.1685506E-006  0.1250021E+03  0.7818608E-02  0.1235066E+00
          4   -1    0    0  501    0  0.00000000000E+00  0.00000000000E+00  0.10860235930E+03  0.10861164232E+03  0.14200000000E+01 0. -1.
         -4   -1    0    0    0  501 -0.00000000000E+00 -0.00000000000E+00 -0.35944739029E+02  0.35972776705E+02  0.14200000000E+01 0.  1.
         25    2    1    2    0    0  0.00000000000E+00  0.00000000000E+00  0.72657620275E+02  0.14458441902E+03  0.12500209774E+03 0.  0.
        -13    1    3    3    0    0  0.25398547431E+01  0.61056214010E+02  0.51500759457E+02  0.79916528506E+02  0.10570000000E+00 0.  1.
         13    1    3    3    0    0 -0.25398547431E+01 -0.61056214010E+02  0.21156860817E+02  0.64667890514E+02  0.10570000000E+00 0. -1.
<mgrwt>
<rscale>  0 0.12500210E+03</rscale>
<asrwt>0</asrwt>
<pdfrwt beam="1">  1        4 0.16710926E-01 0.12500210E+03</pdfrwt>
<pdfrwt beam="2">  1       -4 0.55328308E-02 0.12500210E+03</pdfrwt>
<totfact> 0.10038965E+04</totfact>
</mgrwt>
</event>
<event>
 5    1  0.1685506E-006  0.1250008E+03  0.7818608E-02  0.1235068E+00
         -4   -1    0    0    0  501 -0.00000000000E+00  0.00000000000E+00  0.48138206644E+02  0.48159145953E+02  0.14200000000E+01 0.  1.
          4   -1    0    0  501    0  0.00000000000E+00 -0.00000000000E+00 -0.81102752648E+02  0.81115182839E+02  0.14200000000E+01 0. -1.
         25    2    1    2    0    0  0.00000000000E+00  0.00000000000E+00 -0.32964546004E+02  0.12927432879E+03  0.12500076316E+03 0.  0.
        -13    1    3    3    0    0  0.54510066432E+02  0.27350849468E+02 -0.23448689259E+01  0.61032170958E+02  0.10570000000E+00 0.  1.
         13    1    3    3    0    0 -0.54510066432E+02 -0.27350849468E+02 -0.30619677078E+02  0.68242157834E+02  0.10570000000E+00 0. -1.
<mgrwt>
<rscale>  0 0.12500076E+03</rscale>
<asrwt>0</asrwt>
<pdfrwt beam="2">  1        4 0.12479913E-01 0.12500076E+03</pdfrwt>
<pdfrwt beam="1">  1       -4 0.74084448E-02 0.12500076E+03</pdfrwt>
<totfact> 0.10359877E+04</totfact>
</mgrwt>
</event>
<event>
 5    1  0.1685506E-006  0.1249848E+03  0.7818608E-02  0.1235093E+00
         -4   -1    0    0    0  501 -0.00000000000E+00  0.00000000000E+00  0.59619896826E+02  0.59636804890E+02  0.14200000000E+01 0.  1.
          4   -1    0    0  501    0  0.00000000000E+00 -0.00000000000E+00 -0.65469417787E+02  0.65484815533E+02  0.14200000000E+01 0. -1.
         25    2    1    2    0    0  0.00000000000E+00  0.00000000000E+00 -0.58495209610E+01  0.12512162042E+03  0.12498481108E+03 0.  0.
        -13    1    3    3    0    0  0.50184324250E+02 -0.22489841909E+02  0.26789882524E+02  0.61171630416E+02  0.10570000000E+00 0.  1.
         13    1    3    3    0    0 -0.50184324250E+02  0.22489841909E+02 -0.32639403485E+02  0.63949990007E+02  0.10570000000E+00 0. -1.
<mgrwt>
<rscale>  0 0.12498481E+03</rscale>
<asrwt>0</asrwt>
<pdfrwt beam="2">  1        4 0.10074703E-01 0.12498481E+03</pdfrwt>
<pdfrwt beam="1">  1       -4 0.91747768E-02 0.12498481E+03</pdfrwt>
<totfact> 0.10453810E+04</totfact>
</mgrwt>
</event>
<event>
 5    1  0.1685506E-006  0.1250010E+03  0.7818608E-02  0.1235068E+00
          4   -1    0    0  501    0  0.00000000000E+00  0.00000000000E+00  0.11787275978E+03  0.11788131276E+03  0.14200000000E+01 0. -1.
         -4   -1    0    0    0  501 -0.00000000000E+00 -0.00000000000E+00 -0.33115091290E+02  0.33145522641E+02  0.14200000000E+01 0.  1.
         25    2    1    2    0    0  0.00000000000E+00  0.00000000000E+00  0.84757668487E+02  0.15102683540E+03  0.12500097057E+03 0.  0.
        -13    1    3    3    0    0 -0.27291758495E+02  0.43648235123E+02  0.85202698877E+02  0.99546569903E+02  0.10570000000E+00 0.  1.
         13    1    3    3    0    0  0.27291758495E+02 -0.43648235123E+02 -0.44503039001E+00  0.51480265496E+02  0.10570000000E+00 0. -1.
<mgrwt>
<rscale>  0 0.12500097E+03</rscale>
<asrwt>0</asrwt>
<pdfrwt beam="1">  1        4 0.18137270E-01 0.12500097E+03</pdfrwt>
<pdfrwt beam="2">  1       -4 0.50976282E-02 0.12500097E+03</pdfrwt>
<totfact> 0.99097242E+03</totfact>
</mgrwt>
</event>
<event>
 5    1  0.1685506E-006  0.1249950E+03  0.7818608E-02  0.1235077E+00
         -4   -1    0    0    0  501 -0.00000000000E+00  0.00000000000E+00  0.16028496019E+02  0.16091273555E+02  0.14200000000E+01 0.  1.
          4   -1    0    0  501    0  0.00000000000E+00 -0.00000000000E+00 -0.24314597259E+03  0.24315011904E+03  0.14200000000E+01 0. -1.
         25    2    1    2    0    0  0.00000000000E+00  0.00000000000E+00 -0.22711747657E+03  0.25924139259E+03  0.12499500577E+03 0.  0.
        -13    1    3    3    0    0 -0.49915148459E+02 -0.29030070947E+02 -0.16314717835E+03  0.17306438120E+03  0.10570000000E+00 0.  1.
         13    1    3    3    0    0  0.49915148459E+02  0.29030070947E+02 -0.63970298221E+02  0.86177011388E+02  0.10570000000E+00 0. -1.
<mgrwt>
<rscale>  0 0.12499501E+03</rscale>
<asrwt>0</asrwt>
<pdfrwt beam="2">  1        4 0.37412218E-01 0.12499501E+03</pdfrwt>
<pdfrwt beam="1">  1       -4 0.24710706E-02 0.12499501E+03</pdfrwt>
<totfact> 0.81021647E+03</totfact>
</mgrwt>
</event>
<event>
 5    1  0.1685506E-006  0.1250002E+03  0.7818608E-02  0.1235069E+00
          4   -1    0    0  501    0  0.00000000000E+00  0.00000000000E+00  0.11299714977E+03  0.11300607177E+03  0.14200000000E+01 0.  1.
         -4   -1    0    0    0  501 -0.00000000000E+00 -0.00000000000E+00 -0.34544715378E+02  0.34573888421E+02  0.14200000000E+01 0. -1.
         25    2    1    2    0    0  0.00000000000E+00  0.00000000000E+00  0.78452434391E+02  0.14757996019E+03  0.12500024075E+03 0.  0.
        -13    1    3    3    0    0  0.37513125421E+02 -0.18802213638E+02  0.93912751310E+02  0.10286094423E+03  0.10570000000E+00 0. -1.
         13    1    3    3    0    0 -0.37513125421E+02  0.18802213638E+02 -0.15460316919E+02  0.44719015958E+02  0.10570000000E+00 0.  1.
<mgrwt>
<rscale>  0 0.12500024E+03</rscale>
<asrwt>0</asrwt>
<pdfrwt beam="1">  1        4 0.17387107E-01 0.12500024E+03</pdfrwt>
<pdfrwt beam="2">  1       -4 0.53175021E-02 0.12500024E+03</pdfrwt>
<totfact> 0.99787762E+03</totfact>
</mgrwt>
</event>
<event>
 5    1  0.1685506E-006  0.1249902E+03  0.7818608E-02  0.1235085E+00
          4   -1    0    0  501    0  0.00000000000E+00  0.00000000000E+00  0.20618042326E+02  0.20666883397E+02  0.14200000000E+01 0.  1.
         -4   -1    0    0    0  501 -0.00000000000E+00 -0.00000000000E+00 -0.18915246386E+03  0.18915779388E+03  0.14200000000E+01 0. -1.
         25    2    1    2    0    0  0.00000000000E+00  0.00000000000E+00 -0.16853442154E+03  0.20982467728E+03  0.12499017542E+03 0.  0.
        -13    1    3    3    0    0  0.55530626252E+02  0.14079900741E+02 -0.12619280887E+03  0.13858762658E+03  0.10570000000E+00 0. -1.
         13    1    3    3    0    0 -0.55530626252E+02 -0.14079900741E+02 -0.42341612665E+02  0.71237050699E+02  0.10570000000E+00 0.  1.
<mgrwt>
<rscale>  0 0.12499018E+03</rscale>
<asrwt>0</asrwt>
<pdfrwt beam="1">  1        4 0.31761737E-02 0.12499018E+03</pdfrwt>
<pdfrwt beam="2">  1       -4 0.29104545E-01 0.12499018E+03</pdfrwt>
<totfact> 0.88523965E+03</totfact>
</mgrwt>
</event>
<event>
 5    1  0.1685506E-006  0.1250024E+03  0.7818608E-02  0.1235065E+00
         -4   -1    0    0    0  501 -0.00000000000E+00  0.00000000000E+00  0.15066331222E+02  0.15133100690E+02  0.14200000000E+01 0.  1.
          4   -1    0    0  501    0  0.00000000000E+00 -0.00000000000E+00 -0.25863829069E+03  0.25864218877E+03  0.14200000000E+01 0. -1.
         25    2    1    2    0    0  0.00000000000E+00  0.00000000000E+00 -0.24357195947E+03  0.27377528946E+03  0.12500243869E+03 0.  0.
        -13    1    3    3    0    0  0.27686274772E+02 -0.50539711125E+02 -0.68785971442E+02  0.89734682542E+02  0.10570000000E+00 0.  1.
         13    1    3    3    0    0 -0.27686274772E+02  0.50539711125E+02 -0.17478598803E+03  0.18404060692E+03  0.10570000000E+00 0. -1.
<mgrwt>
<rscale>  0 0.12500244E+03</rscale>
<asrwt>0</asrwt>
<pdfrwt beam="2">  1        4 0.39795939E-01 0.12500244E+03</pdfrwt>
<pdfrwt beam="1">  1       -4 0.23233333E-02 0.12500244E+03</pdfrwt>
<totfact> 0.79006479E+03</totfact>
</mgrwt>
</event>
<event>
 5    1  0.1685506E-006  0.1249988E+03  0.7818608E-02  0.1235071E+00
         -4   -1    0    0    0  501 -0.00000000000E+00  0.00000000000E+00  0.48261210465E+02  0.48282096429E+02  0.14200000000E+01 0.  1.
          4   -1    0    0  501    0  0.00000000000E+00 -0.00000000000E+00 -0.80893583795E+02  0.80906046122E+02  0.14200000000E+01 0.  1.
         25    2    1    2    0    0  0.00000000000E+00  0.00000000000E+00 -0.32632373329E+02  0.12918814255E+03  0.12499881754E+03 0.  0.
        -13    1    3    3    0    0  0.50088288300E+02 -0.37380842255E+02 -0.16347733761E+02  0.64602039938E+02  0.10570000000E+00 0. -1.
         13    1    3    3    0    0 -0.50088288300E+02  0.37380842255E+02 -0.16284639569E+02  0.64586102614E+02  0.10570000000E+00 0. -1.
<mgrwt>
<rscale>  0 0.12499882E+03</rscale>
<asrwt>0</asrwt>
<pdfrwt beam="2">  1        4 0.12447732E-01 0.12499882E+03</pdfrwt>
<pdfrwt beam="1">  1       -4 0.74273669E-02 0.12499882E+03</pdfrwt>
<totfact> 0.10362182E+04</totfact>
</mgrwt>
</event>
<event>
 5    1  0.1685506E-006  0.1250004E+03  0.7818608E-02  0.1235069E+00
         -4   -1    0    0    0  501 -0.00000000000E+00  0.00000000000E+00  0.29985444514E+02  0.30019048664E+02  0.14200000000E+01 0.  1.
          4   -1    0    0  501    0  0.00000000000E+00 -0.00000000000E+00 -0.13016195487E+03  0.13016970038E+03  0.14200000000E+01 0. -1.
         25    2    1    2    0    0  0.00000000000E+00  0.00000000000E+00 -0.10017651036E+03  0.16018874904E+03  0.12500040837E+03 0.  0.
        -13    1    3    3    0    0 -0.70615551791E+01 -0.46074128334E+02  0.32687820313E+01  0.46726726525E+02  0.10570000000E+00 0.  1.
         13    1    3    3    0    0  0.70615551791E+01  0.46074128334E+02 -0.10344529239E+03  0.11346202252E+03  0.10570000000E+00 0. -1.
<mgrwt>
<rscale>  0 0.12500041E+03</rscale>
<asrwt>0</asrwt>
<pdfrwt beam="2">  1        4 0.20028097E-01 0.12500041E+03</pdfrwt>
<pdfrwt beam="1">  1       -4 0.46163261E-02 0.12500041E+03</pdfrwt>
<totfact> 0.97305515E+03</totfact>
</mgrwt>
</event>
<event>
 5    1  0.1685506E-006  0.1250012E+03  0.7818608E-02  0.1235067E+00
         -4   -1    0    0    0  501 -0.00000000000E+00  0.00000000000E+00  0.29703280525E+03  0.29703619947E+03  0.14200000000E+01 0.  1.
          4   -1    0    0  501    0  0.00000000000E+00 -0.00000000000E+00 -0.13109346772E+02  0.13186029455E+02  0.14200000000E+01 0.  1.
         25    2    1    2    0    0  0.00000000000E+00  0.00000000000E+00  0.28392345848E+03  0.31022222892E+03  0.12500120417E+03 0.  0.
        -13    1    3    3    0    0 -0.44909980970E+02 -0.39348231317E+02  0.18779861500E+03  0.19706222537E+03  0.10570000000E+00 0.  1.
         13    1    3    3    0    0  0.44909980970E+02  0.39348231317E+02  0.96124843472E+02  0.11316000355E+03  0.10570000000E+00 0.  1.
<mgrwt>
<rscale>  0 0.12500120E+03</rscale>
<asrwt>0</asrwt>
<pdfrwt beam="2">  1        4 0.20229826E-02 0.12500120E+03</pdfrwt>
<pdfrwt beam="1">  1       -4 0.45703509E-01 0.12500120E+03</pdfrwt>
<totfact> 0.74332231E+03</totfact>
</mgrwt>
</event>
<event>
 5    1  0.1685506E-006  0.1250001E+03  0.7818608E-02  0.1235069E+00
         -4   -1    0    0    0  501 -0.00000000000E+00  0.00000000000E+00  0.17492551392E+03  0.17493127742E+03  0.14200000000E+01 0.  1.
          4   -1    0    0  501    0  0.00000000000E+00 -0.00000000000E+00 -0.22302274766E+02  0.22347435194E+02  0.14200000000E+01 0. -1.
         25    2    1    2    0    0  0.00000000000E+00  0.00000000000E+00  0.15262323915E+03  0.19727871261E+03  0.12500014928E+03 0.  0.
        -13    1    3    3    0    0 -0.56000377138E+02  0.16403551172E+02  0.40981537488E+02  0.71306495623E+02  0.10570000000E+00 0.  1.
         13    1    3    3    0    0  0.56000377138E+02 -0.16403551172E+02  0.11164170166E+03  0.12597221699E+03  0.10570000000E+00 0. -1.
<mgrwt>
<rscale>  0 0.12500015E+03</rscale>
<asrwt>0</asrwt>
<pdfrwt beam="2">  1        4 0.34350364E-02 0.12500015E+03</pdfrwt>
<pdfrwt beam="1">  1       -4 0.26915535E-01 0.12500015E+03</pdfrwt>
<totfact> 0.90595736E+03</totfact>
</mgrwt>
</event>
<event>
 5    1  0.1685506E-006  0.1250004E+03  0.7818608E-02  0.1235069E+00
          4   -1    0    0  501    0  0.00000000000E+00  0.00000000000E+00  0.98074571498E+02  0.98084850892E+02  0.14200000000E+01 0. -1.
         -4   -1    0    0    0  501 -0.00000000000E+00 -0.00000000000E+00 -0.39804599581E+02  0.39829920259E+02  0.14200000000E+01 0. -1.
         25    2    1    2    0    0  0.00000000000E+00  0.00000000000E+00  0.58269971917E+02  0.13791477115E+03  0.12500037790E+03 0.  0.
        -13    1    3    3    0    0 -0.21983503019E+02 -0.42565828168E+02  0.73420926221E+02  0.87668510380E+02  0.10570000000E+00 0. -1.
         13    1    3    3    0    0  0.21983503019E+02  0.42565828168E+02 -0.15150954304E+02  0.50246260770E+02  0.10570000000E+00 0. -1.
<mgrwt>
<rscale>  0 0.12500038E+03</rscale>
<asrwt>0</asrwt>
<pdfrwt beam="1">  1        4 0.15091134E-01 0.12500038E+03</pdfrwt>
<pdfrwt beam="2">  1       -4 0.61265231E-02 0.12500038E+03</pdfrwt>
<totfact> 0.10176901E+04</totfact>
</mgrwt>
</event>
<event>
 5    1  0.1685506E-006  0.1250004E+03  0.7818608E-02  0.1235069E+00
         -4   -1    0    0    0  501 -0.00000000000E+00  0.00000000000E+00  0.34289969455E+03  0.34290263475E+03  0.14200000000E+01 0. -1.
          4   -1    0    0  501    0  0.00000000000E+00 -0.00000000000E+00 -0.11344643092E+02  0.11433167841E+02  0.14200000000E+01 0.  1.
         25    2    1    2    0    0  0.00000000000E+00  0.00000000000E+00  0.33155505146E+03  0.35433580260E+03  0.12500043542E+03 0.  0.
        -13    1    3    3    0    0 -0.55473905650E+02  0.28755367240E+02  0.16982693639E+03  0.18095696960E+03  0.10570000000E+00 0. -1.
         13    1    3    3    0    0  0.55473905650E+02 -0.28755367240E+02  0.16172811507E+03  0.17337883299E+03  0.10570000000E+00 0.  1.
<mgrwt>
<rscale>  0 0.12500044E+03</rscale>
<asrwt>0</asrwt>
<pdfrwt beam="2">  1        4 0.17523656E-02 0.12500044E+03</pdfrwt>
<pdfrwt beam="1">  1       -4 0.52760832E-01 0.12500044E+03</pdfrwt>
<totfact> 0.69249517E+03</totfact>
</mgrwt>
</event>
<event>
 5    1  0.1685506E-006  0.1249992E+03  0.7818608E-02  0.1235071E+00
          4   -1    0    0  501    0  0.00000000000E+00  0.00000000000E+00  0.39459559209E+02  0.39485101152E+02  0.14200000000E+01 0.  1.
         -4   -1    0    0    0  501 -0.00000000000E+00 -0.00000000000E+00 -0.98929763985E+02  0.98939954529E+02  0.14200000000E+01 0.  1.
         25    2    1    2    0    0  0.00000000000E+00  0.00000000000E+00 -0.59470204776E+02  0.13842505568E+03  0.12499916313E+03 0.  0.
        -13    1    3    3    0    0  0.54596308809E+02 -0.23334619483E+02 -0.51348717273E+02  0.78498174119E+02  0.10570000000E+00 0.  1.
         13    1    3    3    0    0 -0.54596308809E+02  0.23334619483E+02 -0.81214875022E+01  0.59926881562E+02  0.10570000000E+00 0.  1.
<mgrwt>
<rscale>  0 0.12499916E+03</rscale>
<asrwt>0</asrwt>
<pdfrwt beam="1">  1        4 0.60734501E-02 0.12499916E+03</pdfrwt>
<pdfrwt beam="2">  1       -4 0.15222712E-01 0.12499916E+03</pdfrwt>
<totfact> 0.10166524E+04</totfact>
</mgrwt>
</event>
<event>
 5    1  0.1685506E-006  0.1250005E+03  0.7818608E-02  0.1235068E+00
         -4   -1    0    0    0  501 -0.00000000000E+00  0.00000000000E+00  0.29026295517E+03  0.29026642855E+03  0.14200000000E+01 0. -1.
          4   -1    0    0  501    0  0.00000000000E+00 -0.00000000000E+00 -0.13416718943E+02  0.13491654724E+02  0.14200000000E+01 0.  1.
         25    2    1    2    0    0  0.00000000000E+00  0.00000000000E+00  0.27684623623E+03  0.30375808327E+03  0.12500053857E+03 0.  0.
        -13    1    3    3    0    0 -0.51221930718E+02  0.34086829898E+01  0.22505607304E+03  0.23083663594E+03  0.10570000000E+00 0. -1.
         13    1    3    3    0    0  0.51221930718E+02 -0.34086829898E+01  0.51790163181E+02  0.72921447332E+02  0.10570000000E+00 0.  1.
<mgrwt>
<rscale>  0 0.12500054E+03</rscale>
<asrwt>0</asrwt>
<pdfrwt beam="2">  1        4 0.20701422E-02 0.12500054E+03</pdfrwt>
<pdfrwt beam="1">  1       -4 0.44661868E-01 0.12500054E+03</pdfrwt>
<totfact> 0.75128939E+03</totfact>
</mgrwt>
</event>
<event>
 5    1  0.1685506E-006  0.1250002E+03  0.7818608E-02  0.1235069E+00
         -4   -1    0    0    0  501 -0.00000000000E+00  0.00000000000E+00  0.33166810166E+03  0.33167114143E+03  0.14200000000E+01 0.  1.
          4   -1    0    0  501    0  0.00000000000E+00 -0.00000000000E+00 -0.11731711366E+02  0.11817336907E+02  0.14200000000E+01 0. -1.
         25    2    1    2    0    0  0.00000000000E+00  0.00000000000E+00  0.31993639030E+03  0.34348847834E+03  0.12500016367E+03 0.  0.
        -13    1    3    3    0    0  0.56943383695E+02  0.17651281251E+02  0.21153314191E+03  0.21977351518E+03  0.10570000000E+00 0.  1.
         13    1    3    3    0    0 -0.56943383695E+02 -0.17651281251E+02  0.10840324839E+03  0.12371496316E+03  0.10570000000E+00 0. -1.
<mgrwt>
<rscale>  0 0.12500016E+03</rscale>
<asrwt>0</asrwt>
<pdfrwt beam="2">  1        4 0.18116995E-02 0.12500016E+03</pdfrwt>
<pdfrwt beam="1">  1       -4 0.51032672E-01 0.12500016E+03</pdfrwt>
<totfact> 0.70446644E+03</totfact>
</mgrwt>
</event>
<event>
 5    1  0.1685506E-006  0.1249996E+03  0.7818608E-02  0.1235070E+00
         -4   -1    0    0    0  501 -0.00000000000E+00  0.00000000000E+00  0.68822641960E+02  0.68837289649E+02  0.14200000000E+01 0.  1.
          4   -1    0    0  501    0  0.00000000000E+00 -0.00000000000E+00 -0.56728273101E+02  0.56746042761E+02  0.14200000000E+01 0. -1.
         25    2    1    2    0    0  0.00000000000E+00  0.00000000000E+00  0.12094368859E+02  0.12558333241E+03  0.12499959848E+03 0.  0.
        -13    1    3    3    0    0 -0.20006533158E+01 -0.25347048816E+02  0.63407924817E+02  0.68315822468E+02  0.10570000000E+00 0.  1.
         13    1    3    3    0    0  0.20006533158E+01  0.25347048816E+02 -0.51313555958E+02  0.57267509942E+02  0.10570000000E+00 0. -1.
<mgrwt>
<rscale>  0 0.12499960E+03</rscale>
<asrwt>0</asrwt>
<pdfrwt beam="2">  1        4 0.87299203E-02 0.12499960E+03</pdfrwt>
<pdfrwt beam="1">  1       -4 0.10590592E-01 0.12499960E+03</pdfrwt>
<totfact> 0.10440209E+04</totfact>
</mgrwt>
</event>
<event>
 5    1  0.1685506E-006  0.1249990E+03  0.7818608E-02  0.1235071E+00
         -4   -1    0    0    0  501 -0.00000000000E+00  0.00000000000E+00  0.19166801437E+03  0.19167327444E+03  0.14200000000E+01 0.  1.
          4   -1    0    0  501    0  0.00000000000E+00 -0.00000000000E+00 -0.20349681999E+02  0.20399165607E+02  0.14200000000E+01 0. -1.
         25    2    1    2    0    0  0.00000000000E+00  0.00000000000E+00  0.17131833237E+03  0.21207244004E+03  0.12499899527E+03 0.  0.
        -13    1    3    3    0    0 -0.62333243290E+02 -0.23761383338E+01  0.92251206761E+02  0.11136146359E+03  0.10570000000E+00 0.  1.
         13    1    3    3    0    0  0.62333243290E+02  0.23761383338E+01  0.79067125612E+02  0.10071097645E+03  0.10570000000E+00 0. -1.
<mgrwt>
<rscale>  0 0.12499900E+03</rscale>
<asrwt>0</asrwt>
<pdfrwt beam="2">  1        4 0.31349312E-02 0.12499900E+03</pdfrwt>
<pdfrwt beam="1">  1       -4 0.29491599E-01 0.12499900E+03</pdfrwt>
<totfact> 0.88140517E+03</totfact>
</mgrwt>
</event>
<event>
 5    1  0.1685506E-006  0.1250014E+03  0.7818608E-02  0.1235067E+00
         -4   -1    0    0    0  501 -0.00000000000E+00  0.00000000000E+00  0.31197662369E+03  0.31197985533E+03  0.14200000000E+01 0.  1.
          4   -1    0    0  501    0  0.00000000000E+00 -0.00000000000E+00 -0.12477685358E+02  0.12558225667E+02  0.14200000000E+01 0.  1.
         25    2    1    2    0    0  0.00000000000E+00  0.00000000000E+00  0.29949893834E+03  0.32453808100E+03  0.12500140780E+03 0.  0.
        -13    1    3    3    0    0 -0.53756592003E+02  0.15111211894E+02  0.22263996051E+03  0.22953579917E+03  0.10570000000E+00 0.  1.
         13    1    3    3    0    0  0.53756592003E+02 -0.15111211894E+02  0.76858977822E+02  0.95002281830E+02  0.10570000000E+00 0.  1.
<mgrwt>
<rscale>  0 0.12500141E+03</rscale>
<asrwt>0</asrwt>
<pdfrwt beam="2">  1        4 0.19260880E-02 0.12500141E+03</pdfrwt>
<pdfrwt beam="1">  1       -4 0.48002845E-01 0.12500141E+03</pdfrwt>
<totfact> 0.72617347E+03</totfact>
</mgrwt>
</event>
<event>
 5    1  0.1685506E-006  0.1249996E+03  0.7818608E-02  0.1235070E+00
         -4   -1    0    0    0  501 -0.00000000000E+00  0.00000000000E+00  0.24701072582E+02  0.24741854957E+02  0.14200000000E+01 0. -1.
          4   -1    0    0  501    0  0.00000000000E+00 -0.00000000000E+00 -0.15796539332E+03  0.15797177560E+03  0.14200000000E+01 0.  1.
         25    2    1    2    0    0  0.00000000000E+00  0.00000000000E+00 -0.13326432074E+03  0.18271363056E+03  0.12499956644E+03 0.  0.
        -13    1    3    3    0    0  0.34688264574E+02  0.93029221042E+01  0.81355049290E+01  0.36824145228E+02  0.10570000000E+00 0. -1.
         13    1    3    3    0    0 -0.34688264574E+02 -0.93029221042E+01 -0.14139982567E+03  0.14588948533E+03  0.10570000000E+00 0.  1.
<mgrwt>
<rscale>  0 0.12499957E+03</rscale>
<asrwt>0</asrwt>
<pdfrwt beam="2">  1        4 0.24305996E-01 0.12499957E+03</pdfrwt>
<pdfrwt beam="1">  1       -4 0.38037932E-02 0.12499957E+03</pdfrwt>
<totfact> 0.93131714E+03</totfact>
</mgrwt>
</event>
<event>
 5    1  0.1685506E-006  0.1250063E+03  0.7818608E-02  0.1235059E+00
         -4   -1    0    0    0  501 -0.00000000000E+00  0.00000000000E+00  0.13808678125E+03  0.13809408226E+03  0.14200000000E+01 0.  1.
          4   -1    0    0  501    0  0.00000000000E+00 -0.00000000000E+00 -0.28265338517E+02  0.28300985168E+02  0.14200000000E+01 0. -1.
         25    2    1    2    0    0  0.00000000000E+00  0.00000000000E+00  0.10982144273E+03  0.16639506743E+03  0.12500627657E+03 0.  0.
        -13    1    3    3    0    0  0.52909119903E+02 -0.19237760097E+02  0.91050950820E+02  0.10705023681E+03  0.10570000000E+00 0.  1.
         13    1    3    3    0    0 -0.52909119903E+02  0.19237760097E+02  0.18770491909E+02  0.59344830621E+02  0.10570000000E+00 0. -1.
<mgrwt>
<rscale>  0 0.12500628E+03</rscale>
<asrwt>0</asrwt>
<pdfrwt beam="2">  1        4 0.43518172E-02 0.12500628E+03</pdfrwt>
<pdfrwt beam="1">  1       -4 0.21247424E-01 0.12500628E+03</pdfrwt>
<totfact> 0.96110288E+03</totfact>
</mgrwt>
</event>
<event>
 5    1  0.1685506E-006  0.1249995E+03  0.7818608E-02  0.1235070E+00
         -4   -1    0    0    0  501 -0.00000000000E+00  0.00000000000E+00  0.29547498432E+02  0.29581600085E+02  0.14200000000E+01 0.  1.
          4   -1    0    0  501    0  0.00000000000E+00 -0.00000000000E+00 -0.13208711921E+03  0.13209475183E+03  0.14200000000E+01 0. -1.
         25    2    1    2    0    0  0.00000000000E+00  0.00000000000E+00 -0.10253962078E+03  0.16167635192E+03  0.12499947576E+03 0.  0.
        -13    1    3    3    0    0  0.14976827173E+00  0.56583899227E+02 -0.16940730986E+02  0.59065722895E+02  0.10570000000E+00 0.  1.
         13    1    3    3    0    0 -0.14976827173E+00 -0.56583899227E+02 -0.85598889795E+02  0.10261062902E+03  0.10570000000E+00 0. -1.
<mgrwt>
<rscale>  0 0.12499948E+03</rscale>
<asrwt>0</asrwt>
<pdfrwt beam="2">  1        4 0.20324305E-01 0.12499948E+03</pdfrwt>
<pdfrwt beam="1">  1       -4 0.45489794E-02 0.12499948E+03</pdfrwt>
<totfact> 0.97021711E+03</totfact>
</mgrwt>
</event>
<event>
 5    1  0.1685506E-006  0.1250008E+03  0.7818608E-02  0.1235068E+00
          4   -1    0    0  501    0  0.00000000000E+00  0.00000000000E+00  0.50790818009E+02  0.50810664176E+02  0.14200000000E+01 0. -1.
         -4   -1    0    0    0  501 -0.00000000000E+00 -0.00000000000E+00 -0.76868122604E+02  0.76881237455E+02  0.14200000000E+01 0.  1.
         25    2    1    2    0    0  0.00000000000E+00  0.00000000000E+00 -0.26077304595E+02  0.12769190163E+03  0.12500078371E+03 0.  0.
        -13    1    3    3    0    0  0.25750151029E+02 -0.43497723437E+02 -0.50588216987E+02  0.71514341867E+02  0.10570000000E+00 0.  1.
         13    1    3    3    0    0 -0.25750151029E+02  0.43497723437E+02  0.24510912393E+02  0.56177559764E+02  0.10570000000E+00 0. -1.
<mgrwt>
<rscale>  0 0.12500078E+03</rscale>
<asrwt>0</asrwt>
<pdfrwt beam="1">  1        4 0.78165074E-02 0.12500078E+03</pdfrwt>
<pdfrwt beam="2">  1       -4 0.11828401E-01 0.12500078E+03</pdfrwt>
<totfact> 0.10393963E+04</totfact>
</mgrwt>
</event>
<event>
 5    1  0.1685506E-006  0.1249950E+03  0.7818608E-02  0.1235077E+00
         -4   -1    0    0    0  501 -0.00000000000E+00  0.00000000000E+00  0.83709481846E+02  0.83721525016E+02  0.14200000000E+01 0.  1.
          4   -1    0    0  501    0  0.00000000000E+00 -0.00000000000E+00 -0.46634443369E+02  0.46656057574E+02  0.14200000000E+01 0. -1.
         25    2    1    2    0    0  0.00000000000E+00  0.00000000000E+00  0.37075038477E+02  0.13037758259E+03  0.12499502216E+03 0.  0.
        -13    1    3    3    0    0  0.27801223114E+02  0.22401909158E+02  0.72041365754E+02  0.80403501745E+02  0.10570000000E+00 0.  1.
         13    1    3    3    0    0 -0.27801223114E+02 -0.22401909158E+02 -0.34966327277E+02  0.49974080845E+02  0.10570000000E+00 0. -1.
<mgrwt>
<rscale>  0 0.12499502E+03</rscale>
<asrwt>0</asrwt>
<pdfrwt beam="2">  1        4 0.71771187E-02 0.12499502E+03</pdfrwt>
<pdfrwt beam="1">  1       -4 0.12880971E-01 0.12499502E+03</pdfrwt>
<totfact> 0.10337598E+04</totfact>
</mgrwt>
</event>
<event>
 5    1  0.1685506E-006  0.1249992E+03  0.7818608E-02  0.1235071E+00
          4   -1    0    0  501    0  0.00000000000E+00  0.00000000000E+00  0.25789005594E+02  0.25828070186E+02  0.14200000000E+01 0. -1.
         -4   -1    0    0    0  501 -0.00000000000E+00 -0.00000000000E+00 -0.15131054439E+03  0.15131720736E+03  0.14200000000E+01 0. -1.
         25    2    1    2    0    0  0.00000000000E+00  0.00000000000E+00 -0.12552153880E+03  0.17714527755E+03  0.12499917062E+03 0.  0.
        -13    1    3    3    0    0 -0.50051727827E+02 -0.29973630746E+02 -0.94531753143E+02  0.11108491132E+03  0.10570000000E+00 0.  1.
         13    1    3    3    0    0  0.50051727827E+02  0.29973630746E+02 -0.30989785654E+02  0.66060366226E+02  0.10570000000E+00 0.  1.
<mgrwt>
<rscale>  0 0.12499917E+03</rscale>
<asrwt>0</asrwt>
<pdfrwt beam="1">  1        4 0.39710569E-02 0.12499917E+03</pdfrwt>
<pdfrwt beam="2">  1       -4 0.23282062E-01 0.12499917E+03</pdfrwt>
<totfact> 0.94135152E+03</totfact>
</mgrwt>
</event>
<event>
 5    1  0.1685506E-006  0.1250032E+03  0.7818608E-02  0.1235064E+00
          4   -1    0    0  501    0  0.00000000000E+00  0.00000000000E+00  0.19799914624E+02  0.19850768728E+02  0.14200000000E+01 0. -1.
         -4   -1    0    0    0  501 -0.00000000000E+00 -0.00000000000E+00 -0.19698974551E+03  0.19699486348E+03  0.14200000000E+01 0.  1.
         25    2    1    2    0    0  0.00000000000E+00  0.00000000000E+00 -0.17718983089E+03  0.21684563221E+03  0.12500316811E+03 0.  0.
        -13    1    3    3    0    0  0.60544012855E+01 -0.58605872032E+02 -0.12478091571E+03  0.13799127548E+03  0.10570000000E+00 0.  1.
         13    1    3    3    0    0 -0.60544012855E+01  0.58605872032E+02 -0.52408915179E+02  0.78854356724E+02  0.10570000000E+00 0. -1.
<mgrwt>
<rscale>  0 0.12500317E+03</rscale>
<asrwt>0</asrwt>
<pdfrwt beam="1">  1        4 0.30504464E-02 0.12500317E+03</pdfrwt>
<pdfrwt beam="2">  1       -4 0.30310419E-01 0.12500317E+03</pdfrwt>
<totfact> 0.87363777E+03</totfact>
</mgrwt>
</event>
<event>
 5    1  0.1685506E-006  0.1250012E+03  0.7818608E-02  0.1235067E+00
          4   -1    0    0  501    0  0.00000000000E+00  0.00000000000E+00  0.25086870559E+02  0.25127026773E+02  0.14200000000E+01 0.  1.
         -4   -1    0    0    0  501 -0.00000000000E+00 -0.00000000000E+00 -0.15554403695E+03  0.15555051858E+03  0.14200000000E+01 0.  1.
         25    2    1    2    0    0  0.00000000000E+00  0.00000000000E+00 -0.13045716639E+03  0.18067754535E+03  0.12500121252E+03 0.  0.
        -13    1    3    3    0    0  0.53216085349E+02 -0.32177430239E+02 -0.74252348164E+02  0.96854329469E+02  0.10570000000E+00 0. -1.
         13    1    3    3    0    0 -0.53216085349E+02  0.32177430239E+02 -0.56204818224E+02  0.83823215881E+02  0.10570000000E+00 0. -1.
<mgrwt>
<rscale>  0 0.12500121E+03</rscale>
<asrwt>0</asrwt>
<pdfrwt beam="1">  1        4 0.38631062E-02 0.12500121E+03</pdfrwt>
<pdfrwt beam="2">  1       -4 0.23933439E-01 0.12500121E+03</pdfrwt>
<totfact> 0.93492644E+03</totfact>
</mgrwt>
</event>
<event>
 5    1  0.1685506E-006  0.1249926E+03  0.7818608E-02  0.1235081E+00
          4   -1    0    0  501    0  0.00000000000E+00  0.00000000000E+00  0.42468462482E+02  0.42492195819E+02  0.14200000000E+01 0.  1.
         -4   -1    0    0    0  501 -0.00000000000E+00 -0.00000000000E+00 -0.91914159340E+02  0.91925127616E+02  0.14200000000E+01 0. -1.
         25    2    1    2    0    0  0.00000000000E+00  0.00000000000E+00 -0.49445696858E+02  0.13441732343E+03  0.12499255938E+03 0.  0.
        -13    1    3    3    0    0 -0.20524208312E+02 -0.43828388823E+02 -0.67246870142E+02  0.82851213087E+02  0.10570000000E+00 0. -1.
         13    1    3    3    0    0  0.20524208312E+02  0.43828388823E+02  0.17801173284E+02  0.51566110348E+02  0.10570000000E+00 0.  1.
<mgrwt>
<rscale>  0 0.12499256E+03</rscale>
<asrwt>0</asrwt>
<pdfrwt beam="1">  1        4 0.65362790E-02 0.12499256E+03</pdfrwt>
<pdfrwt beam="2">  1       -4 0.14143309E-01 0.12499256E+03</pdfrwt>
<totfact> 0.10252087E+04</totfact>
</mgrwt>
</event>
<event>
 5    1  0.1685506E-006  0.1250090E+03  0.7818608E-02  0.1235055E+00
         -4   -1    0    0    0  501 -0.00000000000E+00  0.00000000000E+00  0.13490747383E+02  0.13565274231E+02  0.14200000000E+01 0.  1.
          4   -1    0    0  501    0  0.00000000000E+00 -0.00000000000E+00 -0.28871824928E+03  0.28872174125E+03  0.14200000000E+01 0. -1.
         25    2    1    2    0    0  0.00000000000E+00  0.00000000000E+00 -0.27522750190E+03  0.30228701548E+03  0.12500904737E+03 0.  0.
        -13    1    3    3    0    0  0.49426861724E+02 -0.37144763970E+02 -0.15978360408E+03  0.17132880510E+03  0.10570000000E+00 0.  1.
         13    1    3    3    0    0 -0.49426861724E+02  0.37144763970E+02 -0.11544389782E+03  0.13095821038E+03  0.10570000000E+00 0. -1.
<mgrwt>
<rscale>  0 0.12500905E+03</rscale>
<asrwt>0</asrwt>
<pdfrwt beam="2">  1        4 0.44424189E-01 0.12500905E+03</pdfrwt>
<pdfrwt beam="1">  1       -4 0.20815013E-02 0.12500905E+03</pdfrwt>
<totfact> 0.75297732E+03</totfact>
</mgrwt>
</event>
<event>
 5    1  0.1685506E-006  0.1250049E+03  0.7818608E-02  0.1235062E+00
          4   -1    0    0  501    0  0.00000000000E+00  0.00000000000E+00  0.27130020831E+02  0.27167157199E+02  0.14200000000E+01 0. -1.
         -4   -1    0    0    0  501 -0.00000000000E+00 -0.00000000000E+00 -0.14385464415E+03  0.14386165244E+03  0.14200000000E+01 0.  1.
         25    2    1    2    0    0  0.00000000000E+00  0.00000000000E+00 -0.11672462332E+03  0.17102880964E+03  0.12500486406E+03 0.  0.
        -13    1    3    3    0    0 -0.55943405409E+02 -0.24179610428E+02 -0.77331420154E+02  0.98460539735E+02  0.10570000000E+00 0.  1.
         13    1    3    3    0    0  0.55943405409E+02  0.24179610428E+02 -0.39393203165E+02  0.72568269907E+02  0.10570000000E+00 0. -1.
<mgrwt>
<rscale>  0 0.12500486E+03</rscale>
<asrwt>0</asrwt>
<pdfrwt beam="1">  1        4 0.41772452E-02 0.12500486E+03</pdfrwt>
<pdfrwt beam="2">  1       -4 0.22134879E-01 0.12500486E+03</pdfrwt>
<totfact> 0.95246830E+03</totfact>
</mgrwt>
</event>
<event>
 5    1  0.1685506E-006  0.1249979E+03  0.7818608E-02  0.1235073E+00
         -4   -1    0    0    0  501 -0.00000000000E+00  0.00000000000E+00  0.13768156256E+03  0.13768888506E+03  0.14200000000E+01 0.  1.
          4   -1    0    0  501    0  0.00000000000E+00 -0.00000000000E+00 -0.28344814266E+02  0.28380361093E+02  0.14200000000E+01 0. -1.
         25    2    1    2    0    0  0.00000000000E+00  0.00000000000E+00  0.10933674829E+03  0.16606924615E+03  0.12499787994E+03 0.  0.
        -13    1    3    3    0    0 -0.30018608234E+02  0.52131496965E+02  0.77187511065E+02  0.97860783018E+02  0.10570000000E+00 0.  1.
         13    1    3    3    0    0  0.30018608234E+02 -0.52131496965E+02  0.32149237228E+02  0.68208463133E+02  0.10570000000E+00 0. -1.
<mgrwt>
<rscale>  0 0.12499788E+03</rscale>
<asrwt>0</asrwt>
<pdfrwt beam="2">  1        4 0.43640383E-02 0.12499788E+03</pdfrwt>
<pdfrwt beam="1">  1       -4 0.21185076E-01 0.12499788E+03</pdfrwt>
<totfact> 0.96189857E+03</totfact>
</mgrwt>
</event>
<event>
 5    1  0.1685506E-006  0.1249978E+03  0.7818608E-02  0.1235073E+00
         -4   -1    0    0    0  501 -0.00000000000E+00  0.00000000000E+00  0.37007311345E+02  0.37034544590E+02  0.14200000000E+01 0.  1.
          4   -1    0    0  501    0  0.00000000000E+00 -0.00000000000E+00 -0.10547896924E+03  0.10548852711E+03  0.14200000000E+01 0. -1.
         25    2    1    2    0    0  0.00000000000E+00  0.00000000000E+00 -0.68471657899E+02  0.14252307170E+03  0.12499783211E+03 0.  0.
        -13    1    3    3    0    0  0.25628230964E+02 -0.48137588724E+02  0.57440000908E+00  0.54537828875E+02  0.10570000000E+00 0.  1.
         13    1    3    3    0    0 -0.25628230964E+02  0.48137588724E+02 -0.69046057908E+02  0.87985242829E+02  0.10570000000E+00 0. -1.
<mgrwt>
<rscale>  0 0.12499783E+03</rscale>
<asrwt>0</asrwt>
<pdfrwt beam="2">  1        4 0.16230364E-01 0.12499783E+03</pdfrwt>
<pdfrwt beam="1">  1       -4 0.56962627E-02 0.12499783E+03</pdfrwt>
<totfact> 0.10082051E+04</totfact>
</mgrwt>
</event>
<event>
 5    1  0.1685506E-006  0.1250002E+03  0.7818608E-02  0.1235069E+00
          4   -1    0    0  501    0  0.00000000000E+00  0.00000000000E+00  0.62749673115E+02  0.62765738074E+02  0.14200000000E+01 0.  1.
         -4   -1    0    0    0  501 -0.00000000000E+00 -0.00000000000E+00 -0.62219400600E+02  0.62235602440E+02  0.14200000000E+01 0.  1.
         25    2    1    2    0    0  0.00000000000E+00  0.00000000000E+00  0.53027251499E+00  0.12500134051E+03  0.12500021577E+03 0.  0.
        -13    1    3    3    0    0  0.50258566600E+02  0.10397725699E+02 -0.35403323077E+02  0.62349359851E+02  0.10570000000E+00 0.  1.
         13    1    3    3    0    0 -0.50258566600E+02 -0.10397725699E+02  0.35933595592E+02  0.62651980663E+02  0.10570000000E+00 0.  1.
<mgrwt>
<rscale>  0 0.12500022E+03</rscale>
<asrwt>0</asrwt>
<pdfrwt beam="1">  1        4 0.96562780E-02 0.12500022E+03</pdfrwt>
<pdfrwt beam="2">  1       -4 0.95746975E-02 0.12500022E+03</pdfrwt>
<totfact> 0.10452782E+04</totfact>
</mgrwt>
</event>
<event>
 5    1  0.1685506E-006  0.1249996E+03  0.7818608E-02  0.1235070E+00
          4   -1    0    0  501    0  0.00000000000E+00  0.00000000000E+00  0.83648593281E+02  0.83660645215E+02  0.14200000000E+01 0.  1.
         -4   -1    0    0    0  501 -0.00000000000E+00 -0.00000000000E+00 -0.46671811990E+02  0.46693408897E+02  0.14200000000E+01 0.  1.
         25    2    1    2    0    0  0.00000000000E+00  0.00000000000E+00  0.36976781290E+02  0.13035405411E+03  0.12499958828E+03 0.  0.
        -13    1    3    3    0    0  0.40815800498E+02 -0.47168055645E+02  0.22588480079E+02  0.66340075734E+02  0.10570000000E+00 0. -1.
         13    1    3    3    0    0 -0.40815800498E+02  0.47168055645E+02  0.14388301211E+02  0.64013978379E+02  0.10570000000E+00 0. -1.
<mgrwt>
<rscale>  0 0.12499959E+03</rscale>
<asrwt>0</asrwt>
<pdfrwt beam="1">  1        4 0.12871603E-01 0.12499959E+03</pdfrwt>
<pdfrwt beam="2">  1       -4 0.71828671E-02 0.12499959E+03</pdfrwt>
<totfact> 0.10337035E+04</totfact>
</mgrwt>
</event>
<event>
 5    1  0.1685506E-006  0.1249972E+03  0.7818608E-02  0.1235074E+00
          4   -1    0    0  501    0  0.00000000000E+00  0.00000000000E+00  0.23570849776E+02  0.23613584208E+02  0.14200000000E+01 0.  1.
         -4   -1    0    0    0  501 -0.00000000000E+00 -0.00000000000E+00 -0.16552042656E+03  0.16552651753E+03  0.14200000000E+01 0.  1.
         25    2    1    2    0    0  0.00000000000E+00  0.00000000000E+00 -0.14194957678E+03  0.18914010174E+03  0.12499718293E+03 0.  0.
        -13    1    3    3    0    0 -0.80645011618E+01  0.61637533031E+02 -0.61186991091E+02  0.87224312599E+02  0.10570000000E+00 0.  1.
         13    1    3    3    0    0  0.80645011618E+01 -0.61637533031E+02 -0.80762585690E+02  0.10191578914E+03  0.10570000000E+00 0.  1.
<mgrwt>
<rscale>  0 0.12499718E+03</rscale>
<asrwt>0</asrwt>
<pdfrwt beam="1">  1        4 0.36300405E-02 0.12499718E+03</pdfrwt>
<pdfrwt beam="2">  1       -4 0.25468436E-01 0.12499718E+03</pdfrwt>
<totfact> 0.92002956E+03</totfact>
</mgrwt>
</event>
<event>
 5    1  0.1685506E-006  0.1249996E+03  0.7818608E-02  0.1235070E+00
         -4   -1    0    0    0  501 -0.00000000000E+00  0.00000000000E+00  0.90389847966E+02  0.90401001185E+02  0.14200000000E+01 0.  1.
          4   -1    0    0  501    0  0.00000000000E+00 -0.00000000000E+00 -0.43189807303E+02  0.43213144469E+02  0.14200000000E+01 0. -1.
         25    2    1    2    0    0  0.00000000000E+00  0.00000000000E+00  0.47200040663E+02  0.13361414565E+03  0.12499958432E+03 0.  0.
        -13    1    3    3    0    0 -0.55404851832E+02 -0.19783000205E+02  0.46152596264E+02  0.74773912684E+02  0.10570000000E+00 0.  1.
         13    1    3    3    0    0  0.55404851832E+02  0.19783000205E+02  0.10474443982E+01  0.58840232970E+02  0.10570000000E+00 0. -1.
<mgrwt>
<rscale>  0 0.12499958E+03</rscale>
<asrwt>0</asrwt>
<pdfrwt beam="2">  1        4 0.66472388E-02 0.12499958E+03</pdfrwt>
<pdfrwt beam="1">  1       -4 0.13908784E-01 0.12499958E+03</pdfrwt>
<totfact> 0.10267461E+04</totfact>
</mgrwt>
</event>
<event>
 5    1  0.1685506E-006  0.1249998E+03  0.7818608E-02  0.1235070E+00
         -4   -1    0    0    0  501 -0.00000000000E+00  0.00000000000E+00  0.35019990389E+02  0.35048767837E+02  0.14200000000E+01 0.  1.
          4   -1    0    0  501    0  0.00000000000E+00 -0.00000000000E+00 -0.11146393277E+03  0.11147297749E+03  0.14200000000E+01 0.  1.
         25    2    1    2    0    0  0.00000000000E+00  0.00000000000E+00 -0.76443942385E+02  0.14652174532E+03  0.12499978210E+03 0.  0.
        -13    1    3    3    0    0 -0.16816143674E+02  0.29359273999E+02  0.23375577356E+02  0.41123940072E+02  0.10570000000E+00 0.  1.
         13    1    3    3    0    0  0.16816143674E+02 -0.29359273999E+02 -0.99819519741E+02  0.10539780525E+03  0.10570000000E+00 0.  1.
<mgrwt>
<rscale>  0 0.12499978E+03</rscale>
<asrwt>0</asrwt>
<pdfrwt beam="2">  1        4 0.17151207E-01 0.12499978E+03</pdfrwt>
<pdfrwt beam="1">  1       -4 0.53906003E-02 0.12499978E+03</pdfrwt>
<totfact> 0.10000210E+04</totfact>
</mgrwt>
</event>
<event>
 5    1  0.1685506E-006  0.1249979E+03  0.7818608E-02  0.1235073E+00
          4   -1    0    0  501    0  0.00000000000E+00  0.00000000000E+00  0.10295678741E+03  0.10296657940E+03  0.14200000000E+01 0. -1.
         -4   -1    0    0    0  501 -0.00000000000E+00 -0.00000000000E+00 -0.37914483247E+02  0.37941065350E+02  0.14200000000E+01 0.  1.
         25    2    1    2    0    0  0.00000000000E+00  0.00000000000E+00  0.65042304164E+02  0.14090764475E+03  0.12499785206E+03 0.  0.
        -13    1    3    3    0    0 -0.30659163948E+02  0.17388893303E+02 -0.25659483711E+02  0.43597915329E+02  0.10570000000E+00 0.  1.
         13    1    3    3    0    0  0.30659163948E+02 -0.17388893303E+02  0.90701787875E+02  0.97309729423E+02  0.10570000000E+00 0. -1.
<mgrwt>
<rscale>  0 0.12499785E+03</rscale>
<asrwt>0</asrwt>
<pdfrwt beam="1">  1        4 0.15842304E-01 0.12499785E+03</pdfrwt>
<pdfrwt beam="2">  1       -4 0.58357955E-02 0.12499785E+03</pdfrwt>
<totfact> 0.10115298E+04</totfact>
</mgrwt>
</event>
<event>
 5    1  0.1685506E-006  0.1250040E+03  0.7818608E-02  0.1235063E+00
         -4   -1    0    0    0  501 -0.00000000000E+00  0.00000000000E+00  0.11425553195E+03  0.11426435569E+03  0.14200000000E+01 0.  1.
          4   -1    0    0  501    0  0.00000000000E+00 -0.00000000000E+00 -0.34166029366E+02  0.34195525476E+02  0.14200000000E+01 0. -1.
         25    2    1    2    0    0  0.00000000000E+00  0.00000000000E+00  0.80089502585E+02  0.14845988117E+03  0.12500403150E+03 0.  0.
        -13    1    3    3    0    0 -0.42775776894E+02 -0.41701873242E+02  0.18220661604E+02  0.62456520897E+02  0.10570000000E+00 0.  1.
         13    1    3    3    0    0  0.42775776894E+02  0.41701873242E+02  0.61868840981E+02  0.86003360269E+02  0.10570000000E+00 0. -1.
<mgrwt>
<rscale>  0 0.12500403E+03</rscale>
<asrwt>0</asrwt>
<pdfrwt beam="2">  1        4 0.52592598E-02 0.12500403E+03</pdfrwt>
<pdfrwt beam="1">  1       -4 0.17580722E-01 0.12500403E+03</pdfrwt>
<totfact> 0.99602548E+03</totfact>
</mgrwt>
</event>
<event>
 5    1  0.1685506E-006  0.1250002E+03  0.7818608E-02  0.1235069E+00
          4   -1    0    0  501    0  0.00000000000E+00  0.00000000000E+00  0.33277535075E+03  0.33277838041E+03  0.14200000000E+01 0. -1.
         -4   -1    0    0    0  501 -0.00000000000E+00 -0.00000000000E+00 -0.11692395438E+02  0.11778306800E+02  0.14200000000E+01 0.  1.
         25    2    1    2    0    0  0.00000000000E+00  0.00000000000E+00  0.32108295532E+03  0.34455668721E+03  0.12500018603E+03 0.  0.
        -13    1    3    3    0    0 -0.24583493872E+02  0.54671120924E+02  0.11177718286E+03  0.12683623069E+03  0.10570000000E+00 0.  1.
         13    1    3    3    0    0  0.24583493872E+02 -0.54671120924E+02  0.20930577245E+03  0.21772045652E+03  0.10570000000E+00 0. -1.
<mgrwt>
<rscale>  0 0.12500019E+03</rscale>
<asrwt>0</asrwt>
<pdfrwt beam="1">  1        4 0.51203050E-01 0.12500019E+03</pdfrwt>
<pdfrwt beam="2">  1       -4 0.18056716E-02 0.12500019E+03</pdfrwt>
<totfact> 0.70327275E+03</totfact>
</mgrwt>
</event>
<event>
 5    1  0.1685506E-006  0.1249992E+03  0.7818608E-02  0.1235071E+00
          4   -1    0    0  501    0  0.00000000000E+00  0.00000000000E+00  0.55650115611E+02  0.55668229427E+02  0.14200000000E+01 0.  1.
         -4   -1    0    0    0  501 -0.00000000000E+00 -0.00000000000E+00 -0.70155365364E+02  0.70169734853E+02  0.14200000000E+01 0. -1.
         25    2    1    2    0    0  0.00000000000E+00  0.00000000000E+00 -0.14505249754E+02  0.12583796428E+03  0.12499916393E+03 0.  0.
        -13    1    3    3    0    0 -0.13665271620E+02 -0.37674399911E+02 -0.55533669914E+02  0.68484302754E+02  0.10570000000E+00 0. -1.
         13    1    3    3    0    0  0.13665271620E+02  0.37674399911E+02  0.41028420160E+02  0.57353661526E+02  0.10570000000E+00 0.  1.
<mgrwt>
<rscale>  0 0.12499916E+03</rscale>
<asrwt>0</asrwt>
<pdfrwt beam="1">  1        4 0.85640550E-02 0.12499916E+03</pdfrwt>
<pdfrwt beam="2">  1       -4 0.10795632E-01 0.12499916E+03</pdfrwt>
<totfact> 0.10434708E+04</totfact>
</mgrwt>
</event>
<event>
 5    1  0.1685506E-006  0.1250033E+03  0.7818608E-02  0.1235064E+00
          4   -1    0    0  501    0  0.00000000000E+00  0.00000000000E+00  0.88743457583E+01  0.89872360956E+01  0.14200000000E+01 0. -1.
         -4   -1    0    0    0  501 -0.00000000000E+00 -0.00000000000E+00 -0.43730024093E+03  0.43730254643E+03  0.14200000000E+01 0.  1.
         25    2    1    2    0    0  0.00000000000E+00  0.00000000000E+00 -0.42842589517E+03  0.44628978253E+03  0.12500328930E+03 0.  0.
        -13    1    3    3    0    0  0.51397672999E+02  0.33912426149E+02 -0.25244452831E+03  0.25984615542E+03  0.10570000000E+00 0.  1.
         13    1    3    3    0    0 -0.51397672999E+02 -0.33912426149E+02 -0.17598136686E+03  0.18644362711E+03  0.10570000000E+00 0. -1.
<mgrwt>
<rscale>  0 0.12500329E+03</rscale>
<asrwt>0</asrwt>
<pdfrwt beam="1">  1        4 0.13741455E-02 0.12500329E+03</pdfrwt>
<pdfrwt beam="2">  1       -4 0.67285805E-01 0.12500329E+03</pdfrwt>
<totfact> 0.60282202E+03</totfact>
</mgrwt>
</event>
<event>
 5    1  0.1685506E-006  0.1249991E+03  0.7818608E-02  0.1235071E+00
          4   -1    0    0  501    0  0.00000000000E+00  0.00000000000E+00  0.59369004547E+02  0.59385984044E+02  0.14200000000E+01 0. -1.
         -4   -1    0    0    0  501 -0.00000000000E+00 -0.00000000000E+00 -0.65761092649E+02  0.65776422116E+02  0.14200000000E+01 0. -1.
         25    2    1    2    0    0  0.00000000000E+00  0.00000000000E+00 -0.63920881018E+01  0.12516240616E+03  0.12499907650E+03 0.  0.
        -13    1    3    3    0    0  0.28258917858E+02  0.53532829505E+02 -0.18767918561E+02  0.63376464188E+02  0.10570000000E+00 0. -1.
         13    1    3    3    0    0 -0.28258917858E+02 -0.53532829505E+02  0.12375830459E+02  0.61785941972E+02  0.10570000000E+00 0. -1.
<mgrwt>
<rscale>  0 0.12499908E+03</rscale>
<asrwt>0</asrwt>
<pdfrwt beam="1">  1        4 0.91361783E-02 0.12499908E+03</pdfrwt>
<pdfrwt beam="2">  1       -4 0.10119577E-01 0.12499908E+03</pdfrwt>
<totfact> 0.10449554E+04</totfact>
</mgrwt>
</event>
<event>
 5    1  0.1685506E-006  0.1250025E+03  0.7818608E-02  0.1235065E+00
         -4   -1    0    0    0  501 -0.00000000000E+00  0.00000000000E+00  0.12783210030E+02  0.12861837298E+02  0.14200000000E+01 0.  1.
          4   -1    0    0  501    0  0.00000000000E+00 -0.00000000000E+00 -0.30457146292E+03  0.30457477312E+03  0.14200000000E+01 0. -1.
         25    2    1    2    0    0  0.00000000000E+00  0.00000000000E+00 -0.29178825289E+03  0.31743661042E+03  0.12500246843E+03 0.  0.
        -13    1    3    3    0    0  0.42207967075E+02  0.40257468291E+02 -0.88871514135E+02  0.10630302646E+03  0.10570000000E+00 0.  1.
         13    1    3    3    0    0 -0.42207967075E+02 -0.40257468291E+02 -0.20291673875E+03  0.21113358396E+03  0.10570000000E+00 0. -1.
<mgrwt>
<rscale>  0 0.12500247E+03</rscale>
<asrwt>0</asrwt>
<pdfrwt beam="2">  1        4 0.46863446E-01 0.12500247E+03</pdfrwt>
<pdfrwt beam="1">  1       -4 0.19729508E-02 0.12500247E+03</pdfrwt>
<totfact> 0.73458029E+03</totfact>
</mgrwt>
</event>
<event>
 5    1  0.1685506E-006  0.1249591E+03  0.7818608E-02  0.1235133E+00
         -4   -1    0    0    0  501 -0.00000000000E+00  0.00000000000E+00  0.18912661123E+02  0.18965894409E+02  0.14200000000E+01 0.  1.
          4   -1    0    0  501    0  0.00000000000E+00 -0.00000000000E+00 -0.20606077315E+03  0.20606566582E+03  0.14200000000E+01 0. -1.
         25    2    1    2    0    0  0.00000000000E+00  0.00000000000E+00 -0.18714811203E+03  0.22503156023E+03  0.12495914238E+03 0.  0.
        -13    1    3    3    0    0 -0.29059487530E+02 -0.24495199294E+02 -0.42694569318E+01  0.38245366241E+02  0.10570000000E+00 0.  1.
         13    1    3    3    0    0  0.29059487530E+02  0.24495199294E+02 -0.18287865509E+03  0.18678619399E+03  0.10570000000E+00 0. -1.
<mgrwt>
<rscale>  0 0.12495914E+03</rscale>
<asrwt>0</asrwt>
<pdfrwt beam="2">  1        4 0.31706127E-01 0.12495914E+03</pdfrwt>
<pdfrwt beam="1">  1       -4 0.29141116E-02 0.12495914E+03</pdfrwt>
<totfact> 0.86156941E+03</totfact>
</mgrwt>
</event>
<event>
 5    1  0.1685506E-006  0.1249970E+03  0.7818608E-02  0.1235074E+00
         -4   -1    0    0    0  501 -0.00000000000E+00  0.00000000000E+00  0.22113235480E+02  0.22158781181E+02  0.14200000000E+01 0.  1.
          4   -1    0    0  501    0  0.00000000000E+00 -0.00000000000E+00 -0.17640887011E+03  0.17641458515E+03  0.14200000000E+01 0. -1.
         25    2    1    2    0    0  0.00000000000E+00  0.00000000000E+00 -0.15429563463E+03  0.19857336633E+03  0.12499695576E+03 0.  0.
        -13    1    3    3    0    0 -0.32587229190E+02  0.29816604072E+02 -0.69044907723E+01  0.44706157853E+02  0.10570000000E+00 0.  1.
         13    1    3    3    0    0  0.32587229190E+02 -0.29816604072E+02 -0.14739114386E+03  0.15386720848E+03  0.10570000000E+00 0. -1.
<mgrwt>
<rscale>  0 0.12499696E+03</rscale>
<asrwt>0</asrwt>
<pdfrwt beam="2">  1        4 0.27143768E-01 0.12499696E+03</pdfrwt>
<pdfrwt beam="1">  1       -4 0.34059795E-02 0.12499696E+03</pdfrwt>
<totfact> 0.90382763E+03</totfact>
</mgrwt>
</event>
<event>
 5    1  0.1685506E-006  0.1249994E+03  0.7818608E-02  0.1235070E+00
          4   -1    0    0  501    0  0.00000000000E+00  0.00000000000E+00  0.17093110413E+03  0.17093700231E+03  0.14200000000E+01 0. -1.
         -4   -1    0    0    0  501 -0.00000000000E+00 -0.00000000000E+00 -0.22824197342E+02  0.22868327099E+02  0.14200000000E+01 0.  1.
         25    2    1    2    0    0  0.00000000000E+00  0.00000000000E+00  0.14810690679E+03  0.19380532941E+03  0.12499939948E+03 0.  0.
        -13    1    3    3    0    0  0.57474687102E+02 -0.32554276751E+01  0.36320969655E+02  0.68067330460E+02  0.10570000000E+00 0.  1.
         13    1    3    3    0    0 -0.57474687102E+02  0.32554276751E+01  0.11178593713E+03  0.12573799895E+03  0.10570000000E+00 0. -1.
<mgrwt>
<rscale>  0 0.12499940E+03</rscale>
<asrwt>0</asrwt>
<pdfrwt beam="1">  1        4 0.26300941E-01 0.12499940E+03</pdfrwt>
<pdfrwt beam="2">  1       -4 0.35152633E-02 0.12499940E+03</pdfrwt>
<totfact> 0.91190609E+03</totfact>
</mgrwt>
</event>
<event>
 5    1  0.1685506E-006  0.1250066E+03  0.7818608E-02  0.1235059E+00
         -4   -1    0    0    0  501 -0.00000000000E+00  0.00000000000E+00  0.31994671836E+02  0.32026167831E+02  0.14200000000E+01 0. -1.
          4   -1    0    0  501    0  0.00000000000E+00 -0.00000000000E+00 -0.12200784601E+03  0.12201610913E+03  0.14200000000E+01 0. -1.
         25    2    1    2    0    0  0.00000000000E+00  0.00000000000E+00 -0.90013174169E+02  0.15404227696E+03  0.12500660609E+03 0.  0.
        -13    1    3    3    0    0  0.91773392177E+01  0.29290197315E+02 -0.11210057537E+03  0.11622688753E+03  0.10570000000E+00 0. -1.
         13    1    3    3    0    0 -0.91773392177E+01 -0.29290197315E+02  0.22087401197E+02  0.37815389434E+02  0.10570000000E+00 0. -1.
<mgrwt>
<rscale>  0 0.12500661E+03</rscale>
<asrwt>0</asrwt>
<pdfrwt beam="2">  1        4 0.18773496E-01 0.12500661E+03</pdfrwt>
<pdfrwt beam="1">  1       -4 0.49253157E-02 0.12500661E+03</pdfrwt>
<totfact> 0.98489206E+03</totfact>
</mgrwt>
</event>
<event>
 5    1  0.1685506E-006  0.1250003E+03  0.7818608E-02  0.1235069E+00
          4   -1    0    0  501    0  0.00000000000E+00  0.00000000000E+00  0.26876988742E+02  0.26914474244E+02  0.14200000000E+01 0.  1.
         -4   -1    0    0    0  501 -0.00000000000E+00 -0.00000000000E+00 -0.14519651329E+03  0.14520345682E+03  0.14200000000E+01 0.  1.
         25    2    1    2    0    0  0.00000000000E+00  0.00000000000E+00 -0.11831952455E+03  0.17211793106E+03  0.12500028921E+03 0.  0.
        -13    1    3    3    0    0  0.49015181452E+02  0.36278370120E+02 -0.40297753633E+02  0.73092600663E+02  0.10570000000E+00 0. -1.
         13    1    3    3    0    0 -0.49015181452E+02 -0.36278370120E+02 -0.78021770920E+02  0.99025330402E+02  0.10570000000E+00 0. -1.
<mgrwt>
<rscale>  0 0.12500029E+03</rscale>
<asrwt>0</asrwt>
<pdfrwt beam="1">  1        4 0.41383390E-02 0.12500029E+03</pdfrwt>
<pdfrwt beam="2">  1       -4 0.22341342E-01 0.12500029E+03</pdfrwt>
<totfact> 0.95054734E+03</totfact>
</mgrwt>
</event>
<event>
 5    1  0.1685506E-006  0.1249994E+03  0.7818608E-02  0.1235070E+00
         -4   -1    0    0    0  501 -0.00000000000E+00  0.00000000000E+00  0.54818450522E+02  0.54836839056E+02  0.14200000000E+01 0.  1.
          4   -1    0    0  501    0  0.00000000000E+00 -0.00000000000E+00 -0.71219796706E+02  0.71233951476E+02  0.14200000000E+01 0.  1.
         25    2    1    2    0    0  0.00000000000E+00  0.00000000000E+00 -0.16401346184E+02  0.12607079053E+03  0.12499936027E+03 0.  0.
        -13    1    3    3    0    0  0.49837302364E+02  0.22271368103E+02  0.22497504377E+02  0.59041675279E+02  0.10570000000E+00 0. -1.
         13    1    3    3    0    0 -0.49837302364E+02 -0.22271368103E+02 -0.38898850561E+02  0.67029115253E+02  0.10570000000E+00 0. -1.
<mgrwt>
<rscale>  0 0.12499936E+03</rscale>
<asrwt>0</asrwt>
<pdfrwt beam="2">  1        4 0.10959395E-01 0.12499936E+03</pdfrwt>
<pdfrwt beam="1">  1       -4 0.84361111E-02 0.12499936E+03</pdfrwt>
<totfact> 0.10429557E+04</totfact>
</mgrwt>
</event>
<event>
 4    1  0.1685506E-006  0.1248161E+03  0.7818608E-02  0.1235357E+00
          4   -1    0    0  501    0  0.00000000000E+00  0.00000000000E+00  0.42392210746E+02  0.42415986750E+02  0.14200000000E+01 0. -1.
         -4   -1    0    0    0  501 -0.00000000000E+00 -0.00000000000E+00 -0.91819458500E+02  0.91830438087E+02  0.14200000000E+01 0.  1.
        -13    1    1    2    0    0  0.37683541677E+02 -0.49445622657E+02 -0.30588192907E+02  0.69286128706E+02  0.10570000000E+00 0.  1.
         13    1    1    2    0    0 -0.37683541677E+02  0.49445622657E+02 -0.18839054846E+02  0.64960296130E+02  0.10570000000E+00 0. -1.
<mgrwt>
<rscale>  0 0.12481606E+03</rscale>
<asrwt>0</asrwt>
<pdfrwt beam="1">  1        4 0.65245521E-02 0.12481606E+03</pdfrwt>
<pdfrwt beam="2">  1       -4 0.14128744E-01 0.12481606E+03</pdfrwt>
<totfact> 0.10296634E+04</totfact>
</mgrwt>
</event>
<event>
 5    1  0.1685506E-006  0.1249991E+03  0.7818608E-02  0.1235071E+00
         -4   -1    0    0    0  501 -0.00000000000E+00  0.00000000000E+00  0.23474633483E+03  0.23475062964E+03  0.14200000000E+01 0.  1.
          4   -1    0    0  501    0  0.00000000000E+00 -0.00000000000E+00 -0.16605314157E+02  0.16665919064E+02  0.14200000000E+01 0. -1.
         25    2    1    2    0    0  0.00000000000E+00  0.00000000000E+00  0.21814102067E+03  0.25141654870E+03  0.12499910424E+03 0.  0.
        -13    1    3    3    0    0 -0.92823826139E+01  0.61477413063E+02  0.12187821008E+03  0.13682084713E+03  0.10570000000E+00 0.  1.
         13    1    3    3    0    0  0.92823826139E+01 -0.61477413063E+02  0.96262810592E+02  0.11459570157E+03  0.10570000000E+00 0. -1.
<mgrwt>
<rscale>  0 0.12499910E+03</rscale>
<asrwt>0</asrwt>
<pdfrwt beam="2">  1        4 0.25596559E-02 0.12499910E+03</pdfrwt>
<pdfrwt beam="1">  1       -4 0.36119815E-01 0.12499910E+03</pdfrwt>
<totfact> 0.82127559E+03</totfact>
</mgrwt>
</event>
<event>
 5    1  0.1685506E-006  0.1249765E+03  0.7818608E-02  0.1235106E+00
          4   -1    0    0  501    0  0.00000000000E+00  0.00000000000E+00  0.28822006592E+03  0.28822356392E+03  0.14200000000E+01 0.  1.
         -4   -1    0    0    0  501 -0.00000000000E+00 -0.00000000000E+00 -0.13507124822E+02  0.13581561801E+02  0.14200000000E+01 0. -1.
         25    2    1    2    0    0  0.00000000000E+00  0.00000000000E+00  0.27471294110E+03  0.30180512572E+03  0.12497653342E+03 0.  0.
        -13    1    3    3    0    0  0.28531424219E+02  0.31526620340E+02  0.26776394528E+02  0.50248944610E+02  0.10570000000E+00 0. -1.
         13    1    3    3    0    0 -0.28531424219E+02 -0.31526620340E+02  0.24793654657E+03  0.25155618111E+03  0.10570000000E+00 0.  1.
<mgrwt>
<rscale>  0 0.12497653E+03</rscale>
<asrwt>0</asrwt>
<pdfrwt beam="1">  1        4 0.44347546E-01 0.12497653E+03</pdfrwt>
<pdfrwt beam="2">  1       -4 0.20840141E-02 0.12497653E+03</pdfrwt>
<totfact> 0.75412234E+03</totfact>
</mgrwt>
</event>
<event>
 5    1  0.1685506E-006  0.1250030E+03  0.7818608E-02  0.1235065E+00
         -4   -1    0    0    0  501 -0.00000000000E+00  0.00000000000E+00  0.30455351349E+03  0.30455682389E+03  0.14200000000E+01 0.  1.
          4   -1    0    0  501    0  0.00000000000E+00 -0.00000000000E+00 -0.12784080639E+02  0.12862702584E+02  0.14200000000E+01 0. -1.
         25    2    1    2    0    0  0.00000000000E+00  0.00000000000E+00  0.29176943285E+03  0.31741952648E+03  0.12500301533E+03 0.  0.
        -13    1    3    3    0    0 -0.39160741952E+02  0.38762351065E+02  0.22079795106E+03  0.22756939587E+03  0.10570000000E+00 0.  1.
         13    1    3    3    0    0  0.39160741952E+02 -0.38762351065E+02  0.70971481789E+02  0.89850130607E+02  0.10570000000E+00 0. -1.
<mgrwt>
<rscale>  0 0.12500302E+03</rscale>
<asrwt>0</asrwt>
<pdfrwt beam="2">  1        4 0.19730845E-02 0.12500302E+03</pdfrwt>
<pdfrwt beam="1">  1       -4 0.46860681E-01 0.12500302E+03</pdfrwt>
<totfact> 0.73459186E+03</totfact>
</mgrwt>
</event>
<event>
 5    1  0.1685506E-006  0.1250116E+03  0.7818608E-02  0.1235051E+00
         -4   -1    0    0    0  501 -0.00000000000E+00  0.00000000000E+00  0.57126577634E+02  0.57144223437E+02  0.14200000000E+01 0.  1.
          4   -1    0    0  501    0  0.00000000000E+00 -0.00000000000E+00 -0.68356019252E+02  0.68370766911E+02  0.14200000000E+01 0. -1.
         25    2    1    2    0    0  0.00000000000E+00  0.00000000000E+00 -0.11229441618E+02  0.12551499035E+03  0.12501164923E+03 0.  0.
        -13    1    3    3    0    0  0.47809943760E+02  0.30221389073E+02  0.21097736830E+02  0.60367613434E+02  0.10570000000E+00 0.  1.
         13    1    3    3    0    0 -0.47809943760E+02 -0.30221389073E+02 -0.32327178449E+02  0.65147376914E+02  0.10570000000E+00 0. -1.
<mgrwt>
<rscale>  0 0.12501165E+03</rscale>
<asrwt>0</asrwt>
<pdfrwt beam="2">  1        4 0.10518802E-01 0.12501165E+03</pdfrwt>
<pdfrwt beam="1">  1       -4 0.87911961E-02 0.12501165E+03</pdfrwt>
<totfact> 0.10438880E+04</totfact>
</mgrwt>
</event>
<event>
 5    1  0.1685506E-006  0.1250000E+03  0.7818608E-02  0.1235069E+00
         -4   -1    0    0    0  501 -0.00000000000E+00  0.00000000000E+00  0.10632251019E+03  0.10633199224E+03  0.14200000000E+01 0.  1.
          4   -1    0    0  501    0  0.00000000000E+00 -0.00000000000E+00 -0.36714782030E+02  0.36742232098E+02  0.14200000000E+01 0.  1.
         25    2    1    2    0    0  0.00000000000E+00  0.00000000000E+00  0.69607728160E+02  0.14307422433E+03  0.12499999140E+03 0.  0.
        -13    1    3    3    0    0  0.61793196573E+02 -0.65240972370E+01  0.27102243899E+02  0.67790159937E+02  0.10570000000E+00 0.  1.
         13    1    3    3    0    0 -0.61793196573E+02  0.65240972370E+01  0.42505484260E+02  0.75284064397E+02  0.10570000000E+00 0.  1.
<mgrwt>
<rscale>  0 0.12499999E+03</rscale>
<asrwt>0</asrwt>
<pdfrwt beam="2">  1        4 0.56512691E-02 0.12499999E+03</pdfrwt>
<pdfrwt beam="1">  1       -4 0.16360150E-01 0.12499999E+03</pdfrwt>
<totfact> 0.10070266E+04</totfact>
</mgrwt>
</event>
<event>
 5    1  0.1685506E-006  0.1250001E+03  0.7818608E-02  0.1235069E+00
         -4   -1    0    0    0  501 -0.00000000000E+00  0.00000000000E+00  0.15701319874E+03  0.15701961973E+03  0.14200000000E+01 0.  1.
          4   -1    0    0  501    0  0.00000000000E+00 -0.00000000000E+00 -0.24851331925E+02  0.24891868119E+02  0.14200000000E+01 0.  1.
         25    2    1    2    0    0  0.00000000000E+00  0.00000000000E+00  0.13216186682E+03  0.18191148784E+03  0.12500012148E+03 0.  0.
        -13    1    3    3    0    0  0.45385538090E+02 -0.26672765691E+02  0.11510852141E+03  0.12657514121E+03  0.10570000000E+00 0. -1.
         13    1    3    3    0    0 -0.45385538090E+02  0.26672765691E+02  0.17053345402E+02  0.55336346637E+02  0.10570000000E+00 0. -1.
<mgrwt>
<rscale>  0 0.12500012E+03</rscale>
<asrwt>0</asrwt>
<pdfrwt beam="2">  1        4 0.38268939E-02 0.12500012E+03</pdfrwt>
<pdfrwt beam="1">  1       -4 0.24159489E-01 0.12500012E+03</pdfrwt>
<totfact> 0.93273802E+03</totfact>
</mgrwt>
</event>
<event>
 5    1  0.1685506E-006  0.1250052E+03  0.7818608E-02  0.1235061E+00
          4   -1    0    0  501    0  0.00000000000E+00  0.00000000000E+00  0.77697326106E+02  0.77710301016E+02  0.14200000000E+01 0.  1.
         -4   -1    0    0    0  501 -0.00000000000E+00 -0.00000000000E+00 -0.50252224226E+02  0.50272283016E+02  0.14200000000E+01 0. -1.
         25    2    1    2    0    0  0.00000000000E+00  0.00000000000E+00  0.27445101880E+02  0.12798258403E+03  0.12500523268E+03 0.  0.
        -13    1    3    3    0    0 -0.20550085583E+02 -0.44674196315E+02 -0.25777131698E+02  0.55520820643E+02  0.10570000000E+00 0. -1.
         13    1    3    3    0    0  0.20550085583E+02  0.44674196315E+02  0.53222233578E+02  0.72461763389E+02  0.10570000000E+00 0.  1.
<mgrwt>
<rscale>  0 0.12500523E+03</rscale>
<asrwt>0</asrwt>
<pdfrwt beam="1">  1        4 0.11955976E-01 0.12500523E+03</pdfrwt>
<pdfrwt beam="2">  1       -4 0.77336525E-02 0.12500523E+03</pdfrwt>
<totfact> 0.10386637E+04</totfact>
</mgrwt>
</event>
<event>
 5    1  0.1685506E-006  0.1250041E+03  0.7818608E-02  0.1235063E+00
         -4   -1    0    0    0  501 -0.00000000000E+00  0.00000000000E+00  0.76065257259E+02  0.76078510513E+02  0.14200000000E+01 0.  1.
          4   -1    0    0  501    0  0.00000000000E+00 -0.00000000000E+00 -0.51329758540E+02  0.51349396411E+02  0.14200000000E+01 0. -1.
         25    2    1    2    0    0  0.00000000000E+00  0.00000000000E+00  0.24735498718E+02  0.12742790692E+03  0.12500410620E+03 0.  0.
        -13    1    3    3    0    0  0.59818298803E+01 -0.26238827231E+02  0.69872872735E+02  0.74876484025E+02  0.10570000000E+00 0.  1.
         13    1    3    3    0    0 -0.59818298803E+01  0.26238827231E+02 -0.45137374016E+02  0.52551422900E+02  0.10570000000E+00 0. -1.
<mgrwt>
<rscale>  0 0.12500411E+03</rscale>
<asrwt>0</asrwt>
<pdfrwt beam="2">  1        4 0.78994160E-02 0.12500411E+03</pdfrwt>
<pdfrwt beam="1">  1       -4 0.11704877E-01 0.12500411E+03</pdfrwt>
<totfact> 0.10398898E+04</totfact>
</mgrwt>
</event>
<event>
 5    1  0.1685506E-006  0.1249941E+03  0.7818608E-02  0.1235079E+00
          4   -1    0    0  501    0  0.00000000000E+00  0.00000000000E+00  0.11450660540E+03  0.11451540979E+03  0.14200000000E+01 0.  1.
         -4   -1    0    0    0  501 -0.00000000000E+00 -0.00000000000E+00 -0.34085633388E+02  0.34115199010E+02  0.14200000000E+01 0.  1.
         25    2    1    2    0    0  0.00000000000E+00  0.00000000000E+00  0.80420972009E+02  0.14863060880E+03  0.12499410039E+03 0.  0.
        -13    1    3    3    0    0 -0.50119622231E+02  0.24061366955E+02  0.62649494469E+01  0.55948071249E+02  0.10570000000E+00 0.  1.
         13    1    3    3    0    0  0.50119622231E+02 -0.24061366955E+02  0.74156022562E+02  0.92682537552E+02  0.10570000000E+00 0.  1.
<mgrwt>
<rscale>  0 0.12499410E+03</rscale>
<asrwt>0</asrwt>
<pdfrwt beam="1">  1        4 0.17619352E-01 0.12499410E+03</pdfrwt>
<pdfrwt beam="2">  1       -4 0.52468951E-02 0.12499410E+03</pdfrwt>
<totfact> 0.99590593E+03</totfact>
</mgrwt>
</event>
<event>
 5    1  0.1685506E-006  0.1250016E+03  0.7818608E-02  0.1235067E+00
          4   -1    0    0  501    0  0.00000000000E+00  0.00000000000E+00  0.38553726708E+02  0.38579868366E+02  0.14200000000E+01 0.  1.
         -4   -1    0    0    0  501 -0.00000000000E+00 -0.00000000000E+00 -0.10125683769E+03  0.10126679406E+03  0.14200000000E+01 0. -1.
         25    2    1    2    0    0  0.00000000000E+00  0.00000000000E+00 -0.62703110985E+02  0.13984666243E+03  0.12500163545E+03 0.  0.
        -13    1    3    3    0    0 -0.53530710229E+02  0.21145070449E+00 -0.67443608025E+02  0.86105941055E+02  0.10570000000E+00 0. -1.
         13    1    3    3    0    0  0.53530710229E+02 -0.21145070449E+00  0.47404970398E+01  0.53740721373E+02  0.10570000000E+00 0.  1.
<mgrwt>
<rscale>  0 0.12500164E+03</rscale>
<asrwt>0</asrwt>
<pdfrwt beam="1">  1        4 0.59341194E-02 0.12500164E+03</pdfrwt>
<pdfrwt beam="2">  1       -4 0.15580752E-01 0.12500164E+03</pdfrwt>
<totfact> 0.10136391E+04</totfact>
</mgrwt>
</event>
<event>
 5    1  0.1685506E-006  0.1249987E+03  0.7818608E-02  0.1235071E+00
         -4   -1    0    0    0  501 -0.00000000000E+00  0.00000000000E+00  0.79805192232E+02  0.79817824496E+02  0.14200000000E+01 0.  1.
          4   -1    0    0  501    0  0.00000000000E+00 -0.00000000000E+00 -0.48919498326E+02  0.48940103355E+02  0.14200000000E+01 0.  1.
         25    2    1    2    0    0  0.00000000000E+00  0.00000000000E+00  0.30885693907E+02  0.12875792785E+03  0.12499871158E+03 0.  0.
        -13    1    3    3    0    0 -0.91686233591E+01 -0.26010271956E+02  0.73214854147E+02  0.78236972984E+02  0.10570000000E+00 0. -1.
         13    1    3    3    0    0  0.91686233591E+01  0.26010271956E+02 -0.42329160240E+02  0.50520954867E+02  0.10570000000E+00 0. -1.
<mgrwt>
<rscale>  0 0.12499871E+03</rscale>
<asrwt>0</asrwt>
<pdfrwt beam="2">  1        4 0.75286335E-02 0.12499871E+03</pdfrwt>
<pdfrwt beam="1">  1       -4 0.12280278E-01 0.12499871E+03</pdfrwt>
<totfact> 0.10371453E+04</totfact>
</mgrwt>
</event>
<event>
 5    1  0.1685506E-006  0.1249984E+03  0.7818608E-02  0.1235072E+00
         -4   -1    0    0    0  501 -0.00000000000E+00  0.00000000000E+00  0.78940044871E+02  0.78952815556E+02  0.14200000000E+01 0.  1.
          4   -1    0    0  501    0  0.00000000000E+00 -0.00000000000E+00 -0.49455543261E+02  0.49475925047E+02  0.14200000000E+01 0. -1.
         25    2    1    2    0    0  0.00000000000E+00  0.00000000000E+00  0.29484501610E+02  0.12842874060E+03  0.12499842230E+03 0.  0.
        -13    1    3    3    0    0  0.48103413954E+02 -0.19894542627E+02  0.50280622147E+02  0.72373222924E+02  0.10570000000E+00 0.  1.
         13    1    3    3    0    0 -0.48103413954E+02  0.19894542627E+02 -0.20796120537E+02  0.56055517679E+02  0.10570000000E+00 0. -1.
<mgrwt>
<rscale>  0 0.12499842E+03</rscale>
<asrwt>0</asrwt>
<pdfrwt beam="2">  1        4 0.76110955E-02 0.12499842E+03</pdfrwt>
<pdfrwt beam="1">  1       -4 0.12147172E-01 0.12499842E+03</pdfrwt>
<totfact> 0.10378609E+04</totfact>
</mgrwt>
</event>
<event>
 5    1  0.1685506E-006  0.1249927E+03  0.7818608E-02  0.1235081E+00
         -4   -1    0    0    0  501 -0.00000000000E+00  0.00000000000E+00  0.17892186010E+02  0.17948446178E+02  0.14200000000E+01 0.  1.
          4   -1    0    0  501    0  0.00000000000E+00 -0.00000000000E+00 -0.21789467935E+03  0.21789930631E+03  0.14200000000E+01 0. -1.
         25    2    1    2    0    0  0.00000000000E+00  0.00000000000E+00 -0.20000249334E+03  0.23584775248E+03  0.12499265982E+03 0.  0.
        -13    1    3    3    0    0  0.28094778088E+01 -0.62379592499E+02 -0.10487562591E+03  0.12205742422E+03  0.10570000000E+00 0.  1.
         13    1    3    3    0    0 -0.28094778088E+01  0.62379592499E+02 -0.95126867432E+02  0.11379032826E+03  0.10570000000E+00 0. -1.
<mgrwt>
<rscale>  0 0.12499266E+03</rscale>
<asrwt>0</asrwt>
<pdfrwt beam="2">  1        4 0.33526940E-01 0.12499266E+03</pdfrwt>
<pdfrwt beam="1">  1       -4 0.27573278E-02 0.12499266E+03</pdfrwt>
<totfact> 0.84433504E+03</totfact>
</mgrwt>
</event>
<event>
 5    1  0.1685506E-006  0.1249995E+03  0.7818608E-02  0.1235070E+00
         -4   -1    0    0    0  501 -0.00000000000E+00  0.00000000000E+00  0.68189814664E+02  0.68204598261E+02  0.14200000000E+01 0.  1.
          4   -1    0    0  501    0  0.00000000000E+00 -0.00000000000E+00 -0.57254727325E+02  0.57272333644E+02  0.14200000000E+01 0. -1.
         25    2    1    2    0    0  0.00000000000E+00  0.00000000000E+00  0.10935087339E+02  0.12547693190E+03  0.12499953722E+03 0.  0.
        -13    1    3    3    0    0  0.27483562779E+02  0.24252127817E+02  0.56283979235E+02  0.67167026268E+02  0.10570000000E+00 0.  1.
         13    1    3    3    0    0 -0.27483562779E+02 -0.24252127817E+02 -0.45348891896E+02  0.58309905637E+02  0.10570000000E+00 0. -1.
<mgrwt>
<rscale>  0 0.12499954E+03</rscale>
<asrwt>0</asrwt>
<pdfrwt beam="2">  1        4 0.88109112E-02 0.12499954E+03</pdfrwt>
<pdfrwt beam="1">  1       -4 0.10493232E-01 0.12499954E+03</pdfrwt>
<totfact> 0.10442573E+04</totfact>
</mgrwt>
</event>
<event>
 5    1  0.1685506E-006  0.1250061E+03  0.7818608E-02  0.1235060E+00
         -4   -1    0    0    0  501 -0.00000000000E+00  0.00000000000E+00  0.22009828086E+03  0.22010286149E+03  0.14200000000E+01 0. -1.
          4   -1    0    0  501    0  0.00000000000E+00 -0.00000000000E+00 -0.17716307760E+02  0.17773124673E+02  0.14200000000E+01 0.  1.
         25    2    1    2    0    0  0.00000000000E+00  0.00000000000E+00  0.20238197310E+03  0.23787598616E+03  0.12500608688E+03 0.  0.
        -13    1    3    3    0    0  0.23788266219E+02 -0.40066837435E+02  0.18046256583E+03  0.18638128100E+03  0.10570000000E+00 0. -1.
         13    1    3    3    0    0 -0.23788266219E+02  0.40066837435E+02  0.21919407270E+02  0.51494705158E+02  0.10570000000E+00 0.  1.
<mgrwt>
<rscale>  0 0.12500609E+03</rscale>
<asrwt>0</asrwt>
<pdfrwt beam="2">  1        4 0.27303087E-02 0.12500609E+03</pdfrwt>
<pdfrwt beam="1">  1       -4 0.33865997E-01 0.12500609E+03</pdfrwt>
<totfact> 0.84103306E+03</totfact>
</mgrwt>
</event>
<event>
 5    1  0.1685506E-006  0.1249992E+03  0.7818608E-02  0.1235070E+00
          4   -1    0    0  501    0  0.00000000000E+00  0.00000000000E+00  0.22351241166E+03  0.22351692232E+03  0.14200000000E+01 0.  1.
         -4   -1    0    0    0  501 -0.00000000000E+00 -0.00000000000E+00 -0.17442906498E+02  0.17500611049E+02  0.14200000000E+01 0. -1.
         25    2    1    2    0    0  0.00000000000E+00  0.00000000000E+00  0.20606950516E+03  0.24101753337E+03  0.12499924174E+03 0.  0.
        -13    1    3    3    0    0 -0.23533620097E+02  0.57681236354E+02  0.11272074376E+03  0.12879026962E+03  0.10570000000E+00 0. -1.
         13    1    3    3    0    0  0.23533620097E+02 -0.57681236354E+02  0.93348761397E+02  0.11222726375E+03  0.10570000000E+00 0.  1.
<mgrwt>
<rscale>  0 0.12499924E+03</rscale>
<asrwt>0</asrwt>
<pdfrwt beam="1">  1        4 0.34391307E-01 0.12499924E+03</pdfrwt>
<pdfrwt beam="2">  1       -4 0.26883101E-02 0.12499924E+03</pdfrwt>
<totfact> 0.83647473E+03</totfact>
</mgrwt>
</event>
<event>
 5    1  0.1685506E-006  0.1249998E+03  0.7818608E-02  0.1235070E+00
          4   -1    0    0  501    0  0.00000000000E+00  0.00000000000E+00  0.48777779162E+02  0.48798444032E+02  0.14200000000E+01 0.  1.
         -4   -1    0    0    0  501 -0.00000000000E+00 -0.00000000000E+00 -0.80038430752E+02  0.80051026210E+02  0.14200000000E+01 0.  1.
         25    2    1    2    0    0  0.00000000000E+00  0.00000000000E+00 -0.31260651590E+02  0.12884947024E+03  0.12499983057E+03 0.  0.
        -13    1    3    3    0    0 -0.59798638783E+02  0.18154357464E+02 -0.14725603390E+02  0.64205237036E+02  0.10570000000E+00 0. -1.
         13    1    3    3    0    0  0.59798638783E+02 -0.18154357464E+02 -0.16535048200E+02  0.64644233205E+02  0.10570000000E+00 0. -1.
<mgrwt>
<rscale>  0 0.12499983E+03</rscale>
<asrwt>0</asrwt>
<pdfrwt beam="1">  1        4 0.75068322E-02 0.12499983E+03</pdfrwt>
<pdfrwt beam="2">  1       -4 0.12316163E-01 0.12499983E+03</pdfrwt>
<totfact> 0.10369222E+04</totfact>
</mgrwt>
</event>
<event>
 5    1  0.1685506E-006  0.1250068E+03  0.7818608E-02  0.1235059E+00
         -4   -1    0    0    0  501 -0.00000000000E+00  0.00000000000E+00  0.14153032134E+02  0.14224089376E+02  0.14200000000E+01 0. -1.
          4   -1    0    0  501    0  0.00000000000E+00 -0.00000000000E+00 -0.27526701460E+03  0.27527067720E+03  0.14200000000E+01 0.  1.
         25    2    1    2    0    0  0.00000000000E+00  0.00000000000E+00 -0.26111398246E+03  0.28949476658E+03  0.12500683196E+03 0.  0.
        -13    1    3    3    0    0  0.51428353397E+02  0.30811172154E+02 -0.89620977083E+02  0.10782455457E+03  0.10570000000E+00 0. -1.
         13    1    3    3    0    0 -0.51428353397E+02 -0.30811172154E+02 -0.17149300538E+03  0.18167021200E+03  0.10570000000E+00 0.  1.
<mgrwt>
<rscale>  0 0.12500683E+03</rscale>
<asrwt>0</asrwt>
<pdfrwt beam="2">  1        4 0.42354515E-01 0.12500683E+03</pdfrwt>
<pdfrwt beam="1">  1       -4 0.21831374E-02 0.12500683E+03</pdfrwt>
<totfact> 0.76924105E+03</totfact>
</mgrwt>
</event>
<event>
 5    1  0.1685506E-006  0.1249972E+03  0.7818608E-02  0.1235074E+00
          4   -1    0    0  501    0  0.00000000000E+00  0.00000000000E+00  0.42705327560E+02  0.42728929334E+02  0.14200000000E+01 0. -1.
         -4   -1    0    0    0  501 -0.00000000000E+00 -0.00000000000E+00 -0.91411395799E+02  0.91422424393E+02  0.14200000000E+01 0.  1.
         25    2    1    2    0    0  0.00000000000E+00  0.00000000000E+00 -0.48706068239E+02  0.13415135373E+03  0.12499721846E+03 0.  0.
        -13    1    3    3    0    0 -0.18800208718E+02 -0.99300802099E+01 -0.87427930591E+02  0.89976155512E+02  0.10570000000E+00 0.  1.
         13    1    3    3    0    0  0.18800208718E+02  0.99300802099E+01  0.38721862353E+02  0.44175198215E+02  0.10570000000E+00 0. -1.
<mgrwt>
<rscale>  0 0.12499722E+03</rscale>
<asrwt>0</asrwt>
<pdfrwt beam="1">  1        4 0.65727143E-02 0.12499722E+03</pdfrwt>
<pdfrwt beam="2">  1       -4 0.14065955E-01 0.12499722E+03</pdfrwt>
<totfact> 0.10256633E+04</totfact>
</mgrwt>
</event>
<event>
 5    1  0.1685506E-006  0.1249992E+03  0.7818608E-02  0.1235070E+00
         -4   -1    0    0    0  501 -0.00000000000E+00  0.00000000000E+00  0.11829683199E+03  0.11830535432E+03  0.14200000000E+01 0.  1.
          4   -1    0    0  501    0  0.00000000000E+00 -0.00000000000E+00 -0.32995356537E+02  0.33025898216E+02  0.14200000000E+01 0. -1.
         25    2    1    2    0    0  0.00000000000E+00  0.00000000000E+00  0.85301475458E+02  0.15133125253E+03  0.12499922511E+03 0.  0.
        -13    1    3    3    0    0  0.18107595945E+02 -0.83557413909E+01  0.11436098809E+03  0.11608682188E+03  0.10570000000E+00 0.  1.
         13    1    3    3    0    0 -0.18107595945E+02  0.83557413909E+01 -0.29059512632E+02  0.35244430652E+02  0.10570000000E+00 0. -1.
<mgrwt>
<rscale>  0 0.12499923E+03</rscale>
<asrwt>0</asrwt>
<pdfrwt beam="2">  1        4 0.50792136E-02 0.12499923E+03</pdfrwt>
<pdfrwt beam="1">  1       -4 0.18202518E-01 0.12499923E+03</pdfrwt>
<totfact> 0.99040719E+03</totfact>
</mgrwt>
</event>
<event>
 5    1  0.1685506E-006  0.1249999E+03  0.7818608E-02  0.1235069E+00
          4   -1    0    0  501    0  0.00000000000E+00  0.00000000000E+00  0.96221347821E+02  0.96231825175E+02  0.14200000000E+01 0.  1.
         -4   -1    0    0    0  501 -0.00000000000E+00 -0.00000000000E+00 -0.40571358052E+02  0.40596200490E+02  0.14200000000E+01 0. -1.
         25    2    1    2    0    0  0.00000000000E+00  0.00000000000E+00  0.55649989769E+02  0.13682802566E+03  0.12499994898E+03 0.  0.
        -13    1    3    3    0    0 -0.43805166927E+00 -0.42254925235E+02  0.78232014928E+02  0.88915296367E+02  0.10570000000E+00 0.  1.
         13    1    3    3    0    0  0.43805166927E+00  0.42254925235E+02 -0.22582025160E+02  0.47912729297E+02  0.10570000000E+00 0. -1.
<mgrwt>
<rscale>  0 0.12499995E+03</rscale>
<asrwt>0</asrwt>
<pdfrwt beam="1">  1        4 0.14806001E-01 0.12499995E+03</pdfrwt>
<pdfrwt beam="2">  1       -4 0.62444643E-02 0.12499995E+03</pdfrwt>
<totfact> 0.10199695E+04</totfact>
</mgrwt>
</event>
<event>
 5    1  0.1685506E-006  0.1250009E+03  0.7818608E-02  0.1235068E+00
         -4   -1    0    0    0  501 -0.00000000000E+00  0.00000000000E+00  0.24001573132E+03  0.24001993184E+03  0.14200000000E+01 0.  1.
          4   -1    0    0  501    0  0.00000000000E+00 -0.00000000000E+00 -0.16239892712E+02  0.16301856191E+02  0.14200000000E+01 0. -1.
         25    2    1    2    0    0  0.00000000000E+00  0.00000000000E+00  0.22377583861E+03  0.25632178804E+03  0.12500093230E+03 0.  0.
        -13    1    3    3    0    0 -0.17619611523E+02  0.58951699240E+02  0.89374355492E+02  0.10850594521E+03  0.10570000000E+00 0.  1.
         13    1    3    3    0    0  0.17619611523E+02 -0.58951699240E+02  0.13440148312E+03  0.14781584283E+03  0.10570000000E+00 0. -1.
<mgrwt>
<rscale>  0 0.12500093E+03</rscale>
<asrwt>0</asrwt>
<pdfrwt beam="2">  1        4 0.25035346E-02 0.12500093E+03</pdfrwt>
<pdfrwt beam="1">  1       -4 0.36930586E-01 0.12500093E+03</pdfrwt>
<totfact> 0.81423342E+03</totfact>
</mgrwt>
</event>
<event>
 5    1  0.1685506E-006  0.1250068E+03  0.7818608E-02  0.1235059E+00
         -4   -1    0    0    0  501 -0.00000000000E+00  0.00000000000E+00  0.11915541578E+02  0.11999855462E+02  0.14200000000E+01 0. -1.
          4   -1    0    0  501    0  0.00000000000E+00 -0.00000000000E+00 -0.32662186348E+03  0.32662495022E+03  0.14200000000E+01 0.  1.
         25    2    1    2    0    0  0.00000000000E+00  0.00000000000E+00 -0.31470632190E+03  0.33862480568E+03  0.12500675972E+03 0.  0.
        -13    1    3    3    0    0  0.11906877934E+02  0.56086603161E+02 -0.89947881305E+02  0.10666823951E+03  0.10570000000E+00 0. -1.
         13    1    3    3    0    0 -0.11906877934E+02 -0.56086603161E+02 -0.22475844060E+03  0.23195656617E+03  0.10570000000E+00 0.  1.
<mgrwt>
<rscale>  0 0.12500676E+03</rscale>
<asrwt>0</asrwt>
<pdfrwt beam="2">  1        4 0.50256234E-01 0.12500676E+03</pdfrwt>
<pdfrwt beam="1">  1       -4 0.18398836E-02 0.12500676E+03</pdfrwt>
<totfact> 0.70983743E+03</totfact>
</mgrwt>
</event>
<event>
 5    1  0.1685506E-006  0.1250002E+03  0.7818608E-02  0.1235069E+00
         -4   -1    0    0    0  501 -0.00000000000E+00  0.00000000000E+00  0.19638356108E+02  0.19689627488E+02  0.14200000000E+01 0.  1.
          4   -1    0    0  501    0  0.00000000000E+00 -0.00000000000E+00 -0.19859668214E+03  0.19860175870E+03  0.14200000000E+01 0.  1.
         25    2    1    2    0    0  0.00000000000E+00  0.00000000000E+00 -0.17895832603E+03  0.21829138618E+03  0.12500018730E+03 0.  0.
        -13    1    3    3    0    0 -0.53405621780E+02  0.17516696843E+02 -0.13721675125E+03  0.14828163441E+03  0.10570000000E+00 0. -1.
         13    1    3    3    0    0  0.53405621780E+02 -0.17516696843E+02 -0.41741574780E+02  0.70009751776E+02  0.10570000000E+00 0. -1.
<mgrwt>
<rscale>  0 0.12500019E+03</rscale>
<asrwt>0</asrwt>
<pdfrwt beam="2">  1        4 0.30557669E-01 0.12500019E+03</pdfrwt>
<pdfrwt beam="1">  1       -4 0.30256201E-02 0.12500019E+03</pdfrwt>
<totfact> 0.87139075E+03</totfact>
</mgrwt>
</event>
<event>
 5    1  0.1685506E-006  0.1249986E+03  0.7818608E-02  0.1235072E+00
         -4   -1    0    0    0  501 -0.00000000000E+00  0.00000000000E+00  0.13278150034E+03  0.13278909305E+03  0.14200000000E+01 0.  1.
          4   -1    0    0  501    0  0.00000000000E+00 -0.00000000000E+00 -0.29392378073E+02  0.29426659491E+02  0.14200000000E+01 0. -1.
         25    2    1    2    0    0  0.00000000000E+00  0.00000000000E+00  0.10338912227E+03  0.16221575254E+03  0.12499855907E+03 0.  0.
        -13    1    3    3    0    0 -0.59560624274E+02  0.18818520095E+02  0.54460944124E+02  0.82871046029E+02  0.10570000000E+00 0.  1.
         13    1    3    3    0    0  0.59560624274E+02 -0.18818520095E+02  0.48928178144E+02  0.79344706512E+02  0.10570000000E+00 0. -1.
<mgrwt>
<rscale>  0 0.12499856E+03</rscale>
<asrwt>0</asrwt>
<pdfrwt beam="2">  1        4 0.45251254E-02 0.12499856E+03</pdfrwt>
<pdfrwt beam="1">  1       -4 0.20431144E-01 0.12499856E+03</pdfrwt>
<totfact> 0.96920436E+03</totfact>
</mgrwt>
</event>
<event>
 5    1  0.1685506E-006  0.1250018E+03  0.7818608E-02  0.1235066E+00
          4   -1    0    0  501    0  0.00000000000E+00  0.00000000000E+00  0.20965904062E+02  0.21013936641E+02  0.14200000000E+01 0.  1.
         -4   -1    0    0    0  501 -0.00000000000E+00 -0.00000000000E+00 -0.18605588199E+03  0.18606130071E+03  0.14200000000E+01 0.  1.
         25    2    1    2    0    0  0.00000000000E+00  0.00000000000E+00 -0.16508997793E+03  0.20707523735E+03  0.12500181244E+03 0.  0.
        -13    1    3    3    0    0 -0.11505838850E+02  0.27260203681E+02  0.86548377253E+01  0.30828889388E+02  0.10570000000E+00 0.  1.
         13    1    3    3    0    0  0.11505838850E+02 -0.27260203681E+02 -0.17374481565E+03  0.17624634797E+03  0.10570000000E+00 0.  1.
<mgrwt>
<rscale>  0 0.12500181E+03</rscale>
<asrwt>0</asrwt>
<pdfrwt beam="1">  1        4 0.32296355E-02 0.12500181E+03</pdfrwt>
<pdfrwt beam="2">  1       -4 0.28628092E-01 0.12500181E+03</pdfrwt>
<totfact> 0.88952167E+03</totfact>
</mgrwt>
</event>
<event>
 5    1  0.1685506E-006  0.1249999E+03  0.7818608E-02  0.1235069E+00
         -4   -1    0    0    0  501 -0.00000000000E+00  0.00000000000E+00  0.27439631760E+02  0.27476349669E+02  0.14200000000E+01 0.  1.
          4   -1    0    0  501    0  0.00000000000E+00 -0.00000000000E+00 -0.14222234918E+03  0.14222943790E+03  0.14200000000E+01 0. -1.
         25    2    1    2    0    0  0.00000000000E+00  0.00000000000E+00 -0.11478271742E+03  0.16970578757E+03  0.12499992847E+03 0.  0.
        -13    1    3    3    0    0 -0.23249514132E+02  0.55665039642E+02 -0.35203159648E+02  0.69845616666E+02  0.10570000000E+00 0.  1.
         13    1    3    3    0    0  0.23249514132E+02 -0.55665039642E+02 -0.79579557772E+02  0.99860170906E+02  0.10570000000E+00 0. -1.
<mgrwt>
<rscale>  0 0.12499993E+03</rscale>
<asrwt>0</asrwt>
<pdfrwt beam="2">  1        4 0.21883731E-01 0.12499993E+03</pdfrwt>
<pdfrwt beam="1">  1       -4 0.42248516E-02 0.12499993E+03</pdfrwt>
<totfact> 0.95503655E+03</totfact>
</mgrwt>
</event>
<event>
 5    1  0.1685506E-006  0.1250021E+03  0.7818608E-02  0.1235066E+00
         -4   -1    0    0    0  501 -0.00000000000E+00  0.00000000000E+00  0.11639238651E+02  0.11725539492E+02  0.14200000000E+01 0.  1.
          4   -1    0    0  501    0  0.00000000000E+00 -0.00000000000E+00 -0.33429416728E+03  0.33429718317E+03  0.14200000000E+01 0. -1.
         25    2    1    2    0    0  0.00000000000E+00  0.00000000000E+00 -0.32265492863E+03  0.34602272266E+03  0.12500208651E+03 0.  0.
        -13    1    3    3    0    0 -0.32781409586E+01  0.56391907116E+02 -0.87279147494E+02  0.10396371557E+03  0.10570000000E+00 0.  1.
         13    1    3    3    0    0  0.32781409586E+01 -0.56391907116E+02 -0.23537578113E+03  0.24205900709E+03  0.10570000000E+00 0. -1.
<mgrwt>
<rscale>  0 0.12500209E+03</rscale>
<asrwt>0</asrwt>
<pdfrwt beam="2">  1        4 0.51436735E-01 0.12500209E+03</pdfrwt>
<pdfrwt beam="1">  1       -4 0.17975229E-02 0.12500209E+03</pdfrwt>
<totfact> 0.70161095E+03</totfact>
</mgrwt>
</event>
<event>
 5    1  0.1685506E-006  0.1250023E+03  0.7818608E-02  0.1235066E+00
         -4   -1    0    0    0  501 -0.00000000000E+00  0.00000000000E+00  0.20767273453E+03  0.20767758923E+03  0.14200000000E+01 0. -1.
          4   -1    0    0  501    0  0.00000000000E+00 -0.00000000000E+00 -0.18778448600E+02  0.18832061274E+02  0.14200000000E+01 0.  1.
         25    2    1    2    0    0  0.00000000000E+00  0.00000000000E+00  0.18889428593E+03  0.22650965051E+03  0.12500228203E+03 0.  0.
        -13    1    3    3    0    0  0.21943946632E+02  0.49884501593E+02  0.14989631973E+03  0.15949582481E+03  0.10570000000E+00 0. -1.
         13    1    3    3    0    0 -0.21943946632E+02 -0.49884501593E+02  0.38997966207E+02  0.67013825691E+02  0.10570000000E+00 0.  1.
<mgrwt>
<rscale>  0 0.12500228E+03</rscale>
<asrwt>0</asrwt>
<pdfrwt beam="2">  1        4 0.28934894E-02 0.12500228E+03</pdfrwt>
<pdfrwt beam="1">  1       -4 0.31954151E-01 0.12500228E+03</pdfrwt>
<totfact> 0.85844066E+03</totfact>
</mgrwt>
</event>
<event>
 5    1  0.1685506E-006  0.1249949E+03  0.7818608E-02  0.1235077E+00
          4   -1    0    0  501    0  0.00000000000E+00  0.00000000000E+00  0.87405799907E+02  0.87417333849E+02  0.14200000000E+01 0. -1.
         -4   -1    0    0    0  501 -0.00000000000E+00 -0.00000000000E+00 -0.44661529760E+02  0.44684098295E+02  0.14200000000E+01 0.  1.
         25    2    1    2    0    0  0.00000000000E+00  0.00000000000E+00  0.42744270147E+02  0.13210143214E+03  0.12499486287E+03 0.  0.
        -13    1    3    3    0    0 -0.31742882774E+01  0.59903774523E+02  0.28431010012E+01  0.60055247098E+02  0.10570000000E+00 0.  1.
         13    1    3    3    0    0  0.31742882774E+01 -0.59903774523E+02  0.39901169146E+02  0.72046185047E+02  0.10570000000E+00 0. -1.
<mgrwt>
<rscale>  0 0.12499486E+03</rscale>
<asrwt>0</asrwt>
<pdfrwt beam="1">  1        4 0.13449669E-01 0.12499486E+03</pdfrwt>
<pdfrwt beam="2">  1       -4 0.68736279E-02 0.12499486E+03</pdfrwt>
<totfact> 0.10300728E+04</totfact>
</mgrwt>
</event>
<event>
 5    1  0.1685506E-006  0.1250046E+03  0.7818608E-02  0.1235062E+00
         -4   -1    0    0    0  501 -0.00000000000E+00  0.00000000000E+00  0.42910697777E+03  0.42910932730E+03  0.14200000000E+01 0.  1.
          4   -1    0    0  501    0  0.00000000000E+00 -0.00000000000E+00 -0.90461154900E+01  0.91568884157E+01  0.14200000000E+01 0. -1.
         25    2    1    2    0    0  0.00000000000E+00  0.00000000000E+00  0.42006086229E+03  0.43826621571E+03  0.12500459117E+03 0.  0.
        -13    1    3    3    0    0  0.62169236212E+02  0.52085121066E+00  0.23254555428E+03  0.24071296434E+03  0.10570000000E+00 0.  1.
         13    1    3    3    0    0 -0.62169236212E+02 -0.52085121066E+00  0.18751530801E+03  0.19755325137E+03  0.10570000000E+00 0. -1.
<mgrwt>
<rscale>  0 0.12500459E+03</rscale>
<asrwt>0</asrwt>
<pdfrwt beam="2">  1        4 0.14004120E-02 0.12500459E+03</pdfrwt>
<pdfrwt beam="1">  1       -4 0.66025151E-01 0.12500459E+03</pdfrwt>
<totfact> 0.60987622E+03</totfact>
</mgrwt>
</event>
<event>
 5    1  0.1685506E-006  0.1250009E+03  0.7818608E-02  0.1235068E+00
          4   -1    0    0  501    0  0.00000000000E+00  0.00000000000E+00  0.10750985783E+03  0.10751923517E+03  0.14200000000E+01 0. -1.
         -4   -1    0    0    0  501 -0.00000000000E+00 -0.00000000000E+00 -0.36309554930E+02  0.36337311117E+02  0.14200000000E+01 0.  1.
         25    2    1    2    0    0  0.00000000000E+00  0.00000000000E+00  0.71200302903E+02  0.14385654629E+03  0.12500089110E+03 0.  0.
        -13    1    3    3    0    0 -0.17274443545E+02  0.53013277841E+02  0.68099642150E+02  0.88013558392E+02  0.10570000000E+00 0.  1.
         13    1    3    3    0    0  0.17274443545E+02 -0.53013277841E+02  0.31006607531E+01  0.55842987894E+02  0.10570000000E+00 0. -1.
<mgrwt>
<rscale>  0 0.12500089E+03</rscale>
<asrwt>0</asrwt>
<pdfrwt beam="1">  1        4 0.16542834E-01 0.12500089E+03</pdfrwt>
<pdfrwt beam="2">  1       -4 0.55889418E-02 0.12500089E+03</pdfrwt>
<totfact> 0.10054071E+04</totfact>
</mgrwt>
</event>
<event>
 5    1  0.1685506E-006  0.1250005E+03  0.7818608E-02  0.1235068E+00
          4   -1    0    0  501    0  0.00000000000E+00  0.00000000000E+00  0.38199786637E+02  0.38226170343E+02  0.14200000000E+01 0. -1.
         -4   -1    0    0    0  501 -0.00000000000E+00 -0.00000000000E+00 -0.10219265246E+03  0.10220251766E+03  0.14200000000E+01 0.  1.
         25    2    1    2    0    0  0.00000000000E+00  0.00000000000E+00 -0.63992865822E+02  0.14042868801E+03  0.12500051815E+03 0.  0.
        -13    1    3    3    0    0  0.69998912024E+01 -0.49250652014E+02 -0.74503569344E+02  0.89584698571E+02  0.10570000000E+00 0.  1.
         13    1    3    3    0    0 -0.69998912024E+01  0.49250652014E+02  0.10510703522E+02  0.50843989435E+02  0.10570000000E+00 0. -1.
<mgrwt>
<rscale>  0 0.12500052E+03</rscale>
<asrwt>0</asrwt>
<pdfrwt beam="1">  1        4 0.58796787E-02 0.12500052E+03</pdfrwt>
<pdfrwt beam="2">  1       -4 0.15724735E-01 0.12500052E+03</pdfrwt>
<totfact> 0.10124591E+04</totfact>
</mgrwt>
</event>
<event>
 5    1  0.1685506E-006  0.1249989E+03  0.7818608E-02  0.1235071E+00
          4   -1    0    0  501    0  0.00000000000E+00  0.00000000000E+00  0.45236985490E+02  0.45259267076E+02  0.14200000000E+01 0. -1.
         -4   -1    0    0    0  501 -0.00000000000E+00 -0.00000000000E+00 -0.86299875994E+02  0.86311557723E+02  0.14200000000E+01 0.  1.
         25    2    1    2    0    0  0.00000000000E+00  0.00000000000E+00 -0.41062890504E+02  0.13157082480E+03  0.12499888384E+03 0.  0.
        -13    1    3    3    0    0 -0.13729385289E+02 -0.58584391828E+02 -0.38317864414E+02  0.71336504624E+02  0.10570000000E+00 0.  1.
         13    1    3    3    0    0  0.13729385289E+02  0.58584391828E+02 -0.27450260895E+01  0.60234320175E+02  0.10570000000E+00 0. -1.
<mgrwt>
<rscale>  0 0.12499888E+03</rscale>
<asrwt>0</asrwt>
<pdfrwt beam="1">  1        4 0.69621488E-02 0.12499888E+03</pdfrwt>
<pdfrwt beam="2">  1       -4 0.13279517E-01 0.12499888E+03</pdfrwt>
<totfact> 0.10311127E+04</totfact>
</mgrwt>
</event>
<event>
 5    1  0.1685506E-006  0.1249986E+03  0.7818608E-02  0.1235071E+00
          4   -1    0    0  501    0  0.00000000000E+00  0.00000000000E+00  0.86826123945E+02  0.86837734882E+02  0.14200000000E+01 0. -1.
         -4   -1    0    0    0  501 -0.00000000000E+00 -0.00000000000E+00 -0.44962520220E+02  0.44984937752E+02  0.14200000000E+01 0.  1.
         25    2    1    2    0    0  0.00000000000E+00  0.00000000000E+00  0.41863603726E+02  0.13182267263E+03  0.12499862281E+03 0.  0.
        -13    1    3    3    0    0 -0.39740276348E+02 -0.24006443639E+02 -0.23191969161E+02  0.51898723554E+02  0.10570000000E+00 0.  1.
         13    1    3    3    0    0  0.39740276348E+02  0.24006443639E+02  0.65055572886E+02  0.79923949080E+02  0.10570000000E+00 0. -1.
<mgrwt>
<rscale>  0 0.12499862E+03</rscale>
<asrwt>0</asrwt>
<pdfrwt beam="1">  1        4 0.13360483E-01 0.12499862E+03</pdfrwt>
<pdfrwt beam="2">  1       -4 0.69199285E-02 0.12499862E+03</pdfrwt>
<totfact> 0.10305805E+04</totfact>
</mgrwt>
</event>
<event>
 5    1  0.1685506E-006  0.1250006E+03  0.7818608E-02  0.1235068E+00
          4   -1    0    0  501    0  0.00000000000E+00  0.00000000000E+00  0.43271305447E+02  0.43294598683E+02  0.14200000000E+01 0. -1.
         -4   -1    0    0    0  501 -0.00000000000E+00 -0.00000000000E+00 -0.90221204380E+02  0.90232378444E+02  0.14200000000E+01 0.  1.
         25    2    1    2    0    0  0.00000000000E+00  0.00000000000E+00 -0.46949898933E+02  0.13352697713E+03  0.12500064244E+03 0.  0.
        -13    1    3    3    0    0 -0.50067014465E+02  0.27800916295E+02 -0.50216120138E+02  0.76166047413E+02  0.10570000000E+00 0.  1.
         13    1    3    3    0    0  0.50067014465E+02 -0.27800916295E+02  0.32662212057E+01  0.57360929714E+02  0.10570000000E+00 0. -1.
<mgrwt>
<rscale>  0 0.12500064E+03</rscale>
<asrwt>0</asrwt>
<pdfrwt beam="1">  1        4 0.66597753E-02 0.12500064E+03</pdfrwt>
<pdfrwt beam="2">  1       -4 0.13882837E-01 0.12500064E+03</pdfrwt>
<totfact> 0.10269064E+04</totfact>
</mgrwt>
</event>
<event>
 5    1  0.1685506E-006  0.1250006E+03  0.7818608E-02  0.1235068E+00
         -4   -1    0    0    0  501 -0.00000000000E+00  0.00000000000E+00  0.49926295411E+02  0.49946485097E+02  0.14200000000E+01 0.  1.
          4   -1    0    0  501    0  0.00000000000E+00 -0.00000000000E+00 -0.78198571960E+02  0.78211463716E+02  0.14200000000E+01 0. -1.
         25    2    1    2    0    0  0.00000000000E+00  0.00000000000E+00 -0.28272276549E+02  0.12815794881E+03  0.12500055289E+03 0.  0.
        -13    1    3    3    0    0 -0.43050827073E+02  0.27997412577E+02 -0.50659609776E+02  0.72136232628E+02  0.10570000000E+00 0.  1.
         13    1    3    3    0    0  0.43050827073E+02 -0.27997412577E+02  0.22387333227E+02  0.56021716184E+02  0.10570000000E+00 0. -1.
<mgrwt>
<rscale>  0 0.12500055E+03</rscale>
<asrwt>0</asrwt>
<pdfrwt beam="2">  1        4 0.12033094E-01 0.12500055E+03</pdfrwt>
<pdfrwt beam="1">  1       -4 0.76835132E-02 0.12500055E+03</pdfrwt>
<totfact> 0.10383948E+04</totfact>
</mgrwt>
</event>
<event>
 5    1  0.1685506E-006  0.1249990E+03  0.7818608E-02  0.1235071E+00
          4   -1    0    0  501    0  0.00000000000E+00  0.00000000000E+00  0.49435350902E+02  0.49455741010E+02  0.14200000000E+01 0.  1.
         -4   -1    0    0    0  501 -0.00000000000E+00 -0.00000000000E+00 -0.78973018647E+02  0.78985784001E+02  0.14200000000E+01 0. -1.
         25    2    1    2    0    0  0.00000000000E+00  0.00000000000E+00 -0.29537667745E+02  0.12844152501E+03  0.12499900612E+03 0.  0.
        -13    1    3    3    0    0  0.15038649169E+02  0.13366855662E+02 -0.75570603097E+02  0.78203331285E+02  0.10570000000E+00 0. -1.
         13    1    3    3    0    0 -0.15038649169E+02 -0.13366855662E+02  0.46032935353E+02  0.50238193726E+02  0.10570000000E+00 0.  1.
<mgrwt>
<rscale>  0 0.12499901E+03</rscale>
<asrwt>0</asrwt>
<pdfrwt beam="1">  1        4 0.76079890E-02 0.12499901E+03</pdfrwt>
<pdfrwt beam="2">  1       -4 0.12152246E-01 0.12499901E+03</pdfrwt>
<totfact> 0.10378196E+04</totfact>
</mgrwt>
</event>
<event>
 5    1  0.1685506E-006  0.1249996E+03  0.7818608E-02  0.1235070E+00
          4   -1    0    0  501    0  0.00000000000E+00  0.00000000000E+00  0.29914016593E+03  0.29914353624E+03  0.14200000000E+01 0. -1.
         -4   -1    0    0    0  501 -0.00000000000E+00 -0.00000000000E+00 -0.13016114720E+02  0.13093343438E+02  0.14200000000E+01 0.  1.
         25    2    1    2    0    0  0.00000000000E+00  0.00000000000E+00  0.28612405121E+03  0.31223687967E+03  0.12499958539E+03 0.  0.
        -13    1    3    3    0    0 -0.50492395196E+02 -0.33230509796E+02  0.10337253789E+03  0.11974824223E+03  0.10570000000E+00 0.  1.
         13    1    3    3    0    0  0.50492395196E+02  0.33230509796E+02  0.18275151332E+03  0.19248863745E+03  0.10570000000E+00 0. -1.
<mgrwt>
<rscale>  0 0.12499959E+03</rscale>
<asrwt>0</asrwt>
<pdfrwt beam="1">  1        4 0.46027757E-01 0.12499959E+03</pdfrwt>
<pdfrwt beam="2">  1       -4 0.20086794E-02 0.12499959E+03</pdfrwt>
<totfact> 0.74089744E+03</totfact>
</mgrwt>
</event>
<event>
 5    1  0.1685506E-006  0.1250011E+03  0.7818608E-02  0.1235068E+00
          4   -1    0    0  501    0  0.00000000000E+00  0.00000000000E+00  0.40231026388E+03  0.40231276990E+03  0.14200000000E+01 0.  1.
         -4   -1    0    0    0  501 -0.00000000000E+00 -0.00000000000E+00 -0.96552458321E+01  0.97591071353E+01  0.14200000000E+01 0. -1.
         25    2    1    2    0    0  0.00000000000E+00  0.00000000000E+00  0.39265501805E+03  0.41207187704E+03  0.12500107457E+03 0.  0.
        -13    1    3    3    0    0 -0.48081063946E+02 -0.18856427884E+02  0.80293167742E+02  0.95469144446E+02  0.10570000000E+00 0. -1.
         13    1    3    3    0    0  0.48081063946E+02  0.18856427884E+02  0.31236185031E+03  0.31660273259E+03  0.10570000000E+00 0.  1.
<mgrwt>
<rscale>  0 0.12500107E+03</rscale>
<asrwt>0</asrwt>
<pdfrwt beam="1">  1        4 0.61902067E-01 0.12500107E+03</pdfrwt>
<pdfrwt beam="2">  1       -4 0.14936046E-02 0.12500107E+03</pdfrwt>
<totfact> 0.63393882E+03</totfact>
</mgrwt>
</event>
<event>
 5    1  0.1685506E-006  0.1250014E+03  0.7818608E-02  0.1235067E+00
          4   -1    0    0  501    0  0.00000000000E+00  0.00000000000E+00  0.24392914070E+03  0.24393327383E+03  0.14200000000E+01 0. -1.
         -4   -1    0    0    0  501 -0.00000000000E+00 -0.00000000000E+00 -0.15978467045E+02  0.16041440369E+02  0.14200000000E+01 0. -1.
         25    2    1    2    0    0  0.00000000000E+00  0.00000000000E+00  0.22795067365E+03  0.25997471420E+03  0.12500136961E+03 0.  0.
        -13    1    3    3    0    0 -0.56917284513E+02  0.13660051659E+02  0.15954804823E+03  0.16994635963E+03  0.10570000000E+00 0. -1.
         13    1    3    3    0    0  0.56917284513E+02 -0.13660051659E+02  0.68402625424E+02  0.90028354562E+02  0.10570000000E+00 0. -1.
<mgrwt>
<rscale>  0 0.12500137E+03</rscale>
<asrwt>0</asrwt>
<pdfrwt beam="1">  1        4 0.37532719E-01 0.12500137E+03</pdfrwt>
<pdfrwt beam="2">  1       -4 0.24633879E-02 0.12500137E+03</pdfrwt>
<totfact> 0.80907144E+03</totfact>
</mgrwt>
</event>
<event>
 5    1  0.1685506E-006  0.1249990E+03  0.7818608E-02  0.1235071E+00
         -4   -1    0    0    0  501 -0.00000000000E+00  0.00000000000E+00  0.41588525187E+03  0.41588767609E+03  0.14200000000E+01 0. -1.
          4   -1    0    0  501    0  0.00000000000E+00 -0.00000000000E+00 -0.93363322555E+01  0.94437016040E+01  0.14200000000E+01 0. -1.
         25    2    1    2    0    0  0.00000000000E+00  0.00000000000E+00  0.40654891961E+03  0.42533137769E+03  0.12499902724E+03 0.  0.
        -13    1    3    3    0    0  0.61129656263E+02  0.12927755738E+02  0.20834009353E+03  0.21750762628E+03  0.10570000000E+00 0.  1.
         13    1    3    3    0    0 -0.61129656263E+02 -0.12927755738E+02  0.19820882608E+03  0.20782375142E+03  0.10570000000E+00 0.  1.
<mgrwt>
<rscale>  0 0.12499903E+03</rscale>
<asrwt>0</asrwt>
<pdfrwt beam="2">  1        4 0.14448046E-02 0.12499903E+03</pdfrwt>
<pdfrwt beam="1">  1       -4 0.63990786E-01 0.12499903E+03</pdfrwt>
<totfact> 0.62162800E+03</totfact>
</mgrwt>
</event>
<event>
 5    1  0.1685506E-006  0.1249992E+03  0.7818608E-02  0.1235071E+00
         -4   -1    0    0    0  501 -0.00000000000E+00  0.00000000000E+00  0.32269205203E+02  0.32300433503E+02  0.14200000000E+01 0.  1.
          4   -1    0    0  501    0  0.00000000000E+00 -0.00000000000E+00 -0.12095645654E+03  0.12096479149E+03  0.14200000000E+01 0. -1.
         25    2    1    2    0    0  0.00000000000E+00  0.00000000000E+00 -0.88687251338E+02  0.15326522499E+03  0.12499920256E+03 0.  0.
        -13    1    3    3    0    0  0.79871294286E+01 -0.61627630224E+02 -0.52516489595E+02  0.81361857743E+02  0.10570000000E+00 0.  1.
         13    1    3    3    0    0 -0.79871294286E+01  0.61627630224E+02 -0.36170761743E+02  0.71903367245E+02  0.10570000000E+00 0. -1.
<mgrwt>
<rscale>  0 0.12499920E+03</rscale>
<asrwt>0</asrwt>
<pdfrwt beam="2">  1        4 0.18611729E-01 0.12499920E+03</pdfrwt>
<pdfrwt beam="1">  1       -4 0.49675365E-02 0.12499920E+03</pdfrwt>
<totfact> 0.98658531E+03</totfact>
</mgrwt>
</event>
<event>
 5    1  0.1685506E-006  0.1249965E+03  0.7818608E-02  0.1235075E+00
         -4   -1    0    0    0  501 -0.00000000000E+00  0.00000000000E+00  0.85935545768E+02  0.85947277016E+02  0.14200000000E+01 0. -1.
          4   -1    0    0  501    0  0.00000000000E+00 -0.00000000000E+00 -0.45427107718E+02  0.45449296096E+02  0.14200000000E+01 0. -1.
         25    2    1    2    0    0  0.00000000000E+00  0.00000000000E+00  0.40508438050E+02  0.13139657311E+03  0.12499650344E+03 0.  0.
        -13    1    3    3    0    0  0.44432798997E+02 -0.42824832980E+02  0.30648919177E+02  0.68902883580E+02  0.10570000000E+00 0.  1.
         13    1    3    3    0    0 -0.44432798997E+02  0.42824832980E+02  0.98595188729E+01  0.62493689532E+02  0.10570000000E+00 0.  1.
<mgrwt>
<rscale>  0 0.12499650E+03</rscale>
<asrwt>0</asrwt>
<pdfrwt beam="2">  1        4 0.69913950E-02 0.12499650E+03</pdfrwt>
<pdfrwt beam="1">  1       -4 0.13223462E-01 0.12499650E+03</pdfrwt>
<totfact> 0.10315409E+04</totfact>
</mgrwt>
</event>
<event>
 5    1  0.1685506E-006  0.1249763E+03  0.7818608E-02  0.1235106E+00
         -4   -1    0    0    0  501 -0.00000000000E+00  0.00000000000E+00  0.43398341593E+02  0.43421566681E+02  0.14200000000E+01 0.  1.
          4   -1    0    0  501    0  0.00000000000E+00 -0.00000000000E+00 -0.89922178988E+02  0.89933390206E+02  0.14200000000E+01 0. -1.
         25    2    1    2    0    0  0.00000000000E+00  0.00000000000E+00 -0.46523837395E+02  0.13335495689E+03  0.12497630608E+03 0.  0.
        -13    1    3    3    0    0 -0.48037847579E+02  0.18093176267E+02  0.14760728191E+02  0.53412433915E+02  0.10570000000E+00 0.  1.
         13    1    3    3    0    0  0.48037847579E+02 -0.18093176267E+02 -0.61284565586E+02  0.79942522971E+02  0.10570000000E+00 0. -1.
<mgrwt>
<rscale>  0 0.12497631E+03</rscale>
<asrwt>0</asrwt>
<pdfrwt beam="2">  1        4 0.13836830E-01 0.12497631E+03</pdfrwt>
<pdfrwt beam="1">  1       -4 0.66793169E-02 0.12497631E+03</pdfrwt>
<totfact> 0.10278354E+04</totfact>
</mgrwt>
</event>
<event>
 5    1  0.1685506E-006  0.1249945E+03  0.7818608E-02  0.1235078E+00
          4   -1    0    0  501    0  0.00000000000E+00  0.00000000000E+00  0.13706610083E+03  0.13707345621E+03  0.14200000000E+01 0. -1.
         -4   -1    0    0    0  501 -0.00000000000E+00 -0.00000000000E+00 -0.28470711623E+02  0.28506101457E+02  0.14200000000E+01 0.  1.
         25    2    1    2    0    0  0.00000000000E+00  0.00000000000E+00  0.10859538921E+03  0.16557955767E+03  0.12499452532E+03 0.  0.
        -13    1    3    3    0    0 -0.61391735882E+01 -0.48330515905E+02  0.24418960041E+01  0.48780141949E+02  0.10570000000E+00 0.  1.
         13    1    3    3    0    0  0.61391735882E+01  0.48330515905E+02  0.10615349320E+03  0.11679941572E+03  0.10570000000E+00 0. -1.
<mgrwt>
<rscale>  0 0.12499453E+03</rscale>
<asrwt>0</asrwt>
<pdfrwt beam="1">  1        4 0.21090381E-01 0.12499453E+03</pdfrwt>
<pdfrwt beam="2">  1       -4 0.43833976E-02 0.12499453E+03</pdfrwt>
<totfact> 0.96289587E+03</totfact>
</mgrwt>
</event>
<event>
 5    1  0.1685506E-006  0.1249988E+03  0.7818608E-02  0.1235071E+00
          4   -1    0    0  501    0  0.00000000000E+00  0.00000000000E+00  0.10228538317E+02  0.10326635275E+02  0.14200000000E+01 0. -1.
         -4   -1    0    0    0  501 -0.00000000000E+00 -0.00000000000E+00 -0.37996812354E+03  0.37997077691E+03  0.14200000000E+01 0.  1.
         25    2    1    2    0    0  0.00000000000E+00  0.00000000000E+00 -0.36973958522E+03  0.39029741219E+03  0.12499883631E+03 0.  0.
        -13    1    3    3    0    0  0.21349342380E+02  0.51982532759E+02 -0.99462479187E+02  0.11423998455E+03  0.10570000000E+00 0.  1.
         13    1    3    3    0    0 -0.21349342380E+02 -0.51982532759E+02 -0.27027710604E+03  0.27605742764E+03  0.10570000000E+00 0. -1.
<mgrwt>
<rscale>  0 0.12499884E+03</rscale>
<asrwt>0</asrwt>
<pdfrwt beam="1">  1        4 0.15813716E-02 0.12499884E+03</pdfrwt>
<pdfrwt beam="2">  1       -4 0.58464374E-01 0.12499884E+03</pdfrwt>
<totfact> 0.65509207E+03</totfact>
</mgrwt>
</event>
<event>
 5    1  0.1685506E-006  0.1250004E+03  0.7818608E-02  0.1235069E+00
         -4   -1    0    0    0  501 -0.00000000000E+00  0.00000000000E+00  0.71482447423E+02  0.71496550193E+02  0.14200000000E+01 0.  1.
          4   -1    0    0  501    0  0.00000000000E+00 -0.00000000000E+00 -0.54617907528E+02  0.54636363557E+02  0.14200000000E+01 0.  1.
         25    2    1    2    0    0  0.00000000000E+00  0.00000000000E+00  0.16864539895E+02  0.12613291375E+03  0.12500039690E+03 0.  0.
        -13    1    3    3    0    0  0.24137918518E+02 -0.11636151414E+01  0.66593627222E+02  0.70842892866E+02  0.10570000000E+00 0. -1.
         13    1    3    3    0    0 -0.24137918518E+02  0.11636151414E+01 -0.49729087327E+02  0.55290020885E+02  0.10570000000E+00 0. -1.
<mgrwt>
<rscale>  0 0.12500040E+03</rscale>
<asrwt>0</asrwt>
<pdfrwt beam="2">  1        4 0.84052596E-02 0.12500040E+03</pdfrwt>
<pdfrwt beam="1">  1       -4 0.10999804E-01 0.12500040E+03</pdfrwt>
<totfact> 0.10427953E+04</totfact>
</mgrwt>
</event>
<event>
 5    1  0.1685506E-006  0.1249982E+03  0.7818608E-02  0.1235072E+00
          4   -1    0    0  501    0  0.00000000000E+00  0.00000000000E+00  0.78776502776E+02  0.78789299969E+02  0.14200000000E+01 0. -1.
         -4   -1    0    0    0  501 -0.00000000000E+00 -0.00000000000E+00 -0.49558100570E+02  0.49578440194E+02  0.14200000000E+01 0.  1.
         25    2    1    2    0    0  0.00000000000E+00  0.00000000000E+00  0.29218402206E+02  0.12836774016E+03  0.12499824674E+03 0.  0.
        -13    1    3    3    0    0  0.38132501811E+02 -0.47625313618E+02  0.68376959654E+00  0.61014235264E+02  0.10570000000E+00 0.  1.
         13    1    3    3    0    0 -0.38132501811E+02  0.47625313618E+02  0.28534632610E+02  0.67353504899E+02  0.10570000000E+00 0. -1.
<mgrwt>
<rscale>  0 0.12499825E+03</rscale>
<asrwt>0</asrwt>
<pdfrwt beam="1">  1        4 0.12122011E-01 0.12499825E+03</pdfrwt>
<pdfrwt beam="2">  1       -4 0.76268722E-02 0.12499825E+03</pdfrwt>
<totfact> 0.10379964E+04</totfact>
</mgrwt>
</event>
<event>
 5    1  0.1685506E-006  0.1250007E+03  0.7818608E-02  0.1235068E+00
         -4   -1    0    0    0  501 -0.00000000000E+00  0.00000000000E+00  0.13972276994E+02  0.14044248802E+02  0.14200000000E+01 0.  1.
          4   -1    0    0  501    0  0.00000000000E+00 -0.00000000000E+00 -0.27878277072E+03  0.27878638713E+03  0.14200000000E+01 0.  1.
         25    2    1    2    0    0  0.00000000000E+00  0.00000000000E+00 -0.26481049372E+03  0.29283063593E+03  0.12500073502E+03 0.  0.
        -13    1    3    3    0    0  0.53017988241E+02  0.33175793836E+01 -0.55262879501E+02  0.76654487366E+02  0.10570000000E+00 0.  1.
         13    1    3    3    0    0 -0.53017988241E+02 -0.33175793836E+01 -0.20954761422E+03  0.21617614857E+03  0.10570000000E+00 0.  1.
<mgrwt>
<rscale>  0 0.12500074E+03</rscale>
<asrwt>0</asrwt>
<pdfrwt beam="2">  1        4 0.42895467E-01 0.12500074E+03</pdfrwt>
<pdfrwt beam="1">  1       -4 0.21553958E-02 0.12500074E+03</pdfrwt>
<totfact> 0.76505795E+03</totfact>
</mgrwt>
</event>
<event>
 5    1  0.1685506E-006  0.1250003E+03  0.7818608E-02  0.1235069E+00
          4   -1    0    0  501    0  0.00000000000E+00  0.00000000000E+00  0.22910692475E+02  0.22954655948E+02  0.14200000000E+01 0. -1.
         -4   -1    0    0    0  501 -0.00000000000E+00 -0.00000000000E+00 -0.17028949592E+03  0.17029541633E+03  0.14200000000E+01 0.  1.
         25    2    1    2    0    0  0.00000000000E+00  0.00000000000E+00 -0.14737880345E+03  0.19325007227E+03  0.12500031491E+03 0.  0.
        -13    1    3    3    0    0  0.20056455547E+02  0.48860276658E+02 -0.12535138479E+03  0.13602414817E+03  0.10570000000E+00 0.  1.
         13    1    3    3    0    0 -0.20056455547E+02 -0.48860276658E+02 -0.22027418657E+02  0.57225924103E+02  0.10570000000E+00 0. -1.
<mgrwt>
<rscale>  0 0.12500031E+03</rscale>
<asrwt>0</asrwt>
<pdfrwt beam="1">  1        4 0.35285592E-02 0.12500031E+03</pdfrwt>
<pdfrwt beam="2">  1       -4 0.26202220E-01 0.12500031E+03</pdfrwt>
<totfact> 0.91284225E+03</totfact>
</mgrwt>
</event>
<event>
 5    1  0.1685506E-006  0.1249967E+03  0.7818608E-02  0.1235074E+00
         -4   -1    0    0    0  501 -0.00000000000E+00  0.00000000000E+00  0.95995449109E+02  0.96005951115E+02  0.14200000000E+01 0.  1.
          4   -1    0    0  501    0  0.00000000000E+00 -0.00000000000E+00 -0.40664759832E+02  0.40689545245E+02  0.14200000000E+01 0. -1.
         25    2    1    2    0    0  0.00000000000E+00  0.00000000000E+00  0.55330689276E+02  0.13669549636E+03  0.12499669415E+03 0.  0.
        -13    1    3    3    0    0  0.57473182432E+02 -0.16770081844E+02  0.47277885767E+02  0.76286381478E+02  0.10570000000E+00 0.  1.
         13    1    3    3    0    0 -0.57473182432E+02  0.16770081844E+02  0.80528035095E+01  0.60409114882E+02  0.10570000000E+00 0. -1.
<mgrwt>
<rscale>  0 0.12499669E+03</rscale>
<asrwt>0</asrwt>
<pdfrwt beam="2">  1        4 0.62588315E-02 0.12499669E+03</pdfrwt>
<pdfrwt beam="1">  1       -4 0.14771245E-01 0.12499669E+03</pdfrwt>
<totfact> 0.10203217E+04</totfact>
</mgrwt>
</event>
<event>
 5    1  0.1685506E-006  0.1250030E+03  0.7818608E-02  0.1235065E+00
         -4   -1    0    0    0  501 -0.00000000000E+00  0.00000000000E+00  0.27057741174E+03  0.27058113782E+03  0.14200000000E+01 0.  1.
          4   -1    0    0  501    0  0.00000000000E+00 -0.00000000000E+00 -0.14398658284E+02  0.14468509266E+02  0.14200000000E+01 0. -1.
         25    2    1    2    0    0  0.00000000000E+00  0.00000000000E+00  0.25617875345E+03  0.28504964708E+03  0.12500299029E+03 0.  0.
        -13    1    3    3    0    0 -0.20331062722E+02  0.34882488575E+02  0.23688551521E+03  0.24030168249E+03  0.10570000000E+00 0.  1.
         13    1    3    3    0    0  0.20331062722E+02 -0.34882488575E+02  0.19293238246E+02  0.44747964592E+02  0.10570000000E+00 0. -1.
<mgrwt>
<rscale>  0 0.12500299E+03</rscale>
<asrwt>0</asrwt>
<pdfrwt beam="2">  1        4 0.22208383E-02 0.12500299E+03</pdfrwt>
<pdfrwt beam="1">  1       -4 0.41632948E-01 0.12500299E+03</pdfrwt>
<totfact> 0.77508141E+03</totfact>
</mgrwt>
</event>
<event>
 5    1  0.1685506E-006  0.1249995E+03  0.7818608E-02  0.1235070E+00
          4   -1    0    0  501    0  0.00000000000E+00  0.00000000000E+00  0.49690215861E+02  0.49710501428E+02  0.14200000000E+01 0.  1.
         -4   -1    0    0    0  501 -0.00000000000E+00 -0.00000000000E+00 -0.78568657867E+02  0.78581488908E+02  0.14200000000E+01 0.  1.
         25    2    1    2    0    0  0.00000000000E+00  0.00000000000E+00 -0.28878442007E+02  0.12829199034E+03  0.12499948149E+03 0.  0.
        -13    1    3    3    0    0  0.16909103837E+02 -0.41861822486E+02  0.29918109756E+02  0.54161189410E+02  0.10570000000E+00 0.  1.
         13    1    3    3    0    0 -0.16909103837E+02  0.41861822486E+02 -0.58796551762E+02  0.74130800927E+02  0.10570000000E+00 0.  1.
<mgrwt>
<rscale>  0 0.12499948E+03</rscale>
<asrwt>0</asrwt>
<pdfrwt beam="1">  1        4 0.76471961E-02 0.12499948E+03</pdfrwt>
<pdfrwt beam="2">  1       -4 0.12090033E-01 0.12499948E+03</pdfrwt>
<totfact> 0.10381308E+04</totfact>
</mgrwt>
</event>
<event>
 5    1  0.1685506E-006  0.1249982E+03  0.7818608E-02  0.1235072E+00
          4   -1    0    0  501    0  0.00000000000E+00  0.00000000000E+00  0.22902145582E+03  0.22902585798E+03  0.14200000000E+01 0.  1.
         -4   -1    0    0    0  501 -0.00000000000E+00 -0.00000000000E+00 -0.17021644211E+02  0.17080771986E+02  0.14200000000E+01 0.  1.
         25    2    1    2    0    0  0.00000000000E+00  0.00000000000E+00  0.21199981161E+03  0.24610662997E+03  0.12499821276E+03 0.  0.
        -13    1    3    3    0    0 -0.20815666718E+02  0.58060026177E+02  0.86128001961E+02  0.10593536952E+03  0.10570000000E+00 0. -1.
         13    1    3    3    0    0  0.20815666718E+02 -0.58060026177E+02  0.12587180965E+03  0.14017126045E+03  0.10570000000E+00 0. -1.
<mgrwt>
<rscale>  0 0.12499821E+03</rscale>
<asrwt>0</asrwt>
<pdfrwt beam="1">  1        4 0.35238958E-01 0.12499821E+03</pdfrwt>
<pdfrwt beam="2">  1       -4 0.26236014E-02 0.12499821E+03</pdfrwt>
<totfact> 0.82899517E+03</totfact>
</mgrwt>
</event>
<event>
 5    1  0.1685506E-006  0.1249981E+03  0.7818608E-02  0.1235072E+00
          4   -1    0    0  501    0  0.00000000000E+00  0.00000000000E+00  0.62847107425E+02  0.62863147484E+02  0.14200000000E+01 0.  1.
         -4   -1    0    0    0  501 -0.00000000000E+00 -0.00000000000E+00 -0.62120853280E+02  0.62137080815E+02  0.14200000000E+01 0. -1.
         25    2    1    2    0    0  0.00000000000E+00  0.00000000000E+00  0.72625414500E+00  0.12500022830E+03  0.12499811850E+03 0.  0.
        -13    1    3    3    0    0  0.51702656740E+02  0.30957118399E+02 -0.16208614288E+02  0.62403831959E+02  0.10570000000E+00 0. -1.
         13    1    3    3    0    0 -0.51702656740E+02 -0.30957118399E+02  0.16934868433E+02  0.62596396341E+02  0.10570000000E+00 0.  1.
<mgrwt>
<rscale>  0 0.12499812E+03</rscale>
<asrwt>0</asrwt>
<pdfrwt beam="1">  1        4 0.96712679E-02 0.12499812E+03</pdfrwt>
<pdfrwt beam="2">  1       -4 0.95595365E-02 0.12499812E+03</pdfrwt>
<totfact> 0.10453302E+04</totfact>
</mgrwt>
</event>
<event>
 5    1  0.1685506E-006  0.1250071E+03  0.7818608E-02  0.1235058E+00
         -4   -1    0    0    0  501 -0.00000000000E+00  0.00000000000E+00  0.10036308697E+03  0.10037313199E+03  0.14200000000E+01 0.  1.
          4   -1    0    0  501    0  0.00000000000E+00 -0.00000000000E+00 -0.38900653670E+02  0.38926562345E+02  0.14200000000E+01 0. -1.
         25    2    1    2    0    0  0.00000000000E+00  0.00000000000E+00  0.61462433297E+02  0.13929969434E+03  0.12500709634E+03 0.  0.
        -13    1    3    3    0    0 -0.36546892326E+02 -0.50699355597E+02  0.31581596593E+02  0.70025055605E+02  0.10570000000E+00 0.  1.
         13    1    3    3    0    0  0.36546892326E+02  0.50699355597E+02  0.29880836704E+02  0.69274638730E+02  0.10570000000E+00 0. -1.
<mgrwt>
<rscale>  0 0.12500710E+03</rscale>
<asrwt>0</asrwt>
<pdfrwt beam="2">  1        4 0.59874817E-02 0.12500710E+03</pdfrwt>
<pdfrwt beam="1">  1       -4 0.15443240E-01 0.12500710E+03</pdfrwt>
<totfact> 0.10146498E+04</totfact>
</mgrwt>
</event>
<event>
 4    1  0.1685506E-006  0.1251651E+03  0.7818608E-02  0.1234811E+00
          4   -1    0    0  501    0  0.00000000000E+00  0.00000000000E+00  0.24635600031E+03  0.24636009272E+03  0.14200000000E+01 0.  1.
         -4   -1    0    0    0  501 -0.00000000000E+00 -0.00000000000E+00 -0.15862101772E+02  0.15925535238E+02  0.14200000000E+01 0. -1.
        -13    1    1    2    0    0 -0.27771327653E+02 -0.25489381186E+02  0.10563115320E+02  0.39147742854E+02  0.10570000000E+00 0. -1.
         13    1    1    2    0    0  0.27771327653E+02  0.25489381186E+02  0.21993078321E+03  0.22313788511E+03  0.10570000000E+00 0.  1.
<mgrwt>
<rscale>  0 0.12516514E+03</rscale>
<asrwt>0</asrwt>
<pdfrwt beam="1">  1        4 0.37906118E-01 0.12516514E+03</pdfrwt>
<pdfrwt beam="2">  1       -4 0.24455176E-02 0.12516514E+03</pdfrwt>
<totfact> 0.80290892E+03</totfact>
</mgrwt>
</event>
<event>
 5    1  0.1685506E-006  0.1249989E+03  0.7818608E-02  0.1235071E+00
          4   -1    0    0  501    0  0.00000000000E+00  0.00000000000E+00  0.29667806692E+02  0.29701770215E+02  0.14200000000E+01 0. -1.
         -4   -1    0    0    0  501 -0.00000000000E+00 -0.00000000000E+00 -0.13155080806E+03  0.13155847179E+03  0.14200000000E+01 0.  1.
         25    2    1    2    0    0  0.00000000000E+00  0.00000000000E+00 -0.10188300137E+03  0.16126024201E+03  0.12499887874E+03 0.  0.
        -13    1    3    3    0    0  0.28735656098E+02 -0.94491347000E+01 -0.12149846697E+03  0.12520747871E+03  0.10570000000E+00 0.  1.
         13    1    3    3    0    0 -0.28735656098E+02  0.94491347000E+01  0.19615465601E+02  0.36052763295E+02  0.10570000000E+00 0. -1.
<mgrwt>
<rscale>  0 0.12499888E+03</rscale>
<asrwt>0</asrwt>
<pdfrwt beam="1">  1        4 0.45674801E-02 0.12499888E+03</pdfrwt>
<pdfrwt beam="2">  1       -4 0.20241788E-01 0.12499888E+03</pdfrwt>
<totfact> 0.97102816E+03</totfact>
</mgrwt>
</event>
<event>
 5    1  0.1685506E-006  0.1250004E+03  0.7818608E-02  0.1235069E+00
          4   -1    0    0  501    0  0.00000000000E+00  0.00000000000E+00  0.21516802892E+02  0.21563608387E+02  0.14200000000E+01 0. -1.
         -4   -1    0    0    0  501 -0.00000000000E+00 -0.00000000000E+00 -0.18129837996E+03  0.18130394088E+03  0.14200000000E+01 0. -1.
         25    2    1    2    0    0  0.00000000000E+00  0.00000000000E+00 -0.15978157707E+03  0.20286754926E+03  0.12500036069E+03 0.  0.
        -13    1    3    3    0    0 -0.35955414595E+01  0.31915585796E+02  0.71253404362E+01  0.32898543796E+02  0.10570000000E+00 0. -1.
         13    1    3    3    0    0  0.35955414595E+01 -0.31915585796E+02 -0.16690691751E+03  0.16996900547E+03  0.10570000000E+00 0. -1.
<mgrwt>
<rscale>  0 0.12500036E+03</rscale>
<asrwt>0</asrwt>
<pdfrwt beam="1">  1        4 0.33143057E-02 0.12500036E+03</pdfrwt>
<pdfrwt beam="2">  1       -4 0.27896086E-01 0.12500036E+03</pdfrwt>
<totfact> 0.89653392E+03</totfact>
</mgrwt>
</event>
<event>
 5    1  0.1685506E-006  0.1249992E+03  0.7818608E-02  0.1235071E+00
         -4   -1    0    0    0  501 -0.00000000000E+00  0.00000000000E+00  0.29774194279E+02  0.29808036584E+02  0.14200000000E+01 0.  1.
          4   -1    0    0  501    0  0.00000000000E+00 -0.00000000000E+00 -0.13108196727E+03  0.13108965841E+03  0.14200000000E+01 0. -1.
         25    2    1    2    0    0  0.00000000000E+00  0.00000000000E+00 -0.10130777299E+03  0.16089769500E+03  0.12499921355E+03 0.  0.
        -13    1    3    3    0    0 -0.23580579126E+02  0.30001054141E+02  0.13059826510E+02  0.40332086512E+02  0.10570000000E+00 0.  1.
         13    1    3    3    0    0  0.23580579126E+02 -0.30001054141E+02 -0.11436759950E+03  0.12056560848E+03  0.10570000000E+00 0. -1.
<mgrwt>
<rscale>  0 0.12499921E+03</rscale>
<asrwt>0</asrwt>
<pdfrwt beam="2">  1        4 0.20169651E-01 0.12499921E+03</pdfrwt>
<pdfrwt beam="1">  1       -4 0.45838402E-02 0.12499921E+03</pdfrwt>
<totfact> 0.97171713E+03</totfact>
</mgrwt>
</event>
<event>
 5    1  0.1685506E-006  0.1250014E+03  0.7818608E-02  0.1235067E+00
         -4   -1    0    0    0  501 -0.00000000000E+00  0.00000000000E+00  0.23308983670E+03  0.23309416203E+03  0.14200000000E+01 0.  1.
          4   -1    0    0  501    0  0.00000000000E+00 -0.00000000000E+00 -0.16724360789E+02  0.16784535853E+02  0.14200000000E+01 0. -1.
         25    2    1    2    0    0  0.00000000000E+00  0.00000000000E+00  0.21636547591E+03  0.24987869789E+03  0.12500137795E+03 0.  0.
        -13    1    3    3    0    0  0.36561626632E+02 -0.28952051189E+02  0.19136045808E+03  0.19696144267E+03  0.10570000000E+00 0.  1.
         13    1    3    3    0    0 -0.36561626632E+02  0.28952051189E+02  0.25005017829E+02  0.52917255212E+02  0.10570000000E+00 0. -1.
<mgrwt>
<rscale>  0 0.12500138E+03</rscale>
<asrwt>0</asrwt>
<pdfrwt beam="2">  1        4 0.25779402E-02 0.12500138E+03</pdfrwt>
<pdfrwt beam="1">  1       -4 0.35864936E-01 0.12500138E+03</pdfrwt>
<totfact> 0.82345235E+03</totfact>
</mgrwt>
</event>
<event>
 4    1  0.1685506E-006  0.1253189E+03  0.7818608E-02  0.1234572E+00
          4   -1    0    0  501    0  0.00000000000E+00  0.00000000000E+00  0.90393777936E+02  0.90404930671E+02  0.14200000000E+01 0.  1.
         -4   -1    0    0    0  501 -0.00000000000E+00 -0.00000000000E+00 -0.43409070039E+02  0.43432289390E+02  0.14200000000E+01 0. -1.
        -13    1    1    2    0    0 -0.11495234167E+01  0.51736581345E+02 -0.14239037516E+02  0.53672680343E+02  0.10570000000E+00 0. -1.
         13    1    1    2    0    0  0.11495234167E+01 -0.51736581345E+02  0.61223745413E+02  0.80164539718E+02  0.10570000000E+00 0.  1.
<mgrwt>
<rscale>  0 0.12531895E+03</rscale>
<asrwt>0</asrwt>
<pdfrwt beam="1">  1        4 0.13909379E-01 0.12531895E+03</pdfrwt>
<pdfrwt beam="2">  1       -4 0.66809625E-02 0.12531895E+03</pdfrwt>
<totfact> 0.10189157E+04</totfact>
</mgrwt>
</event>
<event>
 5    1  0.1685506E-006  0.1249966E+03  0.7818608E-02  0.1235075E+00
          4   -1    0    0  501    0  0.00000000000E+00  0.00000000000E+00  0.98200493027E+02  0.98210759242E+02  0.14200000000E+01 0.  1.
         -4   -1    0    0    0  501 -0.00000000000E+00 -0.00000000000E+00 -0.39751112770E+02  0.39776467496E+02  0.14200000000E+01 0.  1.
         25    2    1    2    0    0  0.00000000000E+00  0.00000000000E+00  0.58449380257E+02  0.13798722674E+03  0.12499657871E+03 0.  0.
        -13    1    3    3    0    0 -0.38803218932E+02 -0.22606238670E+02 -0.18758645795E+02  0.48668570873E+02  0.10570000000E+00 0. -1.
         13    1    3    3    0    0  0.38803218932E+02  0.22606238670E+02  0.77208026052E+02  0.89318655865E+02  0.10570000000E+00 0. -1.
<mgrwt>
<rscale>  0 0.12499658E+03</rscale>
<asrwt>0</asrwt>
<pdfrwt beam="1">  1        4 0.15110508E-01 0.12499658E+03</pdfrwt>
<pdfrwt beam="2">  1       -4 0.61182959E-02 0.12499658E+03</pdfrwt>
<totfact> 0.10176257E+04</totfact>
</mgrwt>
</event>
<event>
 5    1  0.1685506E-006  0.1250019E+03  0.7818608E-02  0.1235066E+00
         -4   -1    0    0    0  501 -0.00000000000E+00  0.00000000000E+00  0.55260961194E+02  0.55279202528E+02  0.14200000000E+01 0. -1.
          4   -1    0    0  501    0  0.00000000000E+00 -0.00000000000E+00 -0.70652402553E+02  0.70666670974E+02  0.14200000000E+01 0. -1.
         25    2    1    2    0    0  0.00000000000E+00  0.00000000000E+00 -0.15391441359E+02  0.12594587350E+03  0.12500186633E+03 0.  0.
        -13    1    3    3    0    0  0.36346688889E+02 -0.24857529766E+02 -0.52385810638E+02  0.68434369347E+02  0.10570000000E+00 0. -1.
         13    1    3    3    0    0 -0.36346688889E+02  0.24857529766E+02  0.36994369279E+02  0.57511504155E+02  0.10570000000E+00 0. -1.
<mgrwt>
<rscale>  0 0.12500187E+03</rscale>
<asrwt>0</asrwt>
<pdfrwt beam="2">  1        4 0.10872101E-01 0.12500187E+03</pdfrwt>
<pdfrwt beam="1">  1       -4 0.85041871E-02 0.12500187E+03</pdfrwt>
<totfact> 0.10431704E+04</totfact>
</mgrwt>
</event>
<event>
 5    1  0.1685506E-006  0.1250005E+03  0.7818608E-02  0.1235069E+00
         -4   -1    0    0    0  501 -0.00000000000E+00  0.00000000000E+00  0.21866842119E+03  0.21867303178E+03  0.14200000000E+01 0.  1.
          4   -1    0    0  501    0  0.00000000000E+00 -0.00000000000E+00 -0.17830910727E+02  0.17887363622E+02  0.14200000000E+01 0. -1.
         25    2    1    2    0    0  0.00000000000E+00  0.00000000000E+00  0.20083751046E+03  0.23656039540E+03  0.12500046025E+03 0.  0.
        -13    1    3    3    0    0 -0.31993336894E+02 -0.44495927831E+02  0.15728148941E+03  0.16655611452E+03  0.10570000000E+00 0.  1.
         13    1    3    3    0    0  0.31993336894E+02  0.44495927831E+02  0.43556021050E+02  0.70004280879E+02  0.10570000000E+00 0. -1.
<mgrwt>
<rscale>  0 0.12500046E+03</rscale>
<asrwt>0</asrwt>
<pdfrwt beam="2">  1        4 0.27479140E-02 0.12500046E+03</pdfrwt>
<pdfrwt beam="1">  1       -4 0.33645995E-01 0.12500046E+03</pdfrwt>
<totfact> 0.84311448E+03</totfact>
</mgrwt>
</event>
<event>
 5    1  0.1685506E-006  0.1249967E+03  0.7818608E-02  0.1235074E+00
          4   -1    0    0  501    0  0.00000000000E+00  0.00000000000E+00  0.67670272149E+02  0.67685169223E+02  0.14200000000E+01 0. -1.
         -4   -1    0    0    0  501 -0.00000000000E+00 -0.00000000000E+00 -0.57691753801E+02  0.57709226790E+02  0.14200000000E+01 0.  1.
         25    2    1    2    0    0  0.00000000000E+00  0.00000000000E+00  0.99785183483E+01  0.12539439601E+03  0.12499673485E+03 0.  0.
        -13    1    3    3    0    0 -0.12696539417E+02 -0.60815964724E+02  0.11811709739E+02  0.63240108617E+02  0.10570000000E+00 0.  1.
         13    1    3    3    0    0  0.12696539417E+02  0.60815964724E+02 -0.18331913911E+01  0.62154287395E+02  0.10570000000E+00 0. -1.
<mgrwt>
<rscale>  0 0.12499673E+03</rscale>
<asrwt>0</asrwt>
<pdfrwt beam="1">  1        4 0.10413301E-01 0.12499673E+03</pdfrwt>
<pdfrwt beam="2">  1       -4 0.88781444E-02 0.12499673E+03</pdfrwt>
<totfact> 0.10445060E+04</totfact>
</mgrwt>
</event>
<event>
 5    1  0.1685506E-006  0.1250011E+03  0.7818608E-02  0.1235068E+00
         -4   -1    0    0    0  501 -0.00000000000E+00  0.00000000000E+00  0.77273008587E+02  0.77286054732E+02  0.14200000000E+01 0.  1.
          4   -1    0    0  501    0  0.00000000000E+00 -0.00000000000E+00 -0.50524851839E+02  0.50544802437E+02  0.14200000000E+01 0. -1.
         25    2    1    2    0    0  0.00000000000E+00  0.00000000000E+00  0.26748156748E+02  0.12783085717E+03  0.12500105662E+03 0.  0.
        -13    1    3    3    0    0 -0.55572556363E+02  0.19827186105E+02  0.34453292399E+02  0.68326179896E+02  0.10570000000E+00 0.  1.
         13    1    3    3    0    0  0.55572556363E+02 -0.19827186105E+02 -0.77051356509E+01  0.59504677274E+02  0.10570000000E+00 0. -1.
<mgrwt>
<rscale>  0 0.12500106E+03</rscale>
<asrwt>0</asrwt>
<pdfrwt beam="2">  1        4 0.77755924E-02 0.12500106E+03</pdfrwt>
<pdfrwt beam="1">  1       -4 0.11890693E-01 0.12500106E+03</pdfrwt>
<totfact> 0.10390894E+04</totfact>
</mgrwt>
</event>
<event>
 5    1  0.1685506E-006  0.1249989E+03  0.7818608E-02  0.1235071E+00
          4   -1    0    0  501    0  0.00000000000E+00  0.00000000000E+00  0.42659301556E+02  0.42682928780E+02  0.14200000000E+01 0. -1.
         -4   -1    0    0    0  501 -0.00000000000E+00 -0.00000000000E+00 -0.91512400870E+02  0.91523417293E+02  0.14200000000E+01 0. -1.
         25    2    1    2    0    0  0.00000000000E+00  0.00000000000E+00 -0.48853099314E+02  0.13420634607E+03  0.12499887205E+03 0.  0.
        -13    1    3    3    0    0  0.22612094017E+01 -0.17009053582E+02  0.40098097776E+02  0.43615244921E+02  0.10570000000E+00 0. -1.
         13    1    3    3    0    0 -0.22612094017E+01  0.17009053582E+02 -0.88951197090E+02  0.90591101152E+02  0.10570000000E+00 0. -1.
<mgrwt>
<rscale>  0 0.12499887E+03</rscale>
<asrwt>0</asrwt>
<pdfrwt beam="1">  1        4 0.65656344E-02 0.12499887E+03</pdfrwt>
<pdfrwt beam="2">  1       -4 0.14081496E-01 0.12499887E+03</pdfrwt>
<totfact> 0.10255087E+04</totfact>
</mgrwt>
</event>
<event>
 5    1  0.1685506E-006  0.1249999E+03  0.7818608E-02  0.1235069E+00
         -4   -1    0    0    0  501 -0.00000000000E+00  0.00000000000E+00  0.24056881264E+03  0.24057300351E+03  0.14200000000E+01 0.  1.
          4   -1    0    0  501    0  0.00000000000E+00 -0.00000000000E+00 -0.16202150563E+02  0.16264257834E+02  0.14200000000E+01 0. -1.
         25    2    1    2    0    0  0.00000000000E+00  0.00000000000E+00  0.22436666208E+03  0.25683726134E+03  0.12499991904E+03 0.  0.
        -13    1    3    3    0    0  0.51353132436E+02 -0.41528933802E+01  0.18488146058E+03  0.19192591377E+03  0.10570000000E+00 0.  1.
         13    1    3    3    0    0 -0.51353132436E+02  0.41528933802E+01  0.39485201495E+02  0.64911347575E+02  0.10570000000E+00 0. -1.
<mgrwt>
<rscale>  0 0.12499992E+03</rscale>
<asrwt>0</asrwt>
<pdfrwt beam="2">  1        4 0.24977385E-02 0.12499992E+03</pdfrwt>
<pdfrwt beam="1">  1       -4 0.37015685E-01 0.12499992E+03</pdfrwt>
<totfact> 0.81352111E+03</totfact>
</mgrwt>
</event>
<event>
 4    1  0.1685506E-006  0.1250546E+03  0.7818608E-02  0.1234984E+00
         -4   -1    0    0    0  501 -0.00000000000E+00  0.00000000000E+00  0.38144988256E+02  0.38171409838E+02  0.14200000000E+01 0.  1.
          4   -1    0    0  501    0  0.00000000000E+00 -0.00000000000E+00 -0.10242797830E+03  0.10243782084E+03  0.14200000000E+01 0. -1.
        -13    1    1    2    0    0 -0.19214646742E+02  0.45322340774E+02  0.11206846887E+02  0.50486847915E+02  0.10570000000E+00 0.  1.
         13    1    1    2    0    0  0.19214646742E+02 -0.45322340774E+02 -0.75489836931E+02  0.90122382764E+02  0.10570000000E+00 0. -1.
<mgrwt>
<rscale>  0 0.12505460E+03</rscale>
<asrwt>0</asrwt>
<pdfrwt beam="2">  1        4 0.15760940E-01 0.12505460E+03</pdfrwt>
<pdfrwt beam="1">  1       -4 0.58712493E-02 0.12505460E+03</pdfrwt>
<totfact> 0.10108536E+04</totfact>
</mgrwt>
</event>
<event>
 5    1  0.1685506E-006  0.1250005E+03  0.7818608E-02  0.1235069E+00
         -4   -1    0    0    0  501 -0.00000000000E+00  0.00000000000E+00  0.88546338444E+02  0.88557723841E+02  0.14200000000E+01 0.  1.
          4   -1    0    0  501    0  0.00000000000E+00 -0.00000000000E+00 -0.44090016778E+02  0.44112877706E+02  0.14200000000E+01 0. -1.
         25    2    1    2    0    0  0.00000000000E+00  0.00000000000E+00  0.44456321666E+02  0.13267060155E+03  0.12500049591E+03 0.  0.
        -13    1    3    3    0    0 -0.13901420899E+02 -0.48808254579E+02  0.60946365794E+02  0.79309305218E+02  0.10570000000E+00 0.  1.
         13    1    3    3    0    0  0.13901420899E+02  0.48808254579E+02 -0.16490044129E+02  0.53361296329E+02  0.10570000000E+00 0. -1.
<mgrwt>
<rscale>  0 0.12500050E+03</rscale>
<asrwt>0</asrwt>
<pdfrwt beam="2">  1        4 0.67857140E-02 0.12500050E+03</pdfrwt>
<pdfrwt beam="1">  1       -4 0.13625148E-01 0.12500050E+03</pdfrwt>
<totfact> 0.10287291E+04</totfact>
</mgrwt>
</event>
<event>
 5    1  0.1685506E-006  0.1249993E+03  0.7818608E-02  0.1235070E+00
         -4   -1    0    0    0  501 -0.00000000000E+00  0.00000000000E+00  0.37369830925E+02  0.37396800175E+02  0.14200000000E+01 0.  1.
          4   -1    0    0  501    0  0.00000000000E+00 -0.00000000000E+00 -0.10445879764E+03  0.10446844885E+03  0.14200000000E+01 0.  1.
         25    2    1    2    0    0  0.00000000000E+00  0.00000000000E+00 -0.67088966715E+02  0.14186524902E+03  0.12499927770E+03 0.  0.
        -13    1    3    3    0    0  0.36204052594E+02  0.34772765705E+02 -0.75801563618E+02  0.90916263003E+02  0.10570000000E+00 0. -1.
         13    1    3    3    0    0 -0.36204052594E+02 -0.34772765705E+02  0.87125969033E+01  0.50948986018E+02  0.10570000000E+00 0. -1.
<mgrwt>
<rscale>  0 0.12499928E+03</rscale>
<asrwt>0</asrwt>
<pdfrwt beam="2">  1        4 0.16073401E-01 0.12499928E+03</pdfrwt>
<pdfrwt beam="1">  1       -4 0.57520218E-02 0.12499928E+03</pdfrwt>
<totfact> 0.10095237E+04</totfact>
</mgrwt>
</event>
<event>
 5    1  0.1685506E-006  0.1249973E+03  0.7818608E-02  0.1235073E+00
          4   -1    0    0  501    0  0.00000000000E+00  0.00000000000E+00  0.61518550340E+02  0.61534936710E+02  0.14200000000E+01 0. -1.
         -4   -1    0    0    0  501 -0.00000000000E+00 -0.00000000000E+00 -0.63461624152E+02  0.63477508930E+02  0.14200000000E+01 0.  1.
         25    2    1    2    0    0  0.00000000000E+00  0.00000000000E+00 -0.19430738123E+01  0.12501244564E+03  0.12499734409E+03 0.  0.
        -13    1    3    3    0    0  0.60047211623E+01 -0.60764309796E+02 -0.14304119453E+02  0.62713451723E+02  0.10570000000E+00 0.  1.
         13    1    3    3    0    0 -0.60047211623E+01  0.60764309796E+02  0.12361045641E+02  0.62298993917E+02  0.10570000000E+00 0. -1.
<mgrwt>
<rscale>  0 0.12499734E+03</rscale>
<asrwt>0</asrwt>
<pdfrwt beam="1">  1        4 0.94668748E-02 0.12499734E+03</pdfrwt>
<pdfrwt beam="2">  1       -4 0.97658092E-02 0.12499734E+03</pdfrwt>
<totfact> 0.10453220E+04</totfact>
</mgrwt>
</event>
<event>
 5    1  0.1685506E-006  0.1249995E+03  0.7818608E-02  0.1235070E+00
         -4   -1    0    0    0  501 -0.00000000000E+00  0.00000000000E+00  0.39184476678E+02  0.39210197813E+02  0.14200000000E+01 0. -1.
          4   -1    0    0  501    0  0.00000000000E+00 -0.00000000000E+00 -0.99624452769E+02  0.99634572260E+02  0.14200000000E+01 0.  1.
         25    2    1    2    0    0  0.00000000000E+00  0.00000000000E+00 -0.60439976091E+02  0.13884477007E+03  0.12499951787E+03 0.  0.
        -13    1    3    3    0    0 -0.44989376003E+02  0.88464691777E+01  0.16956758327E+02  0.48886059317E+02  0.10570000000E+00 0. -1.
         13    1    3    3    0    0  0.44989376003E+02 -0.88464691777E+01 -0.77396734418E+02  0.89958710757E+02  0.10570000000E+00 0.  1.
<mgrwt>
<rscale>  0 0.12499952E+03</rscale>
<asrwt>0</asrwt>
<pdfrwt beam="2">  1        4 0.15329596E-01 0.12499952E+03</pdfrwt>
<pdfrwt beam="1">  1       -4 0.60311380E-02 0.12499952E+03</pdfrwt>
<totfact> 0.10157695E+04</totfact>
</mgrwt>
</event>
<event>
 5    1  0.1685506E-006  0.1249982E+03  0.7818608E-02  0.1235072E+00
          4   -1    0    0  501    0  0.00000000000E+00  0.00000000000E+00  0.34978356882E+02  0.35007168554E+02  0.14200000000E+01 0. -1.
         -4   -1    0    0    0  501 -0.00000000000E+00 -0.00000000000E+00 -0.11159375102E+03  0.11160278521E+03  0.14200000000E+01 0.  1.
         25    2    1    2    0    0  0.00000000000E+00  0.00000000000E+00 -0.76615394141E+02  0.14660995377E+03  0.12499823968E+03 0.  0.
        -13    1    3    3    0    0  0.37858955319E+02  0.29898437025E+02 -0.84913338709E+02  0.97660141806E+02  0.10570000000E+00 0.  1.
         13    1    3    3    0    0 -0.37858955319E+02 -0.29898437025E+02  0.82979445683E+01  0.48949811960E+02  0.10570000000E+00 0. -1.
<mgrwt>
<rscale>  0 0.12499824E+03</rscale>
<asrwt>0</asrwt>
<pdfrwt beam="1">  1        4 0.53841969E-02 0.12499824E+03</pdfrwt>
<pdfrwt beam="2">  1       -4 0.17171180E-01 0.12499824E+03</pdfrwt>
<totfact> 0.99987760E+03</totfact>
</mgrwt>
</event>
<event>
 5    1  0.1685506E-006  0.1250067E+03  0.7818608E-02  0.1235059E+00
         -4   -1    0    0    0  501 -0.00000000000E+00  0.00000000000E+00  0.16983101474E+03  0.16983695113E+03  0.14200000000E+01 0.  1.
          4   -1    0    0  501    0  0.00000000000E+00 -0.00000000000E+00 -0.22975028057E+02  0.23018868656E+02  0.14200000000E+01 0. -1.
         25    2    1    2    0    0  0.00000000000E+00  0.00000000000E+00  0.14685598669E+03  0.19285581979E+03  0.12500674542E+03 0.  0.
        -13    1    3    3    0    0  0.30116099639E+02 -0.52444943209E+02  0.97782597559E+02  0.11497347122E+03  0.10570000000E+00 0.  1.
         13    1    3    3    0    0 -0.30116099639E+02  0.52444943209E+02  0.49073389129E+02  0.77882348570E+02  0.10570000000E+00 0. -1.
<mgrwt>
<rscale>  0 0.12500675E+03</rscale>
<asrwt>0</asrwt>
<pdfrwt beam="2">  1        4 0.35384488E-02 0.12500675E+03</pdfrwt>
<pdfrwt beam="1">  1       -4 0.26131676E-01 0.12500675E+03</pdfrwt>
<totfact> 0.91338975E+03</totfact>
</mgrwt>
</event>
<event>
 5    1  0.1685506E-006  0.1250025E+03  0.7818608E-02  0.1235065E+00
          4   -1    0    0  501    0  0.00000000000E+00  0.00000000000E+00  0.16307623883E+03  0.16308242109E+03  0.14200000000E+01 0. -1.
         -4   -1    0    0    0  501 -0.00000000000E+00 -0.00000000000E+00 -0.23926802821E+02  0.23968902629E+02  0.14200000000E+01 0.  1.
         25    2    1    2    0    0  0.00000000000E+00  0.00000000000E+00  0.13914943601E+03  0.18705132372E+03  0.12500252864E+03 0.  0.
        -13    1    3    3    0    0 -0.45875069014E+02 -0.10100159997E+02  0.78798869200E+01  0.47630231779E+02  0.10570000000E+00 0.  1.
         13    1    3    3    0    0  0.45875069014E+02  0.10100159997E+02  0.13126954909E+03  0.13942109194E+03  0.10570000000E+00 0. -1.
<mgrwt>
<rscale>  0 0.12500253E+03</rscale>
<asrwt>0</asrwt>
<pdfrwt beam="1">  1        4 0.25092366E-01 0.12500253E+03</pdfrwt>
<pdfrwt beam="2">  1       -4 0.36847606E-02 0.12500253E+03</pdfrwt>
<totfact> 0.92357688E+03</totfact>
</mgrwt>
</event>
<event>
 5    1  0.1685506E-006  0.1250034E+03  0.7818608E-02  0.1235064E+00
          4   -1    0    0  501    0  0.00000000000E+00  0.00000000000E+00  0.58186057611E+02  0.58203382207E+02  0.14200000000E+01 0. -1.
         -4   -1    0    0    0  501 -0.00000000000E+00 -0.00000000000E+00 -0.67102554429E+02  0.67117577511E+02  0.14200000000E+01 0.  1.
         25    2    1    2    0    0  0.00000000000E+00  0.00000000000E+00 -0.89164968180E+01  0.12532095972E+03  0.12500335607E+03 0.  0.
        -13    1    3    3    0    0  0.45969272891E+02 -0.29795089890E+02  0.25710186333E+02  0.60514017264E+02  0.10570000000E+00 0.  1.
         13    1    3    3    0    0 -0.45969272891E+02  0.29795089890E+02 -0.34626683151E+02  0.64806942454E+02  0.10570000000E+00 0. -1.
<mgrwt>
<rscale>  0 0.12500336E+03</rscale>
<asrwt>0</asrwt>
<pdfrwt beam="1">  1        4 0.89541895E-02 0.12500336E+03</pdfrwt>
<pdfrwt beam="2">  1       -4 0.10325958E-01 0.12500336E+03</pdfrwt>
<totfact> 0.10445103E+04</totfact>
</mgrwt>
</event>
<event>
 5    1  0.1685506E-006  0.1249936E+03  0.7818608E-02  0.1235079E+00
         -4   -1    0    0    0  501 -0.00000000000E+00  0.00000000000E+00  0.30925273115E+02  0.30957857116E+02  0.14200000000E+01 0.  1.
          4   -1    0    0  501    0  0.00000000000E+00 -0.00000000000E+00 -0.12619652769E+03  0.12620451656E+03  0.14200000000E+01 0. -1.
         25    2    1    2    0    0  0.00000000000E+00  0.00000000000E+00 -0.95271254570E+02  0.15716237368E+03  0.12499359884E+03 0.  0.
        -13    1    3    3    0    0  0.50987547300E+02  0.32133766290E+02 -0.68430830581E+02  0.91187162815E+02  0.10570000000E+00 0.  1.
         13    1    3    3    0    0 -0.50987547300E+02 -0.32133766290E+02 -0.26840423989E+02  0.65975210861E+02  0.10570000000E+00 0. -1.
<mgrwt>
<rscale>  0 0.12499360E+03</rscale>
<asrwt>0</asrwt>
<pdfrwt beam="2">  1        4 0.19417971E-01 0.12499360E+03</pdfrwt>
<pdfrwt beam="1">  1       -4 0.47608554E-02 0.12499360E+03</pdfrwt>
<totfact> 0.97906754E+03</totfact>
</mgrwt>
</event>
<event>
 5    1  0.1685506E-006  0.1250059E+03  0.7818608E-02  0.1235060E+00
          4   -1    0    0  501    0  0.00000000000E+00  0.00000000000E+00  0.16057811509E+03  0.16058439353E+03  0.14200000000E+01 0. -1.
         -4   -1    0    0    0  501 -0.00000000000E+00 -0.00000000000E+00 -0.24300988125E+02  0.24342440795E+02  0.14200000000E+01 0.  1.
         25    2    1    2    0    0  0.00000000000E+00  0.00000000000E+00  0.13627712697E+03  0.18492683433E+03  0.12500591474E+03 0.  0.
        -13    1    3    3    0    0  0.30121645147E+02  0.12760637201E+02 -0.10649022082E+02  0.34402909934E+02  0.10570000000E+00 0.  1.
         13    1    3    3    0    0 -0.30121645147E+02 -0.12760637201E+02  0.14692614905E+03  0.15052392439E+03  0.10570000000E+00 0. -1.
<mgrwt>
<rscale>  0 0.12500591E+03</rscale>
<asrwt>0</asrwt>
<pdfrwt beam="1">  1        4 0.24707996E-01 0.12500591E+03</pdfrwt>
<pdfrwt beam="2">  1       -4 0.37422853E-02 0.12500591E+03</pdfrwt>
<totfact> 0.92725308E+03</totfact>
</mgrwt>
</event>
<event>
 5    1  0.1685506E-006  0.1250108E+03  0.7818608E-02  0.1235052E+00
          4   -1    0    0  501    0  0.00000000000E+00  0.00000000000E+00  0.15607060041E+02  0.15671525871E+02  0.14200000000E+01 0. -1.
         -4   -1    0    0    0  501 -0.00000000000E+00 -0.00000000000E+00 -0.24974833568E+03  0.24975237251E+03  0.14200000000E+01 0.  1.
         25    2    1    2    0    0  0.00000000000E+00  0.00000000000E+00 -0.23414127564E+03  0.26542389838E+03  0.12501083503E+03 0.  0.
        -13    1    3    3    0    0 -0.48646034386E+00 -0.62488198001E+02 -0.12000075072E+03  0.13529672161E+03  0.10570000000E+00 0.  1.
         13    1    3    3    0    0  0.48646034386E+00  0.62488198001E+02 -0.11414052492E+03  0.13012717677E+03  0.10570000000E+00 0. -1.
<mgrwt>
<rscale>  0 0.12501084E+03</rscale>
<asrwt>0</asrwt>
<pdfrwt beam="1">  1        4 0.24063558E-02 0.12501084E+03</pdfrwt>
<pdfrwt beam="2">  1       -4 0.38428087E-01 0.12501084E+03</pdfrwt>
<totfact> 0.80131549E+03</totfact>
</mgrwt>
</event>
<event>
 5    1  0.1685506E-006  0.1249854E+03  0.7818608E-02  0.1235092E+00
         -4   -1    0    0    0  501 -0.00000000000E+00  0.00000000000E+00  0.34398166267E+02  0.34427463492E+02  0.14200000000E+01 0.  1.
          4   -1    0    0  501    0  0.00000000000E+00 -0.00000000000E+00 -0.11345126492E+03  0.11346015121E+03  0.14200000000E+01 0. -1.
         25    2    1    2    0    0  0.00000000000E+00  0.00000000000E+00 -0.79053098658E+02  0.14788761470E+03  0.12498541585E+03 0.  0.
        -13    1    3    3    0    0 -0.29764592325E+02 -0.32862304696E+02  0.12582539189E+02  0.46088973640E+02  0.10570000000E+00 0.  1.
         13    1    3    3    0    0  0.29764592325E+02  0.32862304696E+02 -0.91635637847E+02  0.10179864106E+03  0.10570000000E+00 0. -1.
<mgrwt>
<rscale>  0 0.12498542E+03</rscale>
<asrwt>0</asrwt>
<pdfrwt beam="2">  1        4 0.17456978E-01 0.12498542E+03</pdfrwt>
<pdfrwt beam="1">  1       -4 0.52949628E-02 0.12498542E+03</pdfrwt>
<totfact> 0.99759196E+03</totfact>
</mgrwt>
</event>
<event>
 5    1  0.1685506E-006  0.1250016E+03  0.7818608E-02  0.1235067E+00
         -4   -1    0    0    0  501 -0.00000000000E+00  0.00000000000E+00  0.25056940117E+03  0.25057342477E+03  0.14200000000E+01 0.  1.
          4   -1    0    0  501    0  0.00000000000E+00 -0.00000000000E+00 -0.15553391766E+02  0.15618079121E+02  0.14200000000E+01 0. -1.
         25    2    1    2    0    0  0.00000000000E+00  0.00000000000E+00  0.23501600940E+03  0.26619150390E+03  0.12500156827E+03 0.  0.
        -13    1    3    3    0    0 -0.60582560120E+02  0.15358931551E+02  0.11657132305E+03  0.13226877144E+03  0.10570000000E+00 0.  1.
         13    1    3    3    0    0  0.60582560120E+02 -0.15358931551E+02  0.11844468636E+03  0.13392273245E+03  0.10570000000E+00 0. -1.
<mgrwt>
<rscale>  0 0.12500157E+03</rscale>
<asrwt>0</asrwt>
<pdfrwt beam="2">  1        4 0.23981147E-02 0.12500157E+03</pdfrwt>
<pdfrwt beam="1">  1       -4 0.38554428E-01 0.12500157E+03</pdfrwt>
<totfact> 0.80042150E+03</totfact>
</mgrwt>
</event>
<event>
 5    1  0.1685506E-006  0.1249992E+03  0.7818608E-02  0.1235071E+00
          4   -1    0    0  501    0  0.00000000000E+00  0.00000000000E+00  0.69972335098E+02  0.69986742167E+02  0.14200000000E+01 0.  1.
         -4   -1    0    0    0  501 -0.00000000000E+00 -0.00000000000E+00 -0.55795697630E+02  0.55813764199E+02  0.14200000000E+01 0.  1.
         25    2    1    2    0    0  0.00000000000E+00  0.00000000000E+00  0.14176637468E+02  0.12580050637E+03  0.12499916140E+03 0.  0.
        -13    1    3    3    0    0 -0.42600615178E+02 -0.44728942340E+02  0.16672801571E+02  0.63980342146E+02  0.10570000000E+00 0. -1.
         13    1    3    3    0    0  0.42600615178E+02  0.44728942340E+02 -0.24961641029E+01  0.61820164219E+02  0.10570000000E+00 0. -1.
<mgrwt>
<rscale>  0 0.12499916E+03</rscale>
<asrwt>0</asrwt>
<pdfrwt beam="1">  1        4 0.10767473E-01 0.12499916E+03</pdfrwt>
<pdfrwt beam="2">  1       -4 0.85864515E-02 0.12499916E+03</pdfrwt>
<totfact> 0.10435532E+04</totfact>
</mgrwt>
</event>
<event>
 5    1  0.1685506E-006  0.1250017E+03  0.7818608E-02  0.1235067E+00
         -4   -1    0    0    0  501 -0.00000000000E+00  0.00000000000E+00  0.90612148202E+02  0.90623274062E+02  0.14200000000E+01 0.  1.
          4   -1    0    0  501    0  0.00000000000E+00 -0.00000000000E+00 -0.43085246648E+02  0.43108640418E+02  0.14200000000E+01 0. -1.
         25    2    1    2    0    0  0.00000000000E+00  0.00000000000E+00  0.47526901554E+02  0.13373191448E+03  0.12500167431E+03 0.  0.
        -13    1    3    3    0    0 -0.31673945035E+02  0.49460595611E+02  0.46627886489E+02  0.74991734766E+02  0.10570000000E+00 0.  1.
         13    1    3    3    0    0  0.31673945035E+02 -0.49460595611E+02  0.89901506426E+00  0.58740179714E+02  0.10570000000E+00 0. -1.
<mgrwt>
<rscale>  0 0.12500167E+03</rscale>
<asrwt>0</asrwt>
<pdfrwt beam="2">  1        4 0.66311549E-02 0.12500167E+03</pdfrwt>
<pdfrwt beam="1">  1       -4 0.13942986E-01 0.12500167E+03</pdfrwt>
<totfact> 0.10264481E+04</totfact>
</mgrwt>
</event>
<event>
 5    1  0.1685506E-006  0.1250031E+03  0.7818608E-02  0.1235064E+00
          4   -1    0    0  501    0  0.00000000000E+00  0.00000000000E+00  0.22983976334E+02  0.23027799898E+02  0.14200000000E+01 0. -1.
         -4   -1    0    0    0  501 -0.00000000000E+00 -0.00000000000E+00 -0.16975502383E+03  0.16976096287E+03  0.14200000000E+01 0.  1.
         25    2    1    2    0    0  0.00000000000E+00  0.00000000000E+00 -0.14677104749E+03  0.19278876277E+03  0.12500306663E+03 0.  0.
        -13    1    3    3    0    0  0.10673212446E+02 -0.46013852094E+02 -0.13651022917E+03  0.14445153474E+03  0.10570000000E+00 0.  1.
         13    1    3    3    0    0 -0.10673212446E+02  0.46013852094E+02 -0.10260818326E+02  0.48337228030E+02  0.10570000000E+00 0. -1.
<mgrwt>
<rscale>  0 0.12500307E+03</rscale>
<asrwt>0</asrwt>
<pdfrwt beam="1">  1        4 0.35398244E-02 0.12500307E+03</pdfrwt>
<pdfrwt beam="2">  1       -4 0.26119985E-01 0.12500307E+03</pdfrwt>
<totfact> 0.91358057E+03</totfact>
</mgrwt>
</event>
<event>
 5    1  0.1685506E-006  0.1250003E+03  0.7818608E-02  0.1235069E+00
          4   -1    0    0  501    0  0.00000000000E+00  0.00000000000E+00  0.46707439895E+02  0.46729020336E+02  0.14200000000E+01 0. -1.
         -4   -1    0    0    0  501 -0.00000000000E+00 -0.00000000000E+00 -0.83585821777E+02  0.83597882761E+02  0.14200000000E+01 0.  1.
         25    2    1    2    0    0  0.00000000000E+00  0.00000000000E+00 -0.36878381882E+02  0.13032690310E+03  0.12500034648E+03 0.  0.
        -13    1    3    3    0    0  0.30176005365E+02 -0.30761110272E+02 -0.65638831458E+02  0.78519453466E+02  0.10570000000E+00 0.  1.
         13    1    3    3    0    0 -0.30176005365E+02  0.30761110272E+02  0.28760449576E+02  0.51807449631E+02  0.10570000000E+00 0. -1.
<mgrwt>
<rscale>  0 0.12500035E+03</rscale>
<asrwt>0</asrwt>
<pdfrwt beam="1">  1        4 0.71883478E-02 0.12500035E+03</pdfrwt>
<pdfrwt beam="2">  1       -4 0.12861945E-01 0.12500035E+03</pdfrwt>
<totfact> 0.10337439E+04</totfact>
</mgrwt>
</event>
<event>
 5    1  0.1685506E-006  0.1249924E+03  0.7818608E-02  0.1235081E+00
         -4   -1    0    0    0  501 -0.00000000000E+00  0.00000000000E+00  0.12438210376E+03  0.12439020916E+03  0.14200000000E+01 0.  1.
          4   -1    0    0  501    0  0.00000000000E+00 -0.00000000000E+00 -0.31376235193E+02  0.31408351356E+02  0.14200000000E+01 0. -1.
         25    2    1    2    0    0  0.00000000000E+00  0.00000000000E+00  0.93005868568E+02  0.15579856052E+03  0.12499239926E+03 0.  0.
        -13    1    3    3    0    0  0.49086674390E+02  0.28446063430E+02  0.79175605994E+02  0.97403633835E+02  0.10570000000E+00 0.  1.
         13    1    3    3    0    0 -0.49086674390E+02 -0.28446063430E+02  0.13830262574E+02  0.58394926686E+02  0.10570000000E+00 0. -1.
<mgrwt>
<rscale>  0 0.12499240E+03</rscale>
<asrwt>0</asrwt>
<pdfrwt beam="2">  1        4 0.48302071E-02 0.12499240E+03</pdfrwt>
<pdfrwt beam="1">  1       -4 0.19138802E-01 0.12499240E+03</pdfrwt>
<totfact> 0.98175739E+03</totfact>
</mgrwt>
</event>
<event>
 5    1  0.1685506E-006  0.1249995E+03  0.7818608E-02  0.1235070E+00
         -4   -1    0    0    0  501 -0.00000000000E+00  0.00000000000E+00  0.30824601135E+02  0.30857291442E+02  0.14200000000E+01 0.  1.
          4   -1    0    0  501    0  0.00000000000E+00 -0.00000000000E+00 -0.12662024978E+03  0.12662821192E+03  0.14200000000E+01 0. -1.
         25    2    1    2    0    0  0.00000000000E+00  0.00000000000E+00 -0.95795648643E+02  0.15748550336E+03  0.12499950988E+03 0.  0.
        -13    1    3    3    0    0  0.48643719152E+02 -0.22854925163E+00  0.15428987766E+01  0.48668833526E+02  0.10570000000E+00 0.  1.
         13    1    3    3    0    0 -0.48643719152E+02  0.22854925163E+00 -0.97338547420E+02  0.10881666983E+03  0.10570000000E+00 0. -1.
<mgrwt>
<rscale>  0 0.12499951E+03</rscale>
<asrwt>0</asrwt>
<pdfrwt beam="2">  1        4 0.19483165E-01 0.12499951E+03</pdfrwt>
<pdfrwt beam="1">  1       -4 0.47453735E-02 0.12499951E+03</pdfrwt>
<totfact> 0.97830840E+03</totfact>
</mgrwt>
</event>
<event>
 5    1  0.1685506E-006  0.1250005E+03  0.7818608E-02  0.1235068E+00
         -4   -1    0    0    0  501 -0.00000000000E+00  0.00000000000E+00  0.47487110017E+02  0.47508336298E+02  0.14200000000E+01 0. -1.
          4   -1    0    0  501    0  0.00000000000E+00 -0.00000000000E+00 -0.82214142188E+02  0.82226404370E+02  0.14200000000E+01 0. -1.
         25    2    1    2    0    0  0.00000000000E+00  0.00000000000E+00 -0.34727032171E+02  0.12973474067E+03  0.12500054469E+03 0.  0.
        -13    1    3    3    0    0 -0.51960127797E+02  0.28105145119E+02  0.38182267477E+01  0.59197500714E+02  0.10570000000E+00 0.  1.
         13    1    3    3    0    0  0.51960127797E+02 -0.28105145119E+02 -0.38545258918E+02  0.70537239954E+02  0.10570000000E+00 0.  1.
<mgrwt>
<rscale>  0 0.12500054E+03</rscale>
<asrwt>0</asrwt>
<pdfrwt beam="2">  1        4 0.12650906E-01 0.12500054E+03</pdfrwt>
<pdfrwt beam="1">  1       -4 0.73082852E-02 0.12500054E+03</pdfrwt>
<totfact> 0.10350058E+04</totfact>
</mgrwt>
</event>
<event>
 5    1  0.1685506E-006  0.1249987E+03  0.7818608E-02  0.1235071E+00
          4   -1    0    0  501    0  0.00000000000E+00  0.00000000000E+00  0.93833589072E+02  0.93844333010E+02  0.14200000000E+01 0. -1.
         -4   -1    0    0    0  501 -0.00000000000E+00 -0.00000000000E+00 -0.41603466753E+02  0.41627693257E+02  0.14200000000E+01 0.  1.
         25    2    1    2    0    0  0.00000000000E+00  0.00000000000E+00  0.52230122319E+02  0.13547202627E+03  0.12499873689E+03 0.  0.
        -13    1    3    3    0    0  0.59794189475E+02 -0.31697851736E+01  0.67044588016E+01  0.60252415498E+02  0.10570000000E+00 0.  1.
         13    1    3    3    0    0 -0.59794189475E+02  0.31697851736E+01  0.45525663517E+02  0.75219610769E+02  0.10570000000E+00 0. -1.
<mgrwt>
<rscale>  0 0.12499874E+03</rscale>
<asrwt>0</asrwt>
<pdfrwt beam="1">  1        4 0.14438627E-01 0.12499874E+03</pdfrwt>
<pdfrwt beam="2">  1       -4 0.64032234E-02 0.12499874E+03</pdfrwt>
<totfact> 0.10228423E+04</totfact>
</mgrwt>
</event>
<event>
 5    1  0.1685506E-006  0.1250016E+03  0.7818608E-02  0.1235067E+00
          4   -1    0    0  501    0  0.00000000000E+00  0.00000000000E+00  0.31538953068E+02  0.31570903703E+02  0.14200000000E+01 0. -1.
         -4   -1    0    0    0  501 -0.00000000000E+00 -0.00000000000E+00 -0.12375913549E+03  0.12376728169E+03  0.14200000000E+01 0.  1.
         25    2    1    2    0    0  0.00000000000E+00  0.00000000000E+00 -0.92220182425E+02  0.15533818540E+03  0.12500155917E+03 0.  0.
        -13    1    3    3    0    0  0.42976820412E+02  0.42594196973E+02 -0.26656393030E+02  0.66119945329E+02  0.10570000000E+00 0.  1.
         13    1    3    3    0    0 -0.42976820412E+02 -0.42594196973E+02 -0.65563789395E+02  0.89218240068E+02  0.10570000000E+00 0. -1.
<mgrwt>
<rscale>  0 0.12500156E+03</rscale>
<asrwt>0</asrwt>
<pdfrwt beam="1">  1        4 0.48552310E-02 0.12500156E+03</pdfrwt>
<pdfrwt beam="2">  1       -4 0.19042951E-01 0.12500156E+03</pdfrwt>
<totfact> 0.98245705E+03</totfact>
</mgrwt>
</event>
<event>
 5    1  0.1685506E-006  0.1250006E+03  0.7818608E-02  0.1235068E+00
          4   -1    0    0  501    0  0.00000000000E+00  0.00000000000E+00  0.10533240398E+03  0.10534197515E+03  0.14200000000E+01 0.  1.
         -4   -1    0    0    0  501 -0.00000000000E+00 -0.00000000000E+00 -0.37060491246E+02  0.37087685441E+02  0.14200000000E+01 0.  1.
         25    2    1    2    0    0  0.00000000000E+00  0.00000000000E+00  0.68271912736E+02  0.14242966059E+03  0.12500061659E+03 0.  0.
        -13    1    3    3    0    0 -0.34714950777E+02  0.50109141215E+02  0.49851173840E+02  0.78747727246E+02  0.10570000000E+00 0.  1.
         13    1    3    3    0    0  0.34714950777E+02 -0.50109141215E+02  0.18420738896E+02  0.63681933346E+02  0.10570000000E+00 0.  1.
<mgrwt>
<rscale>  0 0.12500062E+03</rscale>
<asrwt>0</asrwt>
<pdfrwt beam="1">  1        4 0.16207814E-01 0.12500062E+03</pdfrwt>
<pdfrwt beam="2">  1       -4 0.57044420E-02 0.12500062E+03</pdfrwt>
<totfact> 0.10083336E+04</totfact>
</mgrwt>
</event>
<event>
 5    1  0.1685506E-006  0.1249974E+03  0.7818608E-02  0.1235073E+00
         -4   -1    0    0    0  501 -0.00000000000E+00  0.00000000000E+00  0.15053591991E+03  0.15054261717E+03  0.14200000000E+01 0.  1.
          4   -1    0    0  501    0  0.00000000000E+00 -0.00000000000E+00 -0.25921182007E+02  0.25960047701E+02  0.14200000000E+01 0.  1.
         25    2    1    2    0    0  0.00000000000E+00  0.00000000000E+00  0.12461473791E+03  0.17650266487E+03  0.12499743118E+03 0.  0.
        -13    1    3    3    0    0 -0.61034048782E+02  0.12239008640E+02  0.54428958770E+02  0.82689002706E+02  0.10570000000E+00 0.  1.
         13    1    3    3    0    0  0.61034048782E+02 -0.12239008640E+02  0.70185779137E+02  0.93813662165E+02  0.10570000000E+00 0.  1.
<mgrwt>
<rscale>  0 0.12499743E+03</rscale>
<asrwt>0</asrwt>
<pdfrwt beam="2">  1        4 0.39913789E-02 0.12499743E+03</pdfrwt>
<pdfrwt beam="1">  1       -4 0.23162877E-01 0.12499743E+03</pdfrwt>
<totfact> 0.94255780E+03</totfact>
</mgrwt>
</event>
<event>
 5    1  0.1685506E-006  0.1250016E+03  0.7818608E-02  0.1235067E+00
         -4   -1    0    0    0  501 -0.00000000000E+00  0.00000000000E+00  0.93594241144E+02  0.93605012554E+02  0.14200000000E+01 0. -1.
          4   -1    0    0  501    0  0.00000000000E+00 -0.00000000000E+00 -0.41711789807E+02  0.41735953433E+02  0.14200000000E+01 0.  1.
         25    2    1    2    0    0  0.00000000000E+00  0.00000000000E+00  0.51882451336E+02  0.13534096599E+03  0.12500155326E+03 0.  0.
        -13    1    3    3    0    0  0.23732958429E+02  0.57556903440E+02  0.31899643186E+02  0.69954619985E+02  0.10570000000E+00 0. -1.
         13    1    3    3    0    0 -0.23732958429E+02 -0.57556903440E+02  0.19982808151E+02  0.65386346002E+02  0.10570000000E+00 0.  1.
<mgrwt>
<rscale>  0 0.12500155E+03</rscale>
<asrwt>0</asrwt>
<pdfrwt beam="2">  1        4 0.64198858E-02 0.12500155E+03</pdfrwt>
<pdfrwt beam="1">  1       -4 0.14401801E-01 0.12500155E+03</pdfrwt>
<totfact> 0.10230531E+04</totfact>
</mgrwt>
</event>
<event>
 5    1  0.1685506E-006  0.1249995E+03  0.7818608E-02  0.1235070E+00
          4   -1    0    0  501    0  0.00000000000E+00  0.00000000000E+00  0.36962233333E+02  0.36989499767E+02  0.14200000000E+01 0.  1.
         -4   -1    0    0    0  501 -0.00000000000E+00 -0.00000000000E+00 -0.10561026061E+03  0.10561980660E+03  0.14200000000E+01 0.  1.
         25    2    1    2    0    0  0.00000000000E+00  0.00000000000E+00 -0.68648027274E+02  0.14260930636E+03  0.12499945045E+03 0.  0.
        -13    1    3    3    0    0 -0.30105237294E+02 -0.52873701361E+02 -0.50629048213E+02  0.79153428881E+02  0.10570000000E+00 0. -1.
         13    1    3    3    0    0  0.30105237294E+02  0.52873701361E+02 -0.18018979061E+02  0.63455877482E+02  0.10570000000E+00 0. -1.
<mgrwt>
<rscale>  0 0.12499945E+03</rscale>
<asrwt>0</asrwt>
<pdfrwt beam="1">  1        4 0.56893292E-02 0.12499945E+03</pdfrwt>
<pdfrwt beam="2">  1       -4 0.16250564E-01 0.12499945E+03</pdfrwt>
<totfact> 0.10079915E+04</totfact>
</mgrwt>
</event>
<event>
 5    1  0.1685506E-006  0.1250010E+03  0.7818608E-02  0.1235068E+00
          4   -1    0    0  501    0  0.00000000000E+00  0.00000000000E+00  0.11291752357E+03  0.11292645186E+03  0.14200000000E+01 0.  1.
         -4   -1    0    0    0  501 -0.00000000000E+00 -0.00000000000E+00 -0.34569499476E+02  0.34598651622E+02  0.14200000000E+01 0. -1.
         25    2    1    2    0    0  0.00000000000E+00  0.00000000000E+00  0.78348024092E+02  0.14752510348E+03  0.12500097310E+03 0.  0.
        -13    1    3    3    0    0  0.11358481491E+02 -0.49540206055E+02 -0.37540297004E+01  0.50964213221E+02  0.10570000000E+00 0. -1.
         13    1    3    3    0    0 -0.11358481491E+02  0.49540206055E+02  0.82102053792E+02  0.96560890256E+02  0.10570000000E+00 0.  1.
<mgrwt>
<rscale>  0 0.12500097E+03</rscale>
<asrwt>0</asrwt>
<pdfrwt beam="1">  1        4 0.17374856E-01 0.12500097E+03</pdfrwt>
<pdfrwt beam="2">  1       -4 0.53213139E-02 0.12500097E+03</pdfrwt>
<totfact> 0.99797153E+03</totfact>
</mgrwt>
</event>
<event>
 5    1  0.1685506E-006  0.1250002E+03  0.7818608E-02  0.1235069E+00
          4   -1    0    0  501    0  0.00000000000E+00  0.00000000000E+00  0.15787426909E+03  0.15788065506E+03  0.14200000000E+01 0. -1.
         -4   -1    0    0    0  501 -0.00000000000E+00 -0.00000000000E+00 -0.24715593517E+02  0.24756351971E+02  0.14200000000E+01 0.  1.
         25    2    1    2    0    0  0.00000000000E+00  0.00000000000E+00  0.13315867557E+03  0.18263700703E+03  0.12500017382E+03 0.  0.
        -13    1    3    3    0    0  0.57914815007E+02 -0.15038309174E+02  0.40199684696E+02  0.72085382445E+02  0.10570000000E+00 0.  1.
         13    1    3    3    0    0 -0.57914815007E+02  0.15038309174E+02  0.92958990877E+02  0.11055162458E+03  0.10570000000E+00 0. -1.
<mgrwt>
<rscale>  0 0.12500017E+03</rscale>
<asrwt>0</asrwt>
<pdfrwt beam="1">  1        4 0.24291974E-01 0.12500017E+03</pdfrwt>
<pdfrwt beam="2">  1       -4 0.38060257E-02 0.12500017E+03</pdfrwt>
<totfact> 0.93144114E+03</totfact>
</mgrwt>
</event>
<event>
 5    1  0.1685506E-006  0.1250023E+03  0.7818608E-02  0.1235066E+00
          4   -1    0    0  501    0  0.00000000000E+00  0.00000000000E+00  0.44383574713E+02  0.44406284514E+02  0.14200000000E+01 0. -1.
         -4   -1    0    0    0  501 -0.00000000000E+00 -0.00000000000E+00 -0.87963464844E+02  0.87974925674E+02  0.14200000000E+01 0.  1.
         25    2    1    2    0    0  0.00000000000E+00  0.00000000000E+00 -0.43579890131E+02  0.13238121019E+03  0.12500231193E+03 0.  0.
        -13    1    3    3    0    0 -0.51808988191E+02  0.85311195637E+01 -0.57694533744E+02  0.78010394531E+02  0.10570000000E+00 0.  1.
         13    1    3    3    0    0  0.51808988191E+02 -0.85311195637E+01  0.14114643613E+02  0.54370815657E+02  0.10570000000E+00 0. -1.
<mgrwt>
<rscale>  0 0.12500231E+03</rscale>
<asrwt>0</asrwt>
<pdfrwt beam="1">  1        4 0.68308708E-02 0.12500231E+03</pdfrwt>
<pdfrwt beam="2">  1       -4 0.13535469E-01 0.12500231E+03</pdfrwt>
<totfact> 0.10293032E+04</totfact>
</mgrwt>
</event>
<event>
 5    1  0.1685506E-006  0.1249962E+03  0.7818608E-02  0.1235075E+00
         -4   -1    0    0    0  501 -0.00000000000E+00  0.00000000000E+00  0.13036169300E+03  0.13036942664E+03  0.14200000000E+01 0.  1.
          4   -1    0    0  501    0  0.00000000000E+00 -0.00000000000E+00 -0.29937446312E+02  0.29971104279E+02  0.14200000000E+01 0. -1.
         25    2    1    2    0    0  0.00000000000E+00  0.00000000000E+00  0.10042424669E+03  0.16034053092E+03  0.12499622607E+03 0.  0.
        -13    1    3    3    0    0  0.52696119331E+02  0.64888736806E+01  0.92504732793E+02  0.10665891072E+03  0.10570000000E+00 0.  1.
         13    1    3    3    0    0 -0.52696119331E+02 -0.64888736806E+01  0.79195138950E+01  0.53681620198E+02  0.10570000000E+00 0. -1.
<mgrwt>
<rscale>  0 0.12499623E+03</rscale>
<asrwt>0</asrwt>
<pdfrwt beam="2">  1        4 0.46089450E-02 0.12499623E+03</pdfrwt>
<pdfrwt beam="1">  1       -4 0.20058829E-01 0.12499623E+03</pdfrwt>
<totfact> 0.97285426E+03</totfact>
</mgrwt>
</event>
<event>
 5    1  0.1685506E-006  0.1250020E+03  0.7818608E-02  0.1235066E+00
         -4   -1    0    0    0  501 -0.00000000000E+00  0.00000000000E+00  0.33932231919E+02  0.33961931084E+02  0.14200000000E+01 0. -1.
          4   -1    0    0  501    0  0.00000000000E+00 -0.00000000000E+00 -0.11503836268E+03  0.11504712638E+03  0.14200000000E+01 0.  1.
         25    2    1    2    0    0  0.00000000000E+00  0.00000000000E+00 -0.81106130763E+02  0.14900905746E+03  0.12500197902E+03 0.  0.
        -13    1    3    3    0    0  0.48479407048E+02  0.40743517473E+00  0.64680259947E+01  0.48910790670E+02  0.10570000000E+00 0. -1.
         13    1    3    3    0    0 -0.48479407048E+02 -0.40743517473E+00 -0.87574156758E+02  0.10009826680E+03  0.10570000000E+00 0.  1.
<mgrwt>
<rscale>  0 0.12500198E+03</rscale>
<asrwt>0</asrwt>
<pdfrwt beam="2">  1        4 0.17701168E-01 0.12500198E+03</pdfrwt>
<pdfrwt beam="1">  1       -4 0.52233021E-02 0.12500198E+03</pdfrwt>
<totfact> 0.99497163E+03</totfact>
</mgrwt>
</event>
<event>
 5    1  0.1685506E-006  0.1249982E+03  0.7818608E-02  0.1235072E+00
          4   -1    0    0  501    0  0.00000000000E+00  0.00000000000E+00  0.24804756230E+02  0.24845368414E+02  0.14200000000E+01 0. -1.
         -4   -1    0    0    0  501 -0.00000000000E+00 -0.00000000000E+00 -0.15730258993E+03  0.15730899911E+03  0.14200000000E+01 0. -1.
         25    2    1    2    0    0  0.00000000000E+00  0.00000000000E+00 -0.13249783370E+03  0.18215436752E+03  0.12499815067E+03 0.  0.
        -13    1    3    3    0    0  0.61831005169E+02 -0.52810419182E+01 -0.55425842195E+02  0.83204553718E+02  0.10570000000E+00 0. -1.
         13    1    3    3    0    0 -0.61831005169E+02  0.52810419182E+01 -0.77071991509E+02  0.98949813803E+02  0.10570000000E+00 0. -1.
<mgrwt>
<rscale>  0 0.12499815E+03</rscale>
<asrwt>0</asrwt>
<pdfrwt beam="1">  1        4 0.38197335E-02 0.12499815E+03</pdfrwt>
<pdfrwt beam="2">  1       -4 0.24204015E-01 0.12499815E+03</pdfrwt>
<totfact> 0.93234507E+03</totfact>
</mgrwt>
</event>
<event>
 4    1  0.1685506E-006  0.1250556E+03  0.7818608E-02  0.1234982E+00
         -4   -1    0    0    0  501 -0.00000000000E+00  0.00000000000E+00  0.97139719332E+02  0.97150097642E+02  0.14200000000E+01 0.  1.
          4   -1    0    0  501    0  0.00000000000E+00 -0.00000000000E+00 -0.40223447578E+02  0.40248504756E+02  0.14200000000E+01 0. -1.
        -13    1    1    2    0    0  0.16992438665E+02  0.59733556652E+02  0.20468801676E+02  0.65389783427E+02  0.10570000000E+00 0.  1.
         13    1    1    2    0    0 -0.16992438665E+02 -0.59733556652E+02  0.36447470078E+02  0.72008818971E+02  0.10570000000E+00 0. -1.
<mgrwt>
<rscale>  0 0.12505564E+03</rscale>
<asrwt>0</asrwt>
<pdfrwt beam="2">  1        4 0.61909485E-02 0.12505564E+03</pdfrwt>
<pdfrwt beam="1">  1       -4 0.14947298E-01 0.12505564E+03</pdfrwt>
<totfact> 0.10174988E+04</totfact>
</mgrwt>
</event>
<event>
 5    1  0.1685506E-006  0.1250402E+03  0.7818608E-02  0.1235006E+00
         -4   -1    0    0    0  501 -0.00000000000E+00  0.00000000000E+00  0.35879276541E+03  0.35879557538E+03  0.14200000000E+01 0.  1.
          4   -1    0    0  501    0  0.00000000000E+00 -0.00000000000E+00 -0.10845077315E+02  0.10937646089E+02  0.14200000000E+01 0. -1.
         25    2    1    2    0    0  0.00000000000E+00  0.00000000000E+00  0.34794768810E+03  0.36973322147E+03  0.12504023915E+03 0.  0.
        -13    1    3    3    0    0 -0.13009020302E+00 -0.49142134124E+02  0.28825724318E+03  0.29241616865E+03  0.10570000000E+00 0.  1.
         13    1    3    3    0    0  0.13009020302E+00  0.49142134124E+02  0.59690444917E+02  0.77317052819E+02  0.10570000000E+00 0. -1.
<mgrwt>
<rscale>  0 0.12504024E+03</rscale>
<asrwt>0</asrwt>
<pdfrwt beam="2">  1        4 0.16758104E-02 0.12504024E+03</pdfrwt>
<pdfrwt beam="1">  1       -4 0.55206220E-01 0.12504024E+03</pdfrwt>
<totfact> 0.67546748E+03</totfact>
</mgrwt>
</event>
<event>
 5    1  0.1685506E-006  0.1249988E+03  0.7818608E-02  0.1235071E+00
          4   -1    0    0  501    0  0.00000000000E+00  0.00000000000E+00  0.50543902093E+02  0.50563845174E+02  0.14200000000E+01 0.  1.
         -4   -1    0    0    0  501 -0.00000000000E+00 -0.00000000000E+00 -0.77241158040E+02  0.77254209564E+02  0.14200000000E+01 0.  1.
         25    2    1    2    0    0  0.00000000000E+00  0.00000000000E+00 -0.26697255947E+02  0.12781805474E+03  0.12499884656E+03 0.  0.
        -13    1    3    3    0    0  0.40819861180E+02 -0.36811384348E+02 -0.43765569424E+02  0.70262189860E+02  0.10570000000E+00 0.  1.
         13    1    3    3    0    0 -0.40819861180E+02  0.36811384348E+02  0.17068313478E+02  0.57555864878E+02  0.10570000000E+00 0.  1.
<mgrwt>
<rscale>  0 0.12499885E+03</rscale>
<asrwt>0</asrwt>
<pdfrwt beam="1">  1        4 0.77785229E-02 0.12499885E+03</pdfrwt>
<pdfrwt beam="2">  1       -4 0.11885793E-01 0.12499885E+03</pdfrwt>
<totfact> 0.10391689E+04</totfact>
</mgrwt>
</event>
<event>
 5    1  0.1685506E-006  0.1250029E+03  0.7818608E-02  0.1235065E+00
         -4   -1    0    0    0  501 -0.00000000000E+00  0.00000000000E+00  0.27401591363E+02  0.27438360177E+02  0.14200000000E+01 0.  1.
          4   -1    0    0  501    0  0.00000000000E+00 -0.00000000000E+00 -0.14242627330E+03  0.14243335187E+03  0.14200000000E+01 0. -1.
         25    2    1    2    0    0  0.00000000000E+00  0.00000000000E+00 -0.11502468193E+03  0.16987171205E+03  0.12500288437E+03 0.  0.
        -13    1    3    3    0    0  0.41754257278E+02 -0.36863997678E+02 -0.18978554423E+02  0.58843598005E+02  0.10570000000E+00 0.  1.
         13    1    3    3    0    0 -0.41754257278E+02  0.36863997678E+02 -0.96046127511E+02  0.11102811404E+03  0.10570000000E+00 0. -1.
<mgrwt>
<rscale>  0 0.12500288E+03</rscale>
<asrwt>0</asrwt>
<pdfrwt beam="2">  1        4 0.21915107E-01 0.12500288E+03</pdfrwt>
<pdfrwt beam="1">  1       -4 0.42190024E-02 0.12500288E+03</pdfrwt>
<totfact> 0.95466372E+03</totfact>
</mgrwt>
</event>
<event>
 5    1  0.1685506E-006  0.1250023E+03  0.7818608E-02  0.1235066E+00
          4   -1    0    0  501    0  0.00000000000E+00  0.00000000000E+00  0.28053030877E+03  0.28053390266E+03  0.14200000000E+01 0.  1.
         -4   -1    0    0    0  501 -0.00000000000E+00 -0.00000000000E+00 -0.13885129529E+02  0.13957550718E+02  0.14200000000E+01 0. -1.
         25    2    1    2    0    0  0.00000000000E+00  0.00000000000E+00  0.26664517925E+03  0.29449145338E+03  0.12500225797E+03 0.  0.
        -13    1    3    3    0    0  0.27809595818E+02 -0.45348725624E+02  0.56025750140E+02  0.77257856472E+02  0.10570000000E+00 0. -1.
         13    1    3    3    0    0 -0.27809595818E+02  0.45348725624E+02  0.21061942911E+03  0.21723359691E+03  0.10570000000E+00 0.  1.
<mgrwt>
<rscale>  0 0.12500226E+03</rscale>
<asrwt>0</asrwt>
<pdfrwt beam="1">  1        4 0.43164355E-01 0.12500226E+03</pdfrwt>
<pdfrwt beam="2">  1       -4 0.21420211E-02 0.12500226E+03</pdfrwt>
<totfact> 0.76291231E+03</totfact>
</mgrwt>
</event>
<event>
 5    1  0.1685506E-006  0.1249982E+03  0.7818608E-02  0.1235072E+00
          4   -1    0    0  501    0  0.00000000000E+00  0.00000000000E+00  0.16638472166E+02  0.16698956735E+02  0.14200000000E+01 0. -1.
         -4   -1    0    0    0  501 -0.00000000000E+00 -0.00000000000E+00 -0.23427682306E+03  0.23428112648E+03  0.14200000000E+01 0.  1.
         25    2    1    2    0    0  0.00000000000E+00  0.00000000000E+00 -0.21763835089E+03  0.25098008321E+03  0.12499820154E+03 0.  0.
        -13    1    3    3    0    0 -0.60623672507E+02  0.12696541821E+02 -0.12558152929E+03  0.14002558164E+03  0.10570000000E+00 0.  1.
         13    1    3    3    0    0  0.60623672507E+02 -0.12696541821E+02 -0.92056821601E+02  0.11095450157E+03  0.10570000000E+00 0. -1.
<mgrwt>
<rscale>  0 0.12499820E+03</rscale>
<asrwt>0</asrwt>
<pdfrwt beam="1">  1        4 0.25647488E-02 0.12499820E+03</pdfrwt>
<pdfrwt beam="2">  1       -4 0.36047569E-01 0.12499820E+03</pdfrwt>
<totfact> 0.82192075E+03</totfact>
</mgrwt>
</event>
<event>
 5    1  0.1685506E-006  0.1249987E+03  0.7818608E-02  0.1235071E+00
         -4   -1    0    0    0  501 -0.00000000000E+00  0.00000000000E+00  0.16907608090E+02  0.16967133268E+02  0.14200000000E+01 0. -1.
          4   -1    0    0  501    0  0.00000000000E+00 -0.00000000000E+00 -0.23056238911E+03  0.23056676186E+03  0.14200000000E+01 0.  1.
         25    2    1    2    0    0  0.00000000000E+00  0.00000000000E+00 -0.21365478102E+03  0.24753389513E+03  0.12499865512E+03 0.  0.
        -13    1    3    3    0    0  0.28144401454E+02  0.53728899701E+02 -0.13668011237E+03  0.14953382991E+03  0.10570000000E+00 0. -1.
         13    1    3    3    0    0 -0.28144401454E+02 -0.53728899701E+02 -0.76974668654E+02  0.98000065220E+02  0.10570000000E+00 0.  1.
<mgrwt>
<rscale>  0 0.12499866E+03</rscale>
<asrwt>0</asrwt>
<pdfrwt beam="2">  1        4 0.35476050E-01 0.12499866E+03</pdfrwt>
<pdfrwt beam="1">  1       -4 0.26060859E-02 0.12499866E+03</pdfrwt>
<totfact> 0.82690447E+03</totfact>
</mgrwt>
</event>
<event>
 5    1  0.1685506E-006  0.1249952E+03  0.7818608E-02  0.1235077E+00
          4   -1    0    0  501    0  0.00000000000E+00  0.00000000000E+00  0.20498800790E+03  0.20499292618E+03  0.14200000000E+01 0. -1.
         -4   -1    0    0    0  501 -0.00000000000E+00 -0.00000000000E+00 -0.19022921913E+02  0.19075847507E+02  0.14200000000E+01 0.  1.
         25    2    1    2    0    0  0.00000000000E+00  0.00000000000E+00  0.18596508599E+03  0.22406877369E+03  0.12499520845E+03 0.  0.
        -13    1    3    3    0    0  0.22547270999E+02  0.35785323438E+02  0.10503164223E+02  0.43580918235E+02  0.10570000000E+00 0.  1.
         13    1    3    3    0    0 -0.22547270999E+02 -0.35785323438E+02  0.17546192177E+03  0.18048785545E+03  0.10570000000E+00 0. -1.
<mgrwt>
<rscale>  0 0.12499521E+03</rscale>
<asrwt>0</asrwt>
<pdfrwt beam="1">  1        4 0.31541064E-01 0.12499521E+03</pdfrwt>
<pdfrwt beam="2">  1       -4 0.29310531E-02 0.12499521E+03</pdfrwt>
<totfact> 0.86237814E+03</totfact>
</mgrwt>
</event>
<event>
 5    1  0.1685506E-006  0.1249977E+03  0.7818608E-02  0.1235073E+00
          4   -1    0    0  501    0  0.00000000000E+00  0.00000000000E+00  0.34276615939E+02  0.34306016968E+02  0.14200000000E+01 0. -1.
         -4   -1    0    0    0  501 -0.00000000000E+00 -0.00000000000E+00 -0.11387574529E+03  0.11388459846E+03  0.14200000000E+01 0.  1.
         25    2    1    2    0    0  0.00000000000E+00  0.00000000000E+00 -0.79599129351E+02  0.14819061542E+03  0.12499774840E+03 0.  0.
        -13    1    3    3    0    0  0.12574645339E+02 -0.60712336192E+02 -0.49133709616E+02  0.79109051722E+02  0.10570000000E+00 0.  1.
         13    1    3    3    0    0 -0.12574645339E+02  0.60712336192E+02 -0.30465419736E+02  0.69081563701E+02  0.10570000000E+00 0. -1.
<mgrwt>
<rscale>  0 0.12499775E+03</rscale>
<asrwt>0</asrwt>
<pdfrwt beam="1">  1        4 0.52762682E-02 0.12499775E+03</pdfrwt>
<pdfrwt beam="2">  1       -4 0.17522288E-01 0.12499775E+03</pdfrwt>
<totfact> 0.99670653E+03</totfact>
</mgrwt>
</event>
<event>
 5    1  0.1685506E-006  0.1250213E+03  0.7818608E-02  0.1235036E+00
         -4   -1    0    0    0  501 -0.00000000000E+00  0.00000000000E+00  0.38173973628E+02  0.38200375162E+02  0.14200000000E+01 0. -1.
          4   -1    0    0  501    0  0.00000000000E+00 -0.00000000000E+00 -0.10229578694E+03  0.10230564220E+03  0.14200000000E+01 0.  1.
         25    2    1    2    0    0  0.00000000000E+00  0.00000000000E+00 -0.64121813309E+02  0.14050601736E+03  0.12502133407E+03 0.  0.
        -13    1    3    3    0    0  0.49054563305E+02 -0.31736842451E+02 -0.70820785841E+01  0.58853584082E+02  0.10570000000E+00 0. -1.
         13    1    3    3    0    0 -0.49054563305E+02  0.31736842451E+02 -0.57039734725E+02  0.81652433275E+02  0.10570000000E+00 0.  1.
<mgrwt>
<rscale>  0 0.12502133E+03</rscale>
<asrwt>0</asrwt>
<pdfrwt beam="2">  1        4 0.15740602E-01 0.12502133E+03</pdfrwt>
<pdfrwt beam="1">  1       -4 0.58757080E-02 0.12502133E+03</pdfrwt>
<totfact> 0.10118245E+04</totfact>
</mgrwt>
</event>
<event>
 5    1  0.1685506E-006  0.1249983E+03  0.7818608E-02  0.1235072E+00
          4   -1    0    0  501    0  0.00000000000E+00  0.00000000000E+00  0.89676451313E+02  0.89687693247E+02  0.14200000000E+01 0. -1.
         -4   -1    0    0    0  501 -0.00000000000E+00 -0.00000000000E+00 -0.43532640663E+02  0.43555794139E+02  0.14200000000E+01 0. -1.
         25    2    1    2    0    0  0.00000000000E+00  0.00000000000E+00  0.46143810649E+02  0.13324348739E+03  0.12499830267E+03 0.  0.
        -13    1    3    3    0    0 -0.27688376476E+02 -0.25125649110E+02  0.76457236945E+02  0.85109721470E+02  0.10570000000E+00 0. -1.
         13    1    3    3    0    0  0.27688376476E+02  0.25125649110E+02 -0.30313426295E+02  0.48133765917E+02  0.10570000000E+00 0. -1.
<mgrwt>
<rscale>  0 0.12499830E+03</rscale>
<asrwt>0</asrwt>
<pdfrwt beam="1">  1        4 0.13799023E-01 0.12499830E+03</pdfrwt>
<pdfrwt beam="2">  1       -4 0.66999753E-02 0.12499830E+03</pdfrwt>
<totfact> 0.10275621E+04</totfact>
</mgrwt>
</event>
<event>
 5    1  0.1685506E-006  0.1250029E+03  0.7818608E-02  0.1235065E+00
         -4   -1    0    0    0  501 -0.00000000000E+00  0.00000000000E+00  0.23267786666E+03  0.23268219965E+03  0.14200000000E+01 0. -1.
          4   -1    0    0  501    0  0.00000000000E+00 -0.00000000000E+00 -0.16754483335E+02  0.16814550598E+02  0.14200000000E+01 0.  1.
         25    2    1    2    0    0  0.00000000000E+00  0.00000000000E+00  0.21592338333E+03  0.24949675025E+03  0.12500288363E+03 0.  0.
        -13    1    3    3    0    0 -0.61749366636E+01  0.55358339577E+02  0.51376396478E+02  0.75777443155E+02  0.10570000000E+00 0. -1.
         13    1    3    3    0    0  0.61749366636E+01 -0.55358339577E+02  0.16454698685E+03  0.17371930709E+03  0.10570000000E+00 0.  1.
<mgrwt>
<rscale>  0 0.12500288E+03</rscale>
<asrwt>0</asrwt>
<pdfrwt beam="2">  1        4 0.25825668E-02 0.12500288E+03</pdfrwt>
<pdfrwt beam="1">  1       -4 0.35801547E-01 0.12500288E+03</pdfrwt>
<totfact> 0.82397725E+03</totfact>
</mgrwt>
</event>
<event>
 5    1  0.1685506E-006  0.1250044E+03  0.7818608E-02  0.1235062E+00
          4   -1    0    0  501    0  0.00000000000E+00  0.00000000000E+00  0.15846517932E+02  0.15910013531E+02  0.14200000000E+01 0. -1.
         -4   -1    0    0    0  501 -0.00000000000E+00 -0.00000000000E+00 -0.24596398346E+03  0.24596808240E+03  0.14200000000E+01 0.  1.
         25    2    1    2    0    0  0.00000000000E+00  0.00000000000E+00 -0.23011746553E+03  0.26187809593E+03  0.12500435667E+03 0.  0.
        -13    1    3    3    0    0  0.19262117352E+02 -0.36662519249E+02 -0.21312712853E+03  0.21711368812E+03  0.10570000000E+00 0.  1.
         13    1    3    3    0    0 -0.19262117352E+02  0.36662519249E+02 -0.16990336997E+02  0.44764407807E+02  0.10570000000E+00 0. -1.
<mgrwt>
<rscale>  0 0.12500436E+03</rscale>
<asrwt>0</asrwt>
<pdfrwt beam="1">  1        4 0.24431256E-02 0.12500436E+03</pdfrwt>
<pdfrwt beam="2">  1       -4 0.37845810E-01 0.12500436E+03</pdfrwt>
<totfact> 0.80635399E+03</totfact>
</mgrwt>
</event>
<event>
 5    1  0.1685506E-006  0.1250012E+03  0.7818608E-02  0.1235067E+00
         -4   -1    0    0    0  501 -0.00000000000E+00  0.00000000000E+00  0.45725975668E+02  0.45748019091E+02  0.14200000000E+01 0.  1.
          4   -1    0    0  501    0  0.00000000000E+00 -0.00000000000E+00 -0.85380412279E+02  0.85392219792E+02  0.14200000000E+01 0. -1.
         25    2    1    2    0    0  0.00000000000E+00  0.00000000000E+00 -0.39654436612E+02  0.13114023888E+03  0.12500115164E+03 0.  0.
        -13    1    3    3    0    0  0.42658059843E+02  0.45561781246E+02 -0.16391503763E+02  0.64531221498E+02  0.10570000000E+00 0.  1.
         13    1    3    3    0    0 -0.42658059843E+02 -0.45561781246E+02 -0.23262932848E+02  0.66609017386E+02  0.10570000000E+00 0. -1.
<mgrwt>
<rscale>  0 0.12500115E+03</rscale>
<asrwt>0</asrwt>
<pdfrwt beam="2">  1        4 0.13138052E-01 0.12500115E+03</pdfrwt>
<pdfrwt beam="1">  1       -4 0.70373694E-02 0.12500115E+03</pdfrwt>
<totfact> 0.10319816E+04</totfact>
</mgrwt>
</event>
<event>
 5    1  0.1685506E-006  0.1250046E+03  0.7818608E-02  0.1235062E+00
          4   -1    0    0  501    0  0.00000000000E+00  0.00000000000E+00  0.45205921078E+02  0.45228217967E+02  0.14200000000E+01 0. -1.
         -4   -1    0    0    0  501 -0.00000000000E+00 -0.00000000000E+00 -0.86366992556E+02  0.86378665208E+02  0.14200000000E+01 0.  1.
         25    2    1    2    0    0  0.00000000000E+00  0.00000000000E+00 -0.41161071479E+02  0.13160688318E+03  0.12500455149E+03 0.  0.
        -13    1    3    3    0    0  0.14784793698E+02 -0.58424201024E+02 -0.38025105693E+02  0.71259365879E+02  0.10570000000E+00 0.  1.
         13    1    3    3    0    0 -0.14784793698E+02  0.58424201024E+02 -0.31359657859E+01  0.60347517297E+02  0.10570000000E+00 0. -1.
<mgrwt>
<rscale>  0 0.12500455E+03</rscale>
<asrwt>0</asrwt>
<pdfrwt beam="1">  1        4 0.69573701E-02 0.12500455E+03</pdfrwt>
<pdfrwt beam="2">  1       -4 0.13289843E-01 0.12500455E+03</pdfrwt>
<totfact> 0.10309038E+04</totfact>
</mgrwt>
</event>
<event>
 5    1  0.1685506E-006  0.1250010E+03  0.7818608E-02  0.1235068E+00
          4   -1    0    0  501    0  0.00000000000E+00  0.00000000000E+00  0.10372994657E+03  0.10373966559E+03  0.14200000000E+01 0.  1.
         -4   -1    0    0    0  501 -0.00000000000E+00 -0.00000000000E+00 -0.37633621089E+02  0.37660401436E+02  0.14200000000E+01 0. -1.
         25    2    1    2    0    0  0.00000000000E+00  0.00000000000E+00  0.66096325484E+02  0.14140006702E+03  0.12500101884E+03 0.  0.
        -13    1    3    3    0    0 -0.60182244202E+02  0.81824904922E+01  0.16367526548E+02  0.62902804115E+02  0.10570000000E+00 0. -1.
         13    1    3    3    0    0  0.60182244202E+02 -0.81824904922E+01  0.49728798936E+02  0.78497262907E+02  0.10570000000E+00 0.  1.
<mgrwt>
<rscale>  0 0.12500102E+03</rscale>
<asrwt>0</asrwt>
<pdfrwt beam="1">  1        4 0.15961261E-01 0.12500102E+03</pdfrwt>
<pdfrwt beam="2">  1       -4 0.57925956E-02 0.12500102E+03</pdfrwt>
<totfact> 0.10104419E+04</totfact>
</mgrwt>
</event>
<event>
 5    1  0.1685506E-006  0.1249990E+03  0.7818608E-02  0.1235071E+00
         -4   -1    0    0    0  501 -0.00000000000E+00  0.00000000000E+00  0.10548619139E+03  0.10549574861E+03  0.14200000000E+01 0.  1.
          4   -1    0    0  501    0  0.00000000000E+00 -0.00000000000E+00 -0.37005449170E+02  0.37032683784E+02  0.14200000000E+01 0. -1.
         25    2    1    2    0    0  0.00000000000E+00  0.00000000000E+00  0.68480742223E+02  0.14252843239E+03  0.12499896794E+03 0.  0.
        -13    1    3    3    0    0  0.25323770589E+02  0.47788994183E+02 -0.14745890697E+01  0.54104222638E+02  0.10570000000E+00 0. -1.
         13    1    3    3    0    0 -0.25323770589E+02 -0.47788994183E+02  0.69955331293E+02  0.88424209754E+02  0.10570000000E+00 0.  1.
<mgrwt>
<rscale>  0 0.12499897E+03</rscale>
<asrwt>0</asrwt>
<pdfrwt beam="2">  1        4 0.56959762E-02 0.12499897E+03</pdfrwt>
<pdfrwt beam="1">  1       -4 0.16231475E-01 0.12499897E+03</pdfrwt>
<totfact> 0.10081683E+04</totfact>
</mgrwt>
</event>
<event>
 5    1  0.1685506E-006  0.1250059E+03  0.7818608E-02  0.1235060E+00
         -4   -1    0    0    0  501 -0.00000000000E+00  0.00000000000E+00  0.90221122515E+02  0.90232296590E+02  0.14200000000E+01 0.  1.
          4   -1    0    0  501    0  0.00000000000E+00 -0.00000000000E+00 -0.43274957132E+02  0.43298248404E+02  0.14200000000E+01 0. -1.
         25    2    1    2    0    0  0.00000000000E+00  0.00000000000E+00  0.46946165383E+02  0.13353054499E+03  0.12500585587E+03 0.  0.
        -13    1    3    3    0    0  0.48307806686E+02 -0.20112728044E+02 -0.13040399369E+02  0.53928000189E+02  0.10570000000E+00 0.  1.
         13    1    3    3    0    0 -0.48307806686E+02  0.20112728044E+02  0.59986564752E+02  0.79602544805E+02  0.10570000000E+00 0. -1.
<mgrwt>
<rscale>  0 0.12500586E+03</rscale>
<asrwt>0</asrwt>
<pdfrwt beam="2">  1        4 0.66603369E-02 0.12500586E+03</pdfrwt>
<pdfrwt beam="1">  1       -4 0.13882824E-01 0.12500586E+03</pdfrwt>
<totfact> 0.10267781E+04</totfact>
</mgrwt>
</event>
<event>
 4    1  0.1685506E-006  0.1250757E+03  0.7818608E-02  0.1234951E+00
          4   -1    0    0  501    0  0.00000000000E+00  0.00000000000E+00  0.34442613389E+02  0.34471872840E+02  0.14200000000E+01 0. -1.
         -4   -1    0    0    0  501 -0.00000000000E+00 -0.00000000000E+00 -0.11346875178E+03  0.11347763669E+03  0.14200000000E+01 0.  1.
        -13    1    1    2    0    0 -0.12982742934E+02 -0.60721031210E+02 -0.30710719039E+02  0.69273044409E+02  0.10570000000E+00 0.  1.
         13    1    1    2    0    0  0.12982742934E+02  0.60721031210E+02 -0.48315419347E+02  0.78676465124E+02  0.10570000000E+00 0. -1.
<mgrwt>
<rscale>  0 0.12507568E+03</rscale>
<asrwt>0</asrwt>
<pdfrwt beam="1">  1        4 0.53017978E-02 0.12507568E+03</pdfrwt>
<pdfrwt beam="2">  1       -4 0.17459665E-01 0.12507568E+03</pdfrwt>
<totfact> 0.99544320E+03</totfact>
</mgrwt>
</event>
<event>
 5    1  0.1685506E-006  0.1250009E+03  0.7818608E-02  0.1235068E+00
          4   -1    0    0  501    0  0.00000000000E+00  0.00000000000E+00  0.60774608184E+01  0.62411481315E+01  0.14200000000E+01 0. -1.
         -4   -1    0    0    0  501 -0.00000000000E+00 -0.00000000000E+00 -0.63404782964E+03  0.63404941974E+03  0.14200000000E+01 0.  1.
         25    2    1    2    0    0  0.00000000000E+00  0.00000000000E+00 -0.62797036882E+03  0.64029056787E+03  0.12500090874E+03 0.  0.
        -13    1    3    3    0    0 -0.55188530631E+02  0.27223195570E+02 -0.25800926240E+03  0.26524642683E+03  0.10570000000E+00 0. -1.
         13    1    3    3    0    0  0.55188530631E+02 -0.27223195570E+02 -0.36996110643E+03  0.37504414104E+03  0.10570000000E+00 0.  1.
<mgrwt>
<rscale>  0 0.12500091E+03</rscale>
<asrwt>0</asrwt>
<pdfrwt beam="1">  1        4 0.94770812E-03 0.12500091E+03</pdfrwt>
<pdfrwt beam="2">  1       -4 0.97558482E-01 0.12500091E+03</pdfrwt>
<totfact> 0.46418305E+03</totfact>
</mgrwt>
</event>
<event>
 5    1  0.1685506E-006  0.1249982E+03  0.7818608E-02  0.1235072E+00
         -4   -1    0    0    0  501 -0.00000000000E+00  0.00000000000E+00  0.33178717363E+03  0.33179021231E+03  0.14200000000E+01 0. -1.
          4   -1    0    0  501    0  0.00000000000E+00 -0.00000000000E+00 -0.11727106346E+02  0.11812765267E+02  0.14200000000E+01 0.  1.
         25    2    1    2    0    0  0.00000000000E+00  0.00000000000E+00  0.32006006728E+03  0.34360297758E+03  0.12499823811E+03 0.  0.
        -13    1    3    3    0    0 -0.56011414870E+02 -0.52674521916E+01  0.23486294193E+03  0.24150701297E+03  0.10570000000E+00 0. -1.
         13    1    3    3    0    0  0.56011414870E+02  0.52674521916E+01  0.85197125354E+02  0.10209596461E+03  0.10570000000E+00 0.  1.
<mgrwt>
<rscale>  0 0.12499824E+03</rscale>
<asrwt>0</asrwt>
<pdfrwt beam="2">  1        4 0.18109935E-02 0.12499824E+03</pdfrwt>
<pdfrwt beam="1">  1       -4 0.51050992E-01 0.12499824E+03</pdfrwt>
<totfact> 0.70436840E+03</totfact>
</mgrwt>
</event>
<event>
 5    1  0.1685506E-006  0.1249976E+03  0.7818608E-02  0.1235073E+00
         -4   -1    0    0    0  501 -0.00000000000E+00  0.00000000000E+00  0.55573854790E+02  0.55591993455E+02  0.14200000000E+01 0.  1.
          4   -1    0    0  501    0  0.00000000000E+00 -0.00000000000E+00 -0.70249817254E+02  0.70264167427E+02  0.14200000000E+01 0.  1.
         25    2    1    2    0    0  0.00000000000E+00  0.00000000000E+00 -0.14675962463E+02  0.12585616088E+03  0.12499755741E+03 0.  0.
        -13    1    3    3    0    0  0.14374037019E+02 -0.58401606085E+02 -0.24446626621E+02  0.64923102661E+02  0.10570000000E+00 0.  1.
         13    1    3    3    0    0 -0.14374037019E+02  0.58401606085E+02  0.97706641581E+01  0.60933058220E+02  0.10570000000E+00 0.  1.
<mgrwt>
<rscale>  0 0.12499756E+03</rscale>
<asrwt>0</asrwt>
<pdfrwt beam="2">  1        4 0.10810163E-01 0.12499756E+03</pdfrwt>
<pdfrwt beam="1">  1       -4 0.85523229E-02 0.12499756E+03</pdfrwt>
<totfact> 0.10434687E+04</totfact>
</mgrwt>
</event>
<event>
 5    1  0.1685506E-006  0.1250047E+03  0.7818608E-02  0.1235062E+00
         -4   -1    0    0    0  501 -0.00000000000E+00  0.00000000000E+00  0.32346751733E+02  0.32377905239E+02  0.14200000000E+01 0.  1.
          4   -1    0    0  501    0  0.00000000000E+00 -0.00000000000E+00 -0.12067745420E+03  0.12068580841E+03  0.14200000000E+01 0. -1.
         25    2    1    2    0    0  0.00000000000E+00  0.00000000000E+00 -0.88330702463E+02  0.15306371365E+03  0.12500474966E+03 0.  0.
        -13    1    3    3    0    0  0.32688089688E+02  0.15077552069E+02  0.18398509762E+02  0.40427220011E+02  0.10570000000E+00 0.  1.
         13    1    3    3    0    0 -0.32688089688E+02 -0.15077552069E+02 -0.10672921223E+03  0.11263649364E+03  0.10570000000E+00 0. -1.
<mgrwt>
<rscale>  0 0.12500475E+03</rscale>
<asrwt>0</asrwt>
<pdfrwt beam="2">  1        4 0.18568801E-01 0.12500475E+03</pdfrwt>
<pdfrwt beam="1">  1       -4 0.49794625E-02 0.12500475E+03</pdfrwt>
<totfact> 0.98685916E+03</totfact>
</mgrwt>
</event>
<event>
 5    1  0.1685506E-006  0.1250006E+03  0.7818608E-02  0.1235068E+00
         -4   -1    0    0    0  501 -0.00000000000E+00  0.00000000000E+00  0.15297535148E+02  0.15363299828E+02  0.14200000000E+01 0. -1.
          4   -1    0    0  501    0  0.00000000000E+00 -0.00000000000E+00 -0.25473841269E+03  0.25474237044E+03  0.14200000000E+01 0. -1.
         25    2    1    2    0    0  0.00000000000E+00  0.00000000000E+00 -0.23944087754E+03  0.27010567027E+03  0.12500055710E+03 0.  0.
        -13    1    3    3    0    0  0.20058188451E+02  0.57638679714E+02 -0.14884970049E+03  0.16087508456E+03  0.10570000000E+00 0.  1.
         13    1    3    3    0    0 -0.20058188451E+02 -0.57638679714E+02 -0.90591177045E+02  0.10923058571E+03  0.10570000000E+00 0.  1.
<mgrwt>
<rscale>  0 0.12500056E+03</rscale>
<asrwt>0</asrwt>
<pdfrwt beam="2">  1        4 0.39195885E-01 0.12500056E+03</pdfrwt>
<pdfrwt beam="1">  1       -4 0.23588304E-02 0.12500056E+03</pdfrwt>
<totfact> 0.79507479E+03</totfact>
</mgrwt>
</event>
<event>
 5    1  0.1685506E-006  0.1250003E+03  0.7818608E-02  0.1235069E+00
          4   -1    0    0  501    0  0.00000000000E+00  0.00000000000E+00  0.98124538781E+01  0.99146684821E+01  0.14200000000E+01 0. -1.
         -4   -1    0    0    0  501 -0.00000000000E+00 -0.00000000000E+00 -0.39592650023E+03  0.39592904666E+03  0.14200000000E+01 0.  1.
         25    2    1    2    0    0  0.00000000000E+00  0.00000000000E+00 -0.38611404636E+03  0.40584371514E+03  0.12500025730E+03 0.  0.
        -13    1    3    3    0    0 -0.59286541202E+02  0.89748549983E+00 -0.25722070482E+03  0.26396628877E+03  0.10570000000E+00 0.  1.
         13    1    3    3    0    0  0.59286541202E+02 -0.89748549983E+00 -0.12889334154E+03  0.14187742637E+03  0.10570000000E+00 0. -1.
<mgrwt>
<rscale>  0 0.12500026E+03</rscale>
<asrwt>0</asrwt>
<pdfrwt beam="1">  1        4 0.15176671E-02 0.12500026E+03</pdfrwt>
<pdfrwt beam="2">  1       -4 0.60919816E-01 0.12500026E+03</pdfrwt>
<totfact> 0.63988019E+03</totfact>
</mgrwt>
</event>
<event>
 5    1  0.1685506E-006  0.1250037E+03  0.7818608E-02  0.1235064E+00
          4   -1    0    0  501    0  0.00000000000E+00  0.00000000000E+00  0.32741155867E+03  0.32741463796E+03  0.14200000000E+01 0.  1.
         -4   -1    0    0    0  501 -0.00000000000E+00 -0.00000000000E+00 -0.11886011496E+02  0.11970533375E+02  0.14200000000E+01 0. -1.
         25    2    1    2    0    0  0.00000000000E+00  0.00000000000E+00  0.31552554717E+03  0.33938517134E+03  0.12500369436E+03 0.  0.
        -13    1    3    3    0    0 -0.59238182833E+02 -0.17978961521E+02  0.18112825150E+03  0.19141541220E+03  0.10570000000E+00 0. -1.
         13    1    3    3    0    0  0.59238182833E+02  0.17978961521E+02  0.13439729567E+03  0.14796975914E+03  0.10570000000E+00 0.  1.
<mgrwt>
<rscale>  0 0.12500369E+03</rscale>
<asrwt>0</asrwt>
<pdfrwt beam="1">  1        4 0.50377746E-01 0.12500369E+03</pdfrwt>
<pdfrwt beam="2">  1       -4 0.18353558E-02 0.12500369E+03</pdfrwt>
<totfact> 0.70902521E+03</totfact>
</mgrwt>
</event>
<event>
 5    1  0.1685506E-006  0.1249991E+03  0.7818608E-02  0.1235071E+00
          4   -1    0    0  501    0  0.00000000000E+00  0.00000000000E+00  0.73266357848E+02  0.73280117305E+02  0.14200000000E+01 0. -1.
         -4   -1    0    0    0  501 -0.00000000000E+00 -0.00000000000E+00 -0.53286756661E+02  0.53305673577E+02  0.14200000000E+01 0.  1.
         25    2    1    2    0    0  0.00000000000E+00  0.00000000000E+00  0.19979601187E+02  0.12658579088E+03  0.12499911196E+03 0.  0.
        -13    1    3    3    0    0 -0.46169121961E+02  0.11868480141E+02  0.50922350119E+02  0.69753462692E+02  0.10570000000E+00 0.  1.
         13    1    3    3    0    0  0.46169121961E+02 -0.11868480141E+02 -0.30942748932E+02  0.56832328190E+02  0.10570000000E+00 0. -1.
<mgrwt>
<rscale>  0 0.12499911E+03</rscale>
<asrwt>0</asrwt>
<pdfrwt beam="1">  1        4 0.11274261E-01 0.12499911E+03</pdfrwt>
<pdfrwt beam="2">  1       -4 0.82004761E-02 0.12499911E+03</pdfrwt>
<totfact> 0.10418367E+04</totfact>
</mgrwt>
</event>
<event>
 5    1  0.1685506E-006  0.1250011E+03  0.7818608E-02  0.1235068E+00
          4   -1    0    0  501    0  0.00000000000E+00  0.00000000000E+00  0.16948393168E+03  0.16948988022E+03  0.14200000000E+01 0. -1.
         -4   -1    0    0    0  501 -0.00000000000E+00 -0.00000000000E+00 -0.23020074359E+02  0.23063829333E+02  0.14200000000E+01 0. -1.
         25    2    1    2    0    0  0.00000000000E+00  0.00000000000E+00  0.14646385732E+03  0.19255370955E+03  0.12500107824E+03 0.  0.
        -13    1    3    3    0    0  0.13449700908E+02  0.60759520716E+02  0.64290557110E+02  0.89475699037E+02  0.10570000000E+00 0. -1.
         13    1    3    3    0    0 -0.13449700908E+02 -0.60759520716E+02  0.82173300211E+02  0.10307801052E+03  0.10570000000E+00 0. -1.
<mgrwt>
<rscale>  0 0.12500108E+03</rscale>
<asrwt>0</asrwt>
<pdfrwt beam="1">  1        4 0.26078273E-01 0.12500108E+03</pdfrwt>
<pdfrwt beam="2">  1       -4 0.35453734E-02 0.12500108E+03</pdfrwt>
<totfact> 0.91402661E+03</totfact>
</mgrwt>
</event>
<event>
 5    1  0.1685506E-006  0.1249988E+03  0.7818608E-02  0.1235071E+00
         -4   -1    0    0    0  501 -0.00000000000E+00  0.00000000000E+00  0.42394236810E+02  0.42418011677E+02  0.14200000000E+01 0.  1.
          4   -1    0    0  501    0  0.00000000000E+00 -0.00000000000E+00 -0.92084171283E+02  0.92095119311E+02  0.14200000000E+01 0. -1.
         25    2    1    2    0    0  0.00000000000E+00  0.00000000000E+00 -0.49689934474E+02  0.13451313099E+03  0.12499877128E+03 0.  0.
        -13    1    3    3    0    0  0.44649673058E+02  0.13408832275E+01  0.22194590637E+02  0.49879878689E+02  0.10570000000E+00 0.  1.
         13    1    3    3    0    0 -0.44649673058E+02 -0.13408832275E+01 -0.71884525111E+02  0.84633252300E+02  0.10570000000E+00 0. -1.
<mgrwt>
<rscale>  0 0.12499877E+03</rscale>
<asrwt>0</asrwt>
<pdfrwt beam="2">  1        4 0.14169466E-01 0.12499877E+03</pdfrwt>
<pdfrwt beam="1">  1       -4 0.65248613E-02 0.12499877E+03</pdfrwt>
<totfact> 0.10248627E+04</totfact>
</mgrwt>
</event>
<event>
 5    1  0.1685506E-006  0.1249984E+03  0.7818608E-02  0.1235072E+00
          4   -1    0    0  501    0  0.00000000000E+00  0.00000000000E+00  0.57613345422E+03  0.57613520416E+03  0.14200000000E+01 0. -1.
         -4   -1    0    0    0  501 -0.00000000000E+00 -0.00000000000E+00 -0.67038066136E+01  0.68525486582E+01  0.14200000000E+01 0.  1.
         25    2    1    2    0    0  0.00000000000E+00  0.00000000000E+00  0.56942964761E+03  0.58298775282E+03  0.12499838544E+03 0.  0.
        -13    1    3    3    0    0  0.35077147796E+02  0.50007041000E+02  0.34641808760E+03  0.35176215407E+03  0.10570000000E+00 0.  1.
         13    1    3    3    0    0 -0.35077147796E+02 -0.50007041000E+02  0.22301156001E+03  0.23122559876E+03  0.10570000000E+00 0. -1.
<mgrwt>
<rscale>  0 0.12499839E+03</rscale>
<asrwt>0</asrwt>
<pdfrwt beam="1">  1        4 0.88647474E-01 0.12499839E+03</pdfrwt>
<pdfrwt beam="2">  1       -4 0.10429314E-02 0.12499839E+03</pdfrwt>
<totfact> 0.49961164E+03</totfact>
</mgrwt>
</event>
<event>
 5    1  0.1685506E-006  0.1249983E+03  0.7818608E-02  0.1235072E+00
         -4   -1    0    0    0  501 -0.00000000000E+00  0.00000000000E+00  0.32595649583E+03  0.32595958886E+03  0.14200000000E+01 0. -1.
          4   -1    0    0  501    0  0.00000000000E+00 -0.00000000000E+00 -0.11938413547E+02  0.12022567031E+02  0.14200000000E+01 0. -1.
         25    2    1    2    0    0  0.00000000000E+00  0.00000000000E+00  0.31401808228E+03  0.33798215589E+03  0.12499832680E+03 0.  0.
        -13    1    3    3    0    0 -0.60475127374E+02  0.14939099824E+02  0.14329720349E+03  0.15625145578E+03  0.10570000000E+00 0. -1.
         13    1    3    3    0    0  0.60475127374E+02 -0.14939099824E+02  0.17072087879E+03  0.18173070011E+03  0.10570000000E+00 0. -1.
<mgrwt>
<rscale>  0 0.12499833E+03</rscale>
<asrwt>0</asrwt>
<pdfrwt beam="2">  1        4 0.18433904E-02 0.12499833E+03</pdfrwt>
<pdfrwt beam="1">  1       -4 0.50153860E-01 0.12499833E+03</pdfrwt>
<totfact> 0.71069855E+03</totfact>
</mgrwt>
</event>
<event>
 5    1  0.1685506E-006  0.1250012E+03  0.7818608E-02  0.1235067E+00
          4   -1    0    0  501    0  0.00000000000E+00  0.00000000000E+00  0.19034043523E+02  0.19086938278E+02  0.14200000000E+01 0. -1.
         -4   -1    0    0    0  501 -0.00000000000E+00 -0.00000000000E+00 -0.20488834002E+03  0.20489326069E+03  0.14200000000E+01 0.  1.
         25    2    1    2    0    0  0.00000000000E+00  0.00000000000E+00 -0.18585429650E+03  0.22398019897E+03  0.12500124001E+03 0.  0.
        -13    1    3    3    0    0  0.31915664829E+02 -0.43616565831E+02 -0.14917163453E+03  0.15866065107E+03  0.10570000000E+00 0.  1.
         13    1    3    3    0    0 -0.31915664829E+02  0.43616565831E+02 -0.36682661965E+02  0.65319547898E+02  0.10570000000E+00 0. -1.
<mgrwt>
<rscale>  0 0.12500124E+03</rscale>
<asrwt>0</asrwt>
<pdfrwt beam="1">  1        4 0.29327619E-02 0.12500124E+03</pdfrwt>
<pdfrwt beam="2">  1       -4 0.31525729E-01 0.12500124E+03</pdfrwt>
<totfact> 0.86240040E+03</totfact>
</mgrwt>
</event>
<event>
 4    1  0.1685506E-006  0.1253980E+03  0.7818608E-02  0.1234449E+00
          4   -1    0    0  501    0  0.00000000000E+00  0.00000000000E+00  0.14262895792E+03  0.14263602643E+03  0.14200000000E+01 0.  1.
         -4   -1    0    0    0  501 -0.00000000000E+00 -0.00000000000E+00 -0.27536147279E+02  0.27572736661E+02  0.14200000000E+01 0. -1.
        -13    1    1    2    0    0  0.46817193742E+02 -0.36495262784E+00  0.94039241893E+00  0.46828178811E+02  0.10570000000E+00 0. -1.
         13    1    1    2    0    0 -0.46817193742E+02  0.36495262784E+00  0.11415241822E+03  0.12338058428E+03  0.10570000000E+00 0.  1.
<mgrwt>
<rscale>  0 0.12539804E+03</rscale>
<asrwt>0</asrwt>
<pdfrwt beam="1">  1        4 0.21946275E-01 0.12539804E+03</pdfrwt>
<pdfrwt beam="2">  1       -4 0.42396887E-02 0.12539804E+03</pdfrwt>
<totfact> 0.94562263E+03</totfact>
</mgrwt>
</event>
<event>
 5    1  0.1685506E-006  0.1250267E+03  0.7818608E-02  0.1235028E+00
         -4   -1    0    0    0  501 -0.00000000000E+00  0.00000000000E+00  0.18025091162E+02  0.18080937791E+02  0.14200000000E+01 0. -1.
          4   -1    0    0  501    0  0.00000000000E+00 -0.00000000000E+00 -0.21641094576E+03  0.21641560444E+03  0.14200000000E+01 0.  1.
         25    2    1    2    0    0  0.00000000000E+00  0.00000000000E+00 -0.19838585460E+03  0.23449654223E+03  0.12502672120E+03 0.  0.
        -13    1    3    3    0    0 -0.50313843942E+02 -0.36706099853E+02 -0.89077279877E+02  0.10869035662E+03  0.10570000000E+00 0. -1.
         13    1    3    3    0    0  0.50313843942E+02  0.36706099853E+02 -0.10930857472E+03  0.12580618561E+03  0.10570000000E+00 0.  1.
<mgrwt>
<rscale>  0 0.12502672E+03</rscale>
<asrwt>0</asrwt>
<pdfrwt beam="2">  1        4 0.33298644E-01 0.12502672E+03</pdfrwt>
<pdfrwt beam="1">  1       -4 0.27777454E-02 0.12502672E+03</pdfrwt>
<totfact> 0.84573484E+03</totfact>
</mgrwt>
</event>
<event>
 5    1  0.1685506E-006  0.1250011E+03  0.7818608E-02  0.1235068E+00
         -4   -1    0    0    0  501 -0.00000000000E+00  0.00000000000E+00  0.96367302566E+01  0.97407889844E+01  0.14200000000E+01 0. -1.
          4   -1    0    0  501    0  0.00000000000E+00 -0.00000000000E+00 -0.40307524127E+03  0.40307774253E+03  0.14200000000E+01 0. -1.
         25    2    1    2    0    0  0.00000000000E+00  0.00000000000E+00 -0.39343851101E+03  0.41281853151E+03  0.12500111205E+03 0.  0.
        -13    1    3    3    0    0 -0.24445011202E+02 -0.57332029448E+02 -0.21213468272E+03  0.22110100624E+03  0.10570000000E+00 0.  1.
         13    1    3    3    0    0  0.24445011202E+02  0.57332029448E+02 -0.18130382829E+03  0.19171752528E+03  0.10570000000E+00 0.  1.
<mgrwt>
<rscale>  0 0.12500111E+03</rscale>
<asrwt>0</asrwt>
<pdfrwt beam="2">  1        4 0.62019760E-01 0.12500111E+03</pdfrwt>
<pdfrwt beam="1">  1       -4 0.14907711E-02 0.12500111E+03</pdfrwt>
<totfact> 0.63323332E+03</totfact>
</mgrwt>
</event>
<event>
 5    1  0.1685506E-006  0.1250022E+03  0.7818608E-02  0.1235066E+00
         -4   -1    0    0    0  501 -0.00000000000E+00  0.00000000000E+00  0.25065875981E+03  0.25066278198E+03  0.14200000000E+01 0.  1.
          4   -1    0    0  501    0  0.00000000000E+00 -0.00000000000E+00 -0.15547984235E+02  0.15612693994E+02  0.14200000000E+01 0. -1.
         25    2    1    2    0    0  0.00000000000E+00  0.00000000000E+00  0.23511077558E+03  0.26627547597E+03  0.12500220923E+03 0.  0.
        -13    1    3    3    0    0 -0.64608938051E+01  0.61701569099E+02  0.13371521182E+03  0.14740622721E+03  0.10570000000E+00 0.  1.
         13    1    3    3    0    0  0.64608938051E+01 -0.61701569099E+02  0.10139556376E+03  0.11886924876E+03  0.10570000000E+00 0. -1.
<mgrwt>
<rscale>  0 0.12500221E+03</rscale>
<asrwt>0</asrwt>
<pdfrwt beam="2">  1        4 0.23972847E-02 0.12500221E+03</pdfrwt>
<pdfrwt beam="1">  1       -4 0.38568172E-01 0.12500221E+03</pdfrwt>
<totfact> 0.80029440E+03</totfact>
</mgrwt>
</event>
<event>
 5    1  0.1685506E-006  0.1250017E+03  0.7818608E-02  0.1235067E+00
         -4   -1    0    0    0  501 -0.00000000000E+00  0.00000000000E+00  0.14498546173E+02  0.14567918216E+02  0.14200000000E+01 0.  1.
          4   -1    0    0  501    0  0.00000000000E+00 -0.00000000000E+00 -0.26871677740E+03  0.26872052928E+03  0.14200000000E+01 0. -1.
         25    2    1    2    0    0  0.00000000000E+00  0.00000000000E+00 -0.25421823123E+03  0.28328844749E+03  0.12500174157E+03 0.  0.
        -13    1    3    3    0    0  0.13409385385E+02 -0.41246857106E+02 -0.22909739875E+03  0.23316677320E+03  0.10570000000E+00 0.  1.
         13    1    3    3    0    0 -0.13409385385E+02  0.41246857106E+02 -0.25120832479E+02  0.50121674299E+02  0.10570000000E+00 0. -1.
<mgrwt>
<rscale>  0 0.12500174E+03</rscale>
<asrwt>0</asrwt>
<pdfrwt beam="2">  1        4 0.41346664E-01 0.12500174E+03</pdfrwt>
<pdfrwt beam="1">  1       -4 0.22361707E-02 0.12500174E+03</pdfrwt>
<totfact> 0.77741085E+03</totfact>
</mgrwt>
</event>
<event>
 5    1  0.1685506E-006  0.1249999E+03  0.7818608E-02  0.1235069E+00
          4   -1    0    0  501    0  0.00000000000E+00  0.00000000000E+00  0.46481528282E+02  0.46503213560E+02  0.14200000000E+01 0. -1.
         -4   -1    0    0    0  501 -0.00000000000E+00 -0.00000000000E+00 -0.83991342136E+02  0.84003344896E+02  0.14200000000E+01 0.  1.
         25    2    1    2    0    0  0.00000000000E+00  0.00000000000E+00 -0.37509813854E+02  0.13050655846E+03  0.12499990266E+03 0.  0.
        -13    1    3    3    0    0 -0.11183987647E+02 -0.14076681573E+02 -0.81250005495E+02  0.83215437926E+02  0.10570000000E+00 0.  1.
         13    1    3    3    0    0  0.11183987647E+02  0.14076681573E+02  0.43740191641E+02  0.47291120530E+02  0.10570000000E+00 0. -1.
<mgrwt>
<rscale>  0 0.12499990E+03</rscale>
<asrwt>0</asrwt>
<pdfrwt beam="1">  1        4 0.71535957E-02 0.12499990E+03</pdfrwt>
<pdfrwt beam="2">  1       -4 0.12924336E-01 0.12499990E+03</pdfrwt>
<totfact> 0.10333702E+04</totfact>
</mgrwt>
</event>
<event>
 5    1  0.1685506E-006  0.1250025E+03  0.7818608E-02  0.1235065E+00
          4   -1    0    0  501    0  0.00000000000E+00  0.00000000000E+00  0.49594333975E+02  0.49614658745E+02  0.14200000000E+01 0. -1.
         -4   -1    0    0    0  501 -0.00000000000E+00 -0.00000000000E+00 -0.78724272691E+02  0.78737078373E+02  0.14200000000E+01 0.  1.
         25    2    1    2    0    0  0.00000000000E+00  0.00000000000E+00 -0.29129938716E+02  0.12835173712E+03  0.12500246034E+03 0.  0.
        -13    1    3    3    0    0 -0.39685673309E+01  0.59311042638E+02  0.52615445227E+01  0.59676162148E+02  0.10570000000E+00 0.  1.
         13    1    3    3    0    0  0.39685673309E+01 -0.59311042638E+02 -0.34391483239E+02  0.68675574969E+02  0.10570000000E+00 0. -1.
<mgrwt>
<rscale>  0 0.12500246E+03</rscale>
<asrwt>0</asrwt>
<pdfrwt beam="1">  1        4 0.76324460E-02 0.12500246E+03</pdfrwt>
<pdfrwt beam="2">  1       -4 0.12113975E-01 0.12500246E+03</pdfrwt>
<totfact> 0.10379322E+04</totfact>
</mgrwt>
</event>
<event>
 5    1  0.1685506E-006  0.1250010E+03  0.7818608E-02  0.1235068E+00
         -4   -1    0    0    0  501 -0.00000000000E+00  0.00000000000E+00  0.18567110005E+03  0.18567653000E+03  0.14200000000E+01 0. -1.
          4   -1    0    0  501    0  0.00000000000E+00 -0.00000000000E+00 -0.21009193291E+02  0.21057127124E+02  0.14200000000E+01 0.  1.
         25    2    1    2    0    0  0.00000000000E+00  0.00000000000E+00  0.16466190675E+03  0.20673365712E+03  0.12500104580E+03 0.  0.
        -13    1    3    3    0    0 -0.44513251512E+02  0.69987480321E+01  0.15396202933E+03  0.16042047775E+03  0.10570000000E+00 0. -1.
         13    1    3    3    0    0  0.44513251512E+02 -0.69987480321E+01  0.10699877428E+02  0.46313179373E+02  0.10570000000E+00 0.  1.
<mgrwt>
<rscale>  0 0.12500105E+03</rscale>
<asrwt>0</asrwt>
<pdfrwt beam="2">  1        4 0.32362886E-02 0.12500105E+03</pdfrwt>
<pdfrwt beam="1">  1       -4 0.28568889E-01 0.12500105E+03</pdfrwt>
<totfact> 0.89010030E+03</totfact>
</mgrwt>
</event>
<event>
 5    1  0.1685506E-006  0.1249993E+03  0.7818608E-02  0.1235070E+00
          4   -1    0    0  501    0  0.00000000000E+00  0.00000000000E+00  0.24038306890E+02  0.24080211754E+02  0.14200000000E+01 0. -1.
         -4   -1    0    0    0  501 -0.00000000000E+00 -0.00000000000E+00 -0.16231279652E+03  0.16231900786E+03  0.14200000000E+01 0. -1.
         25    2    1    2    0    0  0.00000000000E+00  0.00000000000E+00 -0.13827448963E+03  0.18639921962E+03  0.12499933837E+03 0.  0.
        -13    1    3    3    0    0  0.52192531477E+02 -0.14170914812E+02 -0.22423765985E+02  0.58546661920E+02  0.10570000000E+00 0. -1.
         13    1    3    3    0    0 -0.52192531477E+02  0.14170914812E+02 -0.11585072364E+03  0.12785255770E+03  0.10570000000E+00 0. -1.
<mgrwt>
<rscale>  0 0.12499934E+03</rscale>
<asrwt>0</asrwt>
<pdfrwt beam="1">  1        4 0.37019024E-02 0.12499934E+03</pdfrwt>
<pdfrwt beam="2">  1       -4 0.24974900E-01 0.12499934E+03</pdfrwt>
<totfact> 0.92479012E+03</totfact>
</mgrwt>
</event>
<event>
 5    1  0.1685506E-006  0.1250237E+03  0.7818608E-02  0.1235032E+00
          4   -1    0    0  501    0  0.00000000000E+00  0.00000000000E+00  0.47228846091E+02  0.47250188393E+02  0.14200000000E+01 0. -1.
         -4   -1    0    0    0  501 -0.00000000000E+00 -0.00000000000E+00 -0.82694235770E+02  0.82706426773E+02  0.14200000000E+01 0.  1.
         25    2    1    2    0    0  0.00000000000E+00  0.00000000000E+00 -0.35465389678E+02  0.12995661517E+03  0.12502370959E+03 0.  0.
        -13    1    3    3    0    0  0.56452611959E+02  0.25454771153E+01 -0.45514451373E+02  0.72559997981E+02  0.10570000000E+00 0.  1.
         13    1    3    3    0    0 -0.56452611959E+02 -0.25454771153E+01  0.10049061695E+02  0.57396617184E+02  0.10570000000E+00 0. -1.
<mgrwt>
<rscale>  0 0.12502371E+03</rscale>
<asrwt>0</asrwt>
<pdfrwt beam="1">  1        4 0.72685558E-02 0.12502371E+03</pdfrwt>
<pdfrwt beam="2">  1       -4 0.12724770E-01 0.12502371E+03</pdfrwt>
<totfact> 0.10339901E+04</totfact>
</mgrwt>
</event>
<event>
 5    1  0.1685506E-006  0.1250005E+03  0.7818608E-02  0.1235069E+00
         -4   -1    0    0    0  501 -0.00000000000E+00  0.00000000000E+00  0.53540696225E+02  0.53559523450E+02  0.14200000000E+01 0.  1.
          4   -1    0    0  501    0  0.00000000000E+00 -0.00000000000E+00 -0.72920521293E+02  0.72934345994E+02  0.14200000000E+01 0.  1.
         25    2    1    2    0    0  0.00000000000E+00  0.00000000000E+00 -0.19379825068E+02  0.12649386944E+03  0.12500048555E+03 0.  0.
        -13    1    3    3    0    0  0.23893182388E+02 -0.57684908759E+02 -0.12522697537E+02  0.63680938979E+02  0.10570000000E+00 0. -1.
         13    1    3    3    0    0 -0.23893182388E+02  0.57684908759E+02 -0.68571275312E+01  0.62812930465E+02  0.10570000000E+00 0. -1.
<mgrwt>
<rscale>  0 0.12500049E+03</rscale>
<asrwt>0</asrwt>
<pdfrwt beam="2">  1        4 0.11221053E-01 0.12500049E+03</pdfrwt>
<pdfrwt beam="1">  1       -4 0.82395419E-02 0.12500049E+03</pdfrwt>
<totfact> 0.10420048E+04</totfact>
</mgrwt>
</event>
<event>
 5    1  0.1685506E-006  0.1250004E+03  0.7818608E-02  0.1235069E+00
          4   -1    0    0  501    0  0.00000000000E+00  0.00000000000E+00  0.17148234033E+03  0.17148821956E+03  0.14200000000E+01 0. -1.
         -4   -1    0    0    0  501 -0.00000000000E+00 -0.00000000000E+00 -0.22751069336E+02  0.22795340662E+02  0.14200000000E+01 0. -1.
         25    2    1    2    0    0  0.00000000000E+00  0.00000000000E+00  0.14873127100E+03  0.19428356022E+03  0.12500044319E+03 0.  0.
        -13    1    3    3    0    0 -0.40525155163E+02  0.61880501358E+01  0.10398907419E+01  0.41008202968E+02  0.10570000000E+00 0. -1.
         13    1    3    3    0    0  0.40525155163E+02 -0.61880501358E+01  0.14769138026E+03  0.15327535725E+03  0.10570000000E+00 0. -1.
<mgrwt>
<rscale>  0 0.12500044E+03</rscale>
<asrwt>0</asrwt>
<pdfrwt beam="1">  1        4 0.26385756E-01 0.12500044E+03</pdfrwt>
<pdfrwt beam="2">  1       -4 0.35040223E-02 0.12500044E+03</pdfrwt>
<totfact> 0.91106381E+03</totfact>
</mgrwt>
</event>
<event>
 5    1  0.1685506E-006  0.1250017E+03  0.7818608E-02  0.1235067E+00
         -4   -1    0    0    0  501 -0.00000000000E+00  0.00000000000E+00  0.60998260788E+02  0.61014786889E+02  0.14200000000E+01 0. -1.
          4   -1    0    0  501    0  0.00000000000E+00 -0.00000000000E+00 -0.64007391547E+02  0.64023140915E+02  0.14200000000E+01 0. -1.
         25    2    1    2    0    0  0.00000000000E+00  0.00000000000E+00 -0.30091307589E+01  0.12503792780E+03  0.12500171407E+03 0.  0.
        -13    1    3    3    0    0  0.61100806848E+01  0.30035276486E+02 -0.55989557269E+02  0.63830185768E+02  0.10570000000E+00 0.  1.
         13    1    3    3    0    0 -0.61100806848E+01 -0.30035276486E+02  0.52980426510E+02  0.61207742036E+02  0.10570000000E+00 0.  1.
<mgrwt>
<rscale>  0 0.12500171E+03</rscale>
<asrwt>0</asrwt>
<pdfrwt beam="2">  1        4 0.98497738E-02 0.12500171E+03</pdfrwt>
<pdfrwt beam="1">  1       -4 0.93868305E-02 0.12500171E+03</pdfrwt>
<totfact> 0.10451634E+04</totfact>
</mgrwt>
</event>
<event>
 5    1  0.1685506E-006  0.1249976E+03  0.7818608E-02  0.1235073E+00
         -4   -1    0    0    0  501 -0.00000000000E+00  0.00000000000E+00  0.15808201538E+03  0.15808839295E+03  0.14200000000E+01 0. -1.
          4   -1    0    0  501    0  0.00000000000E+00 -0.00000000000E+00 -0.24682038408E+02  0.24722852182E+02  0.14200000000E+01 0.  1.
         25    2    1    2    0    0  0.00000000000E+00  0.00000000000E+00  0.13339997697E+03  0.18281124514E+03  0.12499758994E+03 0.  0.
        -13    1    3    3    0    0 -0.17765368532E+01 -0.46943443744E+02  0.12698776875E+03  0.13539847702E+03  0.10570000000E+00 0. -1.
         13    1    3    3    0    0  0.17765368532E+01  0.46943443744E+02  0.64122082191E+01  0.47412768116E+02  0.10570000000E+00 0.  1.
<mgrwt>
<rscale>  0 0.12499759E+03</rscale>
<asrwt>0</asrwt>
<pdfrwt beam="2">  1        4 0.38008669E-02 0.12499759E+03</pdfrwt>
<pdfrwt beam="1">  1       -4 0.24323939E-01 0.12499759E+03</pdfrwt>
<totfact> 0.93118434E+03</totfact>
</mgrwt>
</event>
<event>
 5    1  0.1685506E-006  0.1250038E+03  0.7818608E-02  0.1235063E+00
         -4   -1    0    0    0  501 -0.00000000000E+00  0.00000000000E+00  0.14383736218E+03  0.14384437131E+03  0.14200000000E+01 0.  1.
          4   -1    0    0  501    0  0.00000000000E+00 -0.00000000000E+00 -0.27132839846E+02  0.27169972361E+02  0.14200000000E+01 0. -1.
         25    2    1    2    0    0  0.00000000000E+00  0.00000000000E+00  0.11670452233E+03  0.17101434367E+03  0.12500384078E+03 0.  0.
        -13    1    3    3    0    0 -0.41830278192E+02 -0.16279649767E+02  0.11785445574E+03  0.12611297744E+03  0.10570000000E+00 0.  1.
         13    1    3    3    0    0  0.41830278192E+02  0.16279649767E+02 -0.11499334034E+01  0.44901366231E+02  0.10570000000E+00 0. -1.
<mgrwt>
<rscale>  0 0.12500384E+03</rscale>
<asrwt>0</asrwt>
<pdfrwt beam="2">  1        4 0.41776785E-02 0.12500384E+03</pdfrwt>
<pdfrwt beam="1">  1       -4 0.22132221E-01 0.12500384E+03</pdfrwt>
<totfact> 0.95251702E+03</totfact>
</mgrwt>
</event>
<event>
 5    1  0.1685506E-006  0.1250021E+03  0.7818608E-02  0.1235066E+00
         -4   -1    0    0    0  501 -0.00000000000E+00  0.00000000000E+00  0.30688302283E+02  0.30721137625E+02  0.14200000000E+01 0.  1.
          4   -1    0    0  501    0  0.00000000000E+00 -0.00000000000E+00 -0.12718742322E+03  0.12719534985E+03  0.14200000000E+01 0. -1.
         25    2    1    2    0    0  0.00000000000E+00  0.00000000000E+00 -0.96499120932E+02  0.15791648748E+03  0.12500214669E+03 0.  0.
        -13    1    3    3    0    0 -0.51568797749E+02 -0.14053132690E+02 -0.73225687278E+01  0.53948703644E+02  0.10570000000E+00 0.  1.
         13    1    3    3    0    0  0.51568797749E+02  0.14053132690E+02 -0.89176552205E+02  0.10396778383E+03  0.10570000000E+00 0. -1.
<mgrwt>
<rscale>  0 0.12500215E+03</rscale>
<asrwt>0</asrwt>
<pdfrwt beam="2">  1        4 0.19570431E-01 0.12500215E+03</pdfrwt>
<pdfrwt beam="1">  1       -4 0.47244129E-02 0.12500215E+03</pdfrwt>
<totfact> 0.97741263E+03</totfact>
</mgrwt>
</event>
<event>
 5    1  0.1685506E-006  0.1249959E+03  0.7818608E-02  0.1235076E+00
          4   -1    0    0  501    0  0.00000000000E+00  0.00000000000E+00  0.55701707208E+02  0.55719804252E+02  0.14200000000E+01 0.  1.
         -4   -1    0    0    0  501 -0.00000000000E+00 -0.00000000000E+00 -0.70086701533E+02  0.70101085097E+02  0.14200000000E+01 0. -1.
         25    2    1    2    0    0  0.00000000000E+00  0.00000000000E+00 -0.14384994325E+02  0.12582088935E+03  0.12499587247E+03 0.  0.
        -13    1    3    3    0    0 -0.33274520294E+02  0.46754427437E+02 -0.32110902124E+02  0.65759344534E+02  0.10570000000E+00 0. -1.
         13    1    3    3    0    0  0.33274520294E+02 -0.46754427437E+02  0.17725907799E+02  0.60061544815E+02  0.10570000000E+00 0.  1.
<mgrwt>
<rscale>  0 0.12499587E+03</rscale>
<asrwt>0</asrwt>
<pdfrwt beam="1">  1        4 0.85719919E-02 0.12499587E+03</pdfrwt>
<pdfrwt beam="2">  1       -4 0.10785068E-01 0.12499587E+03</pdfrwt>
<totfact> 0.10435858E+04</totfact>
</mgrwt>
</event>
<event>
 5    1  0.1685506E-006  0.1249997E+03  0.7818608E-02  0.1235070E+00
         -4   -1    0    0    0  501 -0.00000000000E+00  0.00000000000E+00  0.10597922918E+03  0.10598874194E+03  0.14200000000E+01 0.  1.
          4   -1    0    0  501    0  0.00000000000E+00 -0.00000000000E+00 -0.36833618181E+02  0.36860979753E+02  0.14200000000E+01 0. -1.
         25    2    1    2    0    0  0.00000000000E+00  0.00000000000E+00  0.69145611003E+02  0.14284972169E+03  0.12499970987E+03 0.  0.
        -13    1    3    3    0    0 -0.42219341581E+02  0.43150393377E+02  0.53063282570E+02  0.80375073137E+02  0.10570000000E+00 0.  1.
         13    1    3    3    0    0  0.42219341581E+02 -0.43150393377E+02  0.16082328433E+02  0.62474648558E+02  0.10570000000E+00 0. -1.
<mgrwt>
<rscale>  0 0.12499971E+03</rscale>
<asrwt>0</asrwt>
<pdfrwt beam="2">  1        4 0.56695470E-02 0.12499971E+03</pdfrwt>
<pdfrwt beam="1">  1       -4 0.16307333E-01 0.12499971E+03</pdfrwt>
<totfact> 0.10074927E+04</totfact>
</mgrwt>
</event>
<event>
 5    1  0.1685506E-006  0.1250054E+03  0.7818608E-02  0.1235061E+00
         -4   -1    0    0    0  501 -0.00000000000E+00  0.00000000000E+00  0.12007279581E+03  0.12008119209E+03  0.14200000000E+01 0. -1.
          4   -1    0    0  501    0  0.00000000000E+00 -0.00000000000E+00 -0.32510122789E+02  0.32541119891E+02  0.14200000000E+01 0.  1.
         25    2    1    2    0    0  0.00000000000E+00  0.00000000000E+00  0.87562673023E+02  0.15262231198E+03  0.12500539352E+03 0.  0.
        -13    1    3    3    0    0 -0.44719887738E+01  0.62332240734E+02  0.42405958827E+02  0.75522072502E+02  0.10570000000E+00 0. -1.
         13    1    3    3    0    0  0.44719887738E+01 -0.62332240734E+02  0.45156714196E+02  0.77100239481E+02  0.10570000000E+00 0.  1.
<mgrwt>
<rscale>  0 0.12500539E+03</rscale>
<asrwt>0</asrwt>
<pdfrwt beam="2">  1        4 0.50045877E-02 0.12500539E+03</pdfrwt>
<pdfrwt beam="1">  1       -4 0.18475768E-01 0.12500539E+03</pdfrwt>
<totfact> 0.98771539E+03</totfact>
</mgrwt>
</event>
<event>
 5    1  0.1685506E-006  0.1250169E+03  0.7818608E-02  0.1235043E+00
          4   -1    0    0  501    0  0.00000000000E+00  0.00000000000E+00  0.15447427440E+02  0.15512556673E+02  0.14200000000E+01 0. -1.
         -4   -1    0    0    0  501 -0.00000000000E+00 -0.00000000000E+00 -0.25234308866E+03  0.25234708398E+03  0.14200000000E+01 0.  1.
         25    2    1    2    0    0  0.00000000000E+00  0.00000000000E+00 -0.23689566122E+03  0.26785964065E+03  0.12501693000E+03 0.  0.
        -13    1    3    3    0    0  0.32145695252E+02 -0.41738606642E+02 -0.19053051876E+03  0.19767990985E+03  0.10570000000E+00 0.  1.
         13    1    3    3    0    0 -0.32145695252E+02  0.41738606642E+02 -0.46365142457E+02  0.70179730800E+02  0.10570000000E+00 0. -1.
<mgrwt>
<rscale>  0 0.12501693E+03</rscale>
<asrwt>0</asrwt>
<pdfrwt beam="1">  1        4 0.23818448E-02 0.12501693E+03</pdfrwt>
<pdfrwt beam="2">  1       -4 0.38827328E-01 0.12501693E+03</pdfrwt>
<totfact> 0.79785516E+03</totfact>
</mgrwt>
</event>
<event>
 5    1  0.1685506E-006  0.1249950E+03  0.7818608E-02  0.1235077E+00
         -4   -1    0    0    0  501 -0.00000000000E+00  0.00000000000E+00  0.74476997394E+02  0.74490533230E+02  0.14200000000E+01 0.  1.
          4   -1    0    0  501    0  0.00000000000E+00 -0.00000000000E+00 -0.52417006836E+02  0.52436237523E+02  0.14200000000E+01 0. -1.
         25    2    1    2    0    0  0.00000000000E+00  0.00000000000E+00  0.22059990559E+02  0.12692677075E+03  0.12499504770E+03 0.  0.
        -13    1    3    3    0    0  0.39081452818E+02  0.40441808796E+02  0.38709826748E+02  0.68274165776E+02  0.10570000000E+00 0.  1.
         13    1    3    3    0    0 -0.39081452818E+02 -0.40441808796E+02 -0.16649836189E+02  0.58652604978E+02  0.10570000000E+00 0. -1.
<mgrwt>
<rscale>  0 0.12499505E+03</rscale>
<asrwt>0</asrwt>
<pdfrwt beam="2">  1        4 0.80666754E-02 0.12499505E+03</pdfrwt>
<pdfrwt beam="1">  1       -4 0.11460520E-01 0.12499505E+03</pdfrwt>
<totfact> 0.10411901E+04</totfact>
</mgrwt>
</event>
<event>
 5    1  0.1685506E-006  0.1250013E+03  0.7818608E-02  0.1235067E+00
         -4   -1    0    0    0  501 -0.00000000000E+00  0.00000000000E+00  0.50846906884E+02  0.50866731168E+02  0.14200000000E+01 0.  1.
          4   -1    0    0  501    0  0.00000000000E+00 -0.00000000000E+00 -0.76783922604E+02  0.76797051835E+02  0.14200000000E+01 0.  1.
         25    2    1    2    0    0  0.00000000000E+00  0.00000000000E+00 -0.25937015720E+02  0.12766378300E+03  0.12500125082E+03 0.  0.
        -13    1    3    3    0    0 -0.28069286776E+01  0.49050692435E+02  0.26486835315E+02  0.55815883890E+02  0.10570000000E+00 0. -1.
         13    1    3    3    0    0  0.28069286776E+01 -0.49050692435E+02 -0.52423851035E+02  0.71847899112E+02  0.10570000000E+00 0. -1.
<mgrwt>
<rscale>  0 0.12500125E+03</rscale>
<asrwt>0</asrwt>
<pdfrwt beam="2">  1        4 0.11815446E-01 0.12500125E+03</pdfrwt>
<pdfrwt beam="1">  1       -4 0.78251359E-02 0.12500125E+03</pdfrwt>
<totfact> 0.10394462E+04</totfact>
</mgrwt>
</event>
<event>
 5    1  0.1685506E-006  0.1249999E+03  0.7818608E-02  0.1235069E+00
         -4   -1    0    0    0  501 -0.00000000000E+00  0.00000000000E+00  0.33606769317E+02  0.33636755847E+02  0.14200000000E+01 0.  1.
          4   -1    0    0  501    0  0.00000000000E+00 -0.00000000000E+00 -0.11614764125E+03  0.11615632126E+03  0.14200000000E+01 0. -1.
         25    2    1    2    0    0  0.00000000000E+00  0.00000000000E+00 -0.82540871933E+02  0.14979307710E+03  0.12499988163E+03 0.  0.
        -13    1    3    3    0    0  0.24434235085E+02 -0.56972744375E+02 -0.50805080839E+02  0.80150438909E+02  0.10570000000E+00 0.  1.
         13    1    3    3    0    0 -0.24434235085E+02  0.56972744375E+02 -0.31735791094E+02  0.69642638194E+02  0.10570000000E+00 0. -1.
<mgrwt>
<rscale>  0 0.12499988E+03</rscale>
<asrwt>0</asrwt>
<pdfrwt beam="2">  1        4 0.17871842E-01 0.12499988E+03</pdfrwt>
<pdfrwt beam="1">  1       -4 0.51732466E-02 0.12499988E+03</pdfrwt>
<totfact> 0.99345226E+03</totfact>
</mgrwt>
</event>
<event>
 5    1  0.1685506E-006  0.1250021E+03  0.7818608E-02  0.1235066E+00
         -4   -1    0    0    0  501 -0.00000000000E+00  0.00000000000E+00  0.21073321642E+03  0.21073800061E+03  0.14200000000E+01 0.  1.
          4   -1    0    0  501    0  0.00000000000E+00 -0.00000000000E+00 -0.18504906650E+02  0.18559309527E+02  0.14200000000E+01 0. -1.
         25    2    1    2    0    0  0.00000000000E+00  0.00000000000E+00  0.19222830977E+03  0.22929731014E+03  0.12500213342E+03 0.  0.
        -13    1    3    3    0    0 -0.40876507439E+02 -0.30445997810E+02  0.16246897379E+03  0.17027632325E+03  0.10570000000E+00 0.  1.
         13    1    3    3    0    0  0.40876507439E+02  0.30445997810E+02  0.29759335981E+02  0.59020986890E+02  0.10570000000E+00 0. -1.
<mgrwt>
<rscale>  0 0.12500213E+03</rscale>
<asrwt>0</asrwt>
<pdfrwt beam="2">  1        4 0.28514617E-02 0.12500213E+03</pdfrwt>
<pdfrwt beam="1">  1       -4 0.32425047E-01 0.12500213E+03</pdfrwt>
<totfact> 0.85413547E+03</totfact>
</mgrwt>
</event>
<event>
 5    1  0.1685506E-006  0.1250002E+03  0.7818608E-02  0.1235069E+00
          4   -1    0    0  501    0  0.00000000000E+00  0.00000000000E+00  0.14711339739E+03  0.14712025045E+03  0.14200000000E+01 0.  1.
         -4   -1    0    0    0  501 -0.00000000000E+00 -0.00000000000E+00 -0.26526268030E+02  0.26564248448E+02  0.14200000000E+01 0.  1.
         25    2    1    2    0    0  0.00000000000E+00  0.00000000000E+00  0.12058712937E+03  0.17368449890E+03  0.12500019756E+03 0.  0.
        -13    1    3    3    0    0 -0.15895071353E+02  0.19307996325E+02  0.13988020709E+03  0.14209833047E+03  0.10570000000E+00 0.  1.
         13    1    3    3    0    0  0.15895071353E+02 -0.19307996325E+02 -0.19293077723E+02  0.31586168428E+02  0.10570000000E+00 0.  1.
<mgrwt>
<rscale>  0 0.12500020E+03</rscale>
<asrwt>0</asrwt>
<pdfrwt beam="1">  1        4 0.22636279E-01 0.12500020E+03</pdfrwt>
<pdfrwt beam="2">  1       -4 0.40844130E-02 0.12500020E+03</pdfrwt>
<totfact> 0.94765905E+03</totfact>
</mgrwt>
</event>
<event>
 5    1  0.1685506E-006  0.1250049E+03  0.7818608E-02  0.1235062E+00
         -4   -1    0    0    0  501 -0.00000000000E+00  0.00000000000E+00  0.40538221459E+03  0.40538470162E+03  0.14200000000E+01 0.  1.
          4   -1    0    0  501    0  0.00000000000E+00 -0.00000000000E+00 -0.95818791376E+01  0.96865271283E+01  0.14200000000E+01 0. -1.
         25    2    1    2    0    0  0.00000000000E+00  0.00000000000E+00  0.39580033546E+03  0.41507122875E+03  0.12500487746E+03 0.  0.
        -13    1    3    3    0    0 -0.39370657860E+02 -0.47724319481E+02  0.22739126777E+03  0.23565750402E+03  0.10570000000E+00 0.  1.
         13    1    3    3    0    0  0.39370657860E+02  0.47724319481E+02  0.16840906769E+03  0.17941372473E+03  0.10570000000E+00 0. -1.
<mgrwt>
<rscale>  0 0.12500488E+03</rscale>
<asrwt>0</asrwt>
<pdfrwt beam="2">  1        4 0.14823763E-02 0.12500488E+03</pdfrwt>
<pdfrwt beam="1">  1       -4 0.62374741E-01 0.12500488E+03</pdfrwt>
<totfact> 0.63106111E+03</totfact>
</mgrwt>
</event>
<event>
 5    1  0.1685506E-006  0.1250012E+03  0.7818608E-02  0.1235067E+00
         -4   -1    0    0    0  501 -0.00000000000E+00  0.00000000000E+00  0.14287835210E+02  0.14358225342E+02  0.14200000000E+01 0. -1.
          4   -1    0    0  501    0  0.00000000000E+00 -0.00000000000E+00 -0.27265816383E+03  0.27266186148E+03  0.14200000000E+01 0. -1.
         25    2    1    2    0    0  0.00000000000E+00  0.00000000000E+00 -0.25837032862E+03  0.28702008682E+03  0.12500121410E+03 0.  0.
        -13    1    3    3    0    0  0.31535608575E+02 -0.46518101621E+02 -0.19197883277E+03  0.20003577628E+03  0.10570000000E+00 0.  1.
         13    1    3    3    0    0 -0.31535608575E+02  0.46518101621E+02 -0.66391495852E+02  0.86984310542E+02  0.10570000000E+00 0.  1.
<mgrwt>
<rscale>  0 0.12500121E+03</rscale>
<asrwt>0</asrwt>
<pdfrwt beam="2">  1        4 0.41953105E-01 0.12500121E+03</pdfrwt>
<pdfrwt beam="1">  1       -4 0.22038278E-02 0.12500121E+03</pdfrwt>
<totfact> 0.77254324E+03</totfact>
</mgrwt>
</event>
<event>
 5    1  0.1685506E-006  0.1249994E+03  0.7818608E-02  0.1235070E+00
         -4   -1    0    0    0  501 -0.00000000000E+00  0.00000000000E+00  0.27938481433E+02  0.27974544586E+02  0.14200000000E+01 0.  1.
          4   -1    0    0  501    0  0.00000000000E+00 -0.00000000000E+00 -0.13968485903E+03  0.13969207652E+03  0.14200000000E+01 0. -1.
         25    2    1    2    0    0  0.00000000000E+00  0.00000000000E+00 -0.11174637759E+03  0.16766662110E+03  0.12499937171E+03 0.  0.
        -13    1    3    3    0    0 -0.54422907528E+02  0.26446883527E+02 -0.34881798846E+02  0.69842977996E+02  0.10570000000E+00 0.  1.
         13    1    3    3    0    0  0.54422907528E+02 -0.26446883527E+02 -0.76864578749E+02  0.97823643107E+02  0.10570000000E+00 0. -1.
<mgrwt>
<rscale>  0 0.12499937E+03</rscale>
<asrwt>0</asrwt>
<pdfrwt beam="2">  1        4 0.21493307E-01 0.12499937E+03</pdfrwt>
<pdfrwt beam="1">  1       -4 0.43015573E-02 0.12499937E+03</pdfrwt>
<totfact> 0.95886100E+03</totfact>
</mgrwt>
</event>
<event>
 5    1  0.1685506E-006  0.1249974E+03  0.7818608E-02  0.1235073E+00
         -4   -1    0    0    0  501 -0.00000000000E+00  0.00000000000E+00  0.14809661283E+03  0.14810342040E+03  0.14200000000E+01 0.  1.
          4   -1    0    0  501    0  0.00000000000E+00 -0.00000000000E+00 -0.26348748970E+02  0.26386984904E+02  0.14200000000E+01 0.  1.
         25    2    1    2    0    0  0.00000000000E+00  0.00000000000E+00  0.12174786386E+03  0.17449040530E+03  0.12499743672E+03 0.  0.
        -13    1    3    3    0    0  0.11584185922E+01  0.61428852053E+02  0.44882340532E+02  0.76087327870E+02  0.10570000000E+00 0. -1.
         13    1    3    3    0    0 -0.11584185922E+01 -0.61428852053E+02  0.76865523332E+02  0.98403077430E+02  0.10570000000E+00 0. -1.
<mgrwt>
<rscale>  0 0.12499744E+03</rscale>
<asrwt>0</asrwt>
<pdfrwt beam="2">  1        4 0.40571186E-02 0.12499744E+03</pdfrwt>
<pdfrwt beam="1">  1       -4 0.22787559E-01 0.12499744E+03</pdfrwt>
<totfact> 0.94623695E+03</totfact>
</mgrwt>
</event>
<event>
 5    1  0.1685506E-006  0.1249981E+03  0.7818608E-02  0.1235072E+00
         -4   -1    0    0    0  501 -0.00000000000E+00  0.00000000000E+00  0.62905196242E+02  0.62921221493E+02  0.14200000000E+01 0.  1.
          4   -1    0    0  501    0  0.00000000000E+00 -0.00000000000E+00 -0.62063501715E+02  0.62079744242E+02  0.14200000000E+01 0. -1.
         25    2    1    2    0    0  0.00000000000E+00  0.00000000000E+00  0.84169452685E+00  0.12500096574E+03  0.12499813193E+03 0.  0.
        -13    1    3    3    0    0  0.29983923641E+02 -0.46392984743E+02 -0.28816391337E+02  0.62303613799E+02  0.10570000000E+00 0.  1.
         13    1    3    3    0    0 -0.29983923641E+02  0.46392984743E+02  0.29658085864E+02  0.62697351936E+02  0.10570000000E+00 0. -1.
<mgrwt>
<rscale>  0 0.12499813E+03</rscale>
<asrwt>0</asrwt>
<pdfrwt beam="2">  1        4 0.95507132E-02 0.12499813E+03</pdfrwt>
<pdfrwt beam="1">  1       -4 0.96802046E-02 0.12499813E+03</pdfrwt>
<totfact> 0.10453283E+04</totfact>
</mgrwt>
</event>
<event>
 5    1  0.1685506E-006  0.1249997E+03  0.7818608E-02  0.1235070E+00
          4   -1    0    0  501    0  0.00000000000E+00  0.00000000000E+00  0.19020528929E+02  0.19073461163E+02  0.14200000000E+01 0.  1.
         -4   -1    0    0    0  501 -0.00000000000E+00 -0.00000000000E+00 -0.20502838030E+03  0.20503329761E+03  0.14200000000E+01 0.  1.
         25    2    1    2    0    0  0.00000000000E+00  0.00000000000E+00 -0.18600785137E+03  0.22410675877E+03  0.12499967422E+03 0.  0.
        -13    1    3    3    0    0 -0.38458978210E+02  0.48967441082E+02 -0.83296762713E+02  0.10399646697E+03  0.10570000000E+00 0.  1.
         13    1    3    3    0    0  0.38458978210E+02 -0.48967441082E+02 -0.10271108866E+03  0.12011029180E+03  0.10570000000E+00 0.  1.
<mgrwt>
<rscale>  0 0.12499967E+03</rscale>
<asrwt>0</asrwt>
<pdfrwt beam="1">  1        4 0.29306853E-02 0.12499967E+03</pdfrwt>
<pdfrwt beam="2">  1       -4 0.31547276E-01 0.12499967E+03</pdfrwt>
<totfact> 0.86223279E+03</totfact>
</mgrwt>
</event>
<event>
 5    1  0.1685506E-006  0.1249995E+03  0.7818608E-02  0.1235070E+00
         -4   -1    0    0    0  501 -0.00000000000E+00  0.00000000000E+00  0.11542371161E+03  0.11543244606E+03  0.14200000000E+01 0.  1.
          4   -1    0    0  501    0  0.00000000000E+00 -0.00000000000E+00 -0.33817523116E+02  0.33847322932E+02  0.14200000000E+01 0.  1.
         25    2    1    2    0    0  0.00000000000E+00  0.00000000000E+00  0.81606188496E+02  0.14927976899E+03  0.12499951771E+03 0.  0.
        -13    1    3    3    0    0 -0.14321759893E+02  0.46963030168E+02 -0.53813734313E+01  0.49392401860E+02  0.10570000000E+00 0.  1.
         13    1    3    3    0    0  0.14321759893E+02 -0.46963030168E+02  0.86987561928E+02  0.99887367127E+02  0.10570000000E+00 0.  1.
<mgrwt>
<rscale>  0 0.12499952E+03</rscale>
<asrwt>0</asrwt>
<pdfrwt beam="2">  1        4 0.52056601E-02 0.12499952E+03</pdfrwt>
<pdfrwt beam="1">  1       -4 0.17760458E-01 0.12499952E+03</pdfrwt>
<totfact> 0.99448539E+03</totfact>
</mgrwt>
</event>
<event>
 5    1  0.1685506E-006  0.1250005E+03  0.7818608E-02  0.1235069E+00
         -4   -1    0    0    0  501 -0.00000000000E+00  0.00000000000E+00  0.83776597526E+01  0.84971514598E+01  0.14200000000E+01 0.  1.
          4   -1    0    0  501    0  0.00000000000E+00 -0.00000000000E+00 -0.46285089042E+03  0.46285306865E+03  0.14200000000E+01 0. -1.
         25    2    1    2    0    0  0.00000000000E+00  0.00000000000E+00 -0.45447323067E+03  0.47135022011E+03  0.12500045043E+03 0.  0.
        -13    1    3    3    0    0 -0.43462244564E+02  0.44694981302E+02 -0.24395568092E+03  0.25179553904E+03  0.10570000000E+00 0.  1.
         13    1    3    3    0    0  0.43462244564E+02 -0.44694981302E+02 -0.21051754975E+03  0.21955468107E+03  0.10570000000E+00 0. -1.
<mgrwt>
<rscale>  0 0.12500045E+03</rscale>
<asrwt>0</asrwt>
<pdfrwt beam="2">  1        4 0.71217169E-01 0.12500045E+03</pdfrwt>
<pdfrwt beam="1">  1       -4 0.12982303E-02 0.12500045E+03</pdfrwt>
<totfact> 0.58157269E+03</totfact>
</mgrwt>
</event>
<event>
 5    1  0.1685506E-006  0.1250009E+03  0.7818608E-02  0.1235068E+00
         -4   -1    0    0    0  501 -0.00000000000E+00  0.00000000000E+00  0.30809245951E+02  0.30841952534E+02  0.14200000000E+01 0. -1.
          4   -1    0    0  501    0  0.00000000000E+00 -0.00000000000E+00 -0.12668620335E+03  0.12669416135E+03  0.14200000000E+01 0.  1.
         25    2    1    2    0    0  0.00000000000E+00  0.00000000000E+00 -0.95876957398E+02  0.15753611388E+03  0.12500094486E+03 0.  0.
        -13    1    3    3    0    0 -0.19827861280E+02 -0.41013983230E+02  0.59892130849E+01  0.45947499923E+02  0.10570000000E+00 0. -1.
         13    1    3    3    0    0  0.19827861280E+02  0.41013983230E+02 -0.10186617048E+03  0.11158861396E+03  0.10570000000E+00 0.  1.
<mgrwt>
<rscale>  0 0.12500094E+03</rscale>
<asrwt>0</asrwt>
<pdfrwt beam="2">  1        4 0.19493313E-01 0.12500094E+03</pdfrwt>
<pdfrwt beam="1">  1       -4 0.47430121E-02 0.12500094E+03</pdfrwt>
<totfact> 0.97817838E+03</totfact>
</mgrwt>
</event>
<event>
 5    1  0.1685506E-006  0.1249986E+03  0.7818608E-02  0.1235071E+00
          4   -1    0    0  501    0  0.00000000000E+00  0.00000000000E+00  0.18223641572E+03  0.18224194801E+03  0.14200000000E+01 0. -1.
         -4   -1    0    0    0  501 -0.00000000000E+00 -0.00000000000E+00 -0.21405199729E+02  0.21452248727E+02  0.14200000000E+01 0.  1.
         25    2    1    2    0    0  0.00000000000E+00  0.00000000000E+00  0.16083121599E+03  0.20369419674E+03  0.12499858298E+03 0.  0.
        -13    1    3    3    0    0 -0.14519416248E+02  0.41937289824E+02  0.15212789789E+03  0.15846910808E+03  0.10570000000E+00 0. -1.
         13    1    3    3    0    0  0.14519416248E+02 -0.41937289824E+02  0.87033181022E+01  0.45225088661E+02  0.10570000000E+00 0.  1.
<mgrwt>
<rscale>  0 0.12499858E+03</rscale>
<asrwt>0</asrwt>
<pdfrwt beam="1">  1        4 0.28040415E-01 0.12499858E+03</pdfrwt>
<pdfrwt beam="2">  1       -4 0.32971525E-02 0.12499858E+03</pdfrwt>
<totfact> 0.89519007E+03</totfact>
</mgrwt>
</event>
<event>
 5    1  0.1685506E-006  0.1249986E+03  0.7818608E-02  0.1235071E+00
          4   -1    0    0  501    0  0.00000000000E+00  0.00000000000E+00  0.21937144429E+02  0.21983054968E+02  0.14200000000E+01 0. -1.
         -4   -1    0    0    0  501 -0.00000000000E+00 -0.00000000000E+00 -0.17782669642E+03  0.17783236590E+03  0.14200000000E+01 0.  1.
         25    2    1    2    0    0  0.00000000000E+00  0.00000000000E+00 -0.15588955199E+03  0.19981542087E+03  0.12499859997E+03 0.  0.
        -13    1    3    3    0    0  0.31615627444E+02  0.37363688556E+02 -0.14007352164E+03  0.14837855558E+03  0.10570000000E+00 0.  1.
         13    1    3    3    0    0 -0.31615627444E+02 -0.37363688556E+02 -0.15816030358E+02  0.51436865282E+02  0.10570000000E+00 0. -1.
<mgrwt>
<rscale>  0 0.12499860E+03</rscale>
<asrwt>0</asrwt>
<pdfrwt beam="1">  1        4 0.33789131E-02 0.12499860E+03</pdfrwt>
<pdfrwt beam="2">  1       -4 0.27361920E-01 0.12499860E+03</pdfrwt>
<totfact> 0.90169472E+03</totfact>
</mgrwt>
</event>
<event>
 5    1  0.1685506E-006  0.1250060E+03  0.7818608E-02  0.1235060E+00
         -4   -1    0    0    0  501 -0.00000000000E+00  0.00000000000E+00  0.17511290370E+03  0.17511866103E+03  0.14200000000E+01 0. -1.
          4   -1    0    0  501    0  0.00000000000E+00 -0.00000000000E+00 -0.22280439239E+02  0.22325643835E+02  0.14200000000E+01 0.  1.
         25    2    1    2    0    0  0.00000000000E+00  0.00000000000E+00  0.15283246446E+03  0.19744430487E+03  0.12500596518E+03 0.  0.
        -13    1    3    3    0    0  0.69503072711E+01  0.61957211162E+02  0.83410466993E+02  0.10413606466E+03  0.10570000000E+00 0. -1.
         13    1    3    3    0    0 -0.69503072711E+01 -0.61957211162E+02  0.69421997466E+02  0.93308240208E+02  0.10570000000E+00 0.  1.
<mgrwt>
<rscale>  0 0.12500597E+03</rscale>
<asrwt>0</asrwt>
<pdfrwt beam="2">  1        4 0.34316802E-02 0.12500597E+03</pdfrwt>
<pdfrwt beam="1">  1       -4 0.26944366E-01 0.12500597E+03</pdfrwt>
<totfact> 0.90555829E+03</totfact>
</mgrwt>
</event>
<event>
 5    1  0.1685506E-006  0.1249996E+03  0.7818608E-02  0.1235070E+00
          4   -1    0    0  501    0  0.00000000000E+00  0.00000000000E+00  0.51178878723E+03  0.51179075718E+03  0.14200000000E+01 0. -1.
         -4   -1    0    0    0  501 -0.00000000000E+00 -0.00000000000E+00 -0.75644418117E+01  0.76965693606E+01  0.14200000000E+01 0. -1.
         25    2    1    2    0    0  0.00000000000E+00  0.00000000000E+00  0.50422434541E+03  0.51948732654E+03  0.12499956769E+03 0.  0.
        -13    1    3    3    0    0  0.27430191648E+02 -0.54510942778E+02  0.30823292859E+03  0.31421554343E+03  0.10570000000E+00 0. -1.
         13    1    3    3    0    0 -0.27430191648E+02  0.54510942778E+02  0.19599141683E+03  0.20527178311E+03  0.10570000000E+00 0. -1.
<mgrwt>
<rscale>  0 0.12499957E+03</rscale>
<asrwt>0</asrwt>
<pdfrwt beam="1">  1        4 0.78747060E-01 0.12499957E+03</pdfrwt>
<pdfrwt beam="2">  1       -4 0.11740753E-02 0.12499957E+03</pdfrwt>
<totfact> 0.54383979E+03</totfact>
</mgrwt>
</event>
<event>
 5    1  0.1685506E-006  0.1250013E+03  0.7818608E-02  0.1235067E+00
         -4   -1    0    0    0  501 -0.00000000000E+00  0.00000000000E+00  0.97975644565E+02  0.97985934338E+02  0.14200000000E+01 0.  1.
          4   -1    0    0  501    0  0.00000000000E+00 -0.00000000000E+00 -0.39845404026E+02  0.39870698790E+02  0.14200000000E+01 0.  1.
         25    2    1    2    0    0  0.00000000000E+00  0.00000000000E+00  0.58130240539E+02  0.13785663313E+03  0.12500130572E+03 0.  0.
        -13    1    3    3    0    0  0.10947103025E+02  0.44985812528E+02  0.75368156541E+02  0.88452996480E+02  0.10570000000E+00 0.  1.
         13    1    3    3    0    0 -0.10947103025E+02 -0.44985812528E+02 -0.17237916002E+02  0.49403636648E+02  0.10570000000E+00 0.  1.
<mgrwt>
<rscale>  0 0.12500131E+03</rscale>
<asrwt>0</asrwt>
<pdfrwt beam="2">  1        4 0.61327995E-02 0.12500131E+03</pdfrwt>
<pdfrwt beam="1">  1       -4 0.15075913E-01 0.12500131E+03</pdfrwt>
<totfact> 0.10177903E+04</totfact>
</mgrwt>
</event>
<event>
 5    1  0.1685506E-006  0.1250012E+03  0.7818608E-02  0.1235067E+00
          4   -1    0    0  501    0  0.00000000000E+00  0.00000000000E+00  0.11954349115E+02  0.12038391204E+02  0.14200000000E+01 0. -1.
         -4   -1    0    0    0  501 -0.00000000000E+00 -0.00000000000E+00 -0.32554024154E+03  0.32554333853E+03  0.14200000000E+01 0. -1.
         25    2    1    2    0    0  0.00000000000E+00  0.00000000000E+00 -0.31358589243E+03  0.33758172974E+03  0.12500124929E+03 0.  0.
        -13    1    3    3    0    0  0.36872665556E+02  0.50375027511E+02 -0.16493077624E+03  0.17635024521E+03  0.10570000000E+00 0.  1.
         13    1    3    3    0    0 -0.36872665556E+02 -0.50375027511E+02 -0.14865511619E+03  0.16123148453E+03  0.10570000000E+00 0.  1.
<mgrwt>
<rscale>  0 0.12500125E+03</rscale>
<asrwt>0</asrwt>
<pdfrwt beam="1">  1        4 0.18458339E-02 0.12500125E+03</pdfrwt>
<pdfrwt beam="2">  1       -4 0.50089810E-01 0.12500125E+03</pdfrwt>
<totfact> 0.71110712E+03</totfact>
</mgrwt>
</event>
<event>
 5    1  0.1685506E-006  0.1250000E+03  0.7818608E-02  0.1235069E+00
         -4   -1    0    0    0  501 -0.00000000000E+00  0.00000000000E+00  0.50205686115E+02  0.50225763492E+02  0.14200000000E+01 0.  1.
          4   -1    0    0  501    0  0.00000000000E+00 -0.00000000000E+00 -0.77762759119E+02  0.77775723114E+02  0.14200000000E+01 0. -1.
         25    2    1    2    0    0  0.00000000000E+00  0.00000000000E+00 -0.27557073004E+02  0.12800148661E+03  0.12499995320E+03 0.  0.
        -13    1    3    3    0    0  0.41815238086E+02 -0.44174634047E+02  0.93033937919E+00  0.60834111592E+02  0.10570000000E+00 0.  1.
         13    1    3    3    0    0 -0.41815238086E+02  0.44174634047E+02 -0.28487412383E+02  0.67167375013E+02  0.10570000000E+00 0. -1.
<mgrwt>
<rscale>  0 0.12499995E+03</rscale>
<asrwt>0</asrwt>
<pdfrwt beam="2">  1        4 0.11966043E-01 0.12499995E+03</pdfrwt>
<pdfrwt beam="1">  1       -4 0.77264933E-02 0.12499995E+03</pdfrwt>
<totfact> 0.10387466E+04</totfact>
</mgrwt>
</event>
<event>
 5    1  0.1685506E-006  0.1249999E+03  0.7818608E-02  0.1235069E+00
         -4   -1    0    0    0  501 -0.00000000000E+00  0.00000000000E+00  0.17840508720E+02  0.17896931340E+02  0.14200000000E+01 0. -1.
          4   -1    0    0  501    0  0.00000000000E+00 -0.00000000000E+00 -0.21854923478E+03  0.21855384788E+03  0.14200000000E+01 0.  1.
         25    2    1    2    0    0  0.00000000000E+00  0.00000000000E+00 -0.20070872606E+03  0.23645077922E+03  0.12499991311E+03 0.  0.
        -13    1    3    3    0    0 -0.54193198957E+02 -0.23138543668E+02 -0.13975879490E+03  0.15167342200E+03  0.10570000000E+00 0. -1.
         13    1    3    3    0    0  0.54193198957E+02  0.23138543668E+02 -0.60949931158E+02  0.84777357218E+02  0.10570000000E+00 0.  1.
<mgrwt>
<rscale>  0 0.12499991E+03</rscale>
<asrwt>0</asrwt>
<pdfrwt beam="2">  1        4 0.33627652E-01 0.12499991E+03</pdfrwt>
<pdfrwt beam="1">  1       -4 0.27493889E-02 0.12499991E+03</pdfrwt>
<totfact> 0.84328981E+03</totfact>
</mgrwt>
</event>
<event>
 5    1  0.1685506E-006  0.1249857E+03  0.7818608E-02  0.1235092E+00
         -4   -1    0    0    0  501 -0.00000000000E+00  0.00000000000E+00  0.24337446243E+02  0.24378836921E+02  0.14200000000E+01 0.  1.
          4   -1    0    0  501    0  0.00000000000E+00 -0.00000000000E+00 -0.16028600395E+03  0.16029229383E+03  0.14200000000E+01 0. -1.
         25    2    1    2    0    0  0.00000000000E+00  0.00000000000E+00 -0.13594855770E+03  0.18467113075E+03  0.12498566394E+03 0.  0.
        -13    1    3    3    0    0 -0.16953149771E+02 -0.60085205833E+02 -0.63873842471E+02  0.89316964635E+02  0.10570000000E+00 0.  1.
         13    1    3    3    0    0  0.16953149771E+02  0.60085205833E+02 -0.72074715233E+02  0.95354166115E+02  0.10570000000E+00 0. -1.
<mgrwt>
<rscale>  0 0.12498566E+03</rscale>
<asrwt>0</asrwt>
<pdfrwt beam="2">  1        4 0.24663052E-01 0.12498566E+03</pdfrwt>
<pdfrwt beam="1">  1       -4 0.37478903E-02 0.12498566E+03</pdfrwt>
<totfact> 0.92812695E+03</totfact>
</mgrwt>
</event>
<event>
 5    1  0.1685506E-006  0.1249999E+03  0.7818608E-02  0.1235069E+00
         -4   -1    0    0    0  501 -0.00000000000E+00  0.00000000000E+00  0.54736414173E+02  0.54754830257E+02  0.14200000000E+01 0.  1.
          4   -1    0    0  501    0  0.00000000000E+00 -0.00000000000E+00 -0.71327144864E+02  0.71341278335E+02  0.14200000000E+01 0. -1.
         25    2    1    2    0    0  0.00000000000E+00  0.00000000000E+00 -0.16590730691E+02  0.12609610859E+03  0.12499990503E+03 0.  0.
        -13    1    3    3    0    0 -0.59170699420E+01 -0.61795080725E+02 -0.15610800633E+02  0.64010561530E+02  0.10570000000E+00 0.  1.
         13    1    3    3    0    0  0.59170699420E+01  0.61795080725E+02 -0.97993005816E+00  0.62085547061E+02  0.10570000000E+00 0. -1.
<mgrwt>
<rscale>  0 0.12499991E+03</rscale>
<asrwt>0</asrwt>
<pdfrwt beam="2">  1        4 0.10975911E-01 0.12499991E+03</pdfrwt>
<pdfrwt beam="1">  1       -4 0.84234906E-02 0.12499991E+03</pdfrwt>
<totfact> 0.10428874E+04</totfact>
</mgrwt>
</event>
<event>
 5    1  0.1685506E-006  0.1249974E+03  0.7818608E-02  0.1235073E+00
          4   -1    0    0  501    0  0.00000000000E+00  0.00000000000E+00  0.88252321784E+02  0.88263745107E+02  0.14200000000E+01 0. -1.
         -4   -1    0    0    0  501 -0.00000000000E+00 -0.00000000000E+00 -0.44234768450E+02  0.44257554608E+02  0.14200000000E+01 0.  1.
         25    2    1    2    0    0  0.00000000000E+00  0.00000000000E+00  0.44017553334E+02  0.13252129971E+03  0.12499739948E+03 0.  0.
        -13    1    3    3    0    0  0.49037325461E+02  0.30575348045E+02 -0.32265899378E+01  0.57878607892E+02  0.10570000000E+00 0.  1.
         13    1    3    3    0    0 -0.49037325461E+02 -0.30575348045E+02  0.47244143271E+02  0.74642691822E+02  0.10570000000E+00 0. -1.
<mgrwt>
<rscale>  0 0.12499740E+03</rscale>
<asrwt>0</asrwt>
<pdfrwt beam="1">  1        4 0.13579912E-01 0.12499740E+03</pdfrwt>
<pdfrwt beam="2">  1       -4 0.68079806E-02 0.12499740E+03</pdfrwt>
<totfact> 0.10291188E+04</totfact>
</mgrwt>
</event>
<event>
 5    1  0.1685506E-006  0.1250014E+03  0.7818608E-02  0.1235067E+00
          4   -1    0    0  501    0  0.00000000000E+00  0.00000000000E+00  0.39694883669E+03  0.39695137656E+03  0.14200000000E+01 0. -1.
         -4   -1    0    0    0  501 -0.00000000000E+00 -0.00000000000E+00 -0.97871040176E+01  0.98895806307E+01  0.14200000000E+01 0.  1.
         25    2    1    2    0    0  0.00000000000E+00  0.00000000000E+00  0.38716173267E+03  0.40684095719E+03  0.12500142879E+03 0.  0.
        -13    1    3    3    0    0 -0.53061914273E+02 -0.12340357473E+02  0.93874819542E+02  0.10853729352E+03  0.10570000000E+00 0.  1.
         13    1    3    3    0    0  0.53061914273E+02  0.12340357473E+02  0.29328691313E+03  0.29830366366E+03  0.10570000000E+00 0. -1.
<mgrwt>
<rscale>  0 0.12500143E+03</rscale>
<asrwt>0</asrwt>
<pdfrwt beam="1">  1        4 0.61077127E-01 0.12500143E+03</pdfrwt>
<pdfrwt beam="2">  1       -4 0.15137866E-02 0.12500143E+03</pdfrwt>
<totfact> 0.63890826E+03</totfact>
</mgrwt>
</event>
<event>
 5    1  0.1685506E-006  0.1249995E+03  0.7818608E-02  0.1235070E+00
         -4   -1    0    0    0  501 -0.00000000000E+00  0.00000000000E+00  0.13657450717E+03  0.13658188903E+03  0.14200000000E+01 0.  1.
          4   -1    0    0  501    0  0.00000000000E+00 -0.00000000000E+00 -0.28575574417E+02  0.28610834543E+02  0.14200000000E+01 0. -1.
         25    2    1    2    0    0  0.00000000000E+00  0.00000000000E+00  0.10799893276E+03  0.16519272357E+03  0.12499946577E+03 0.  0.
        -13    1    3    3    0    0 -0.29803983336E+02  0.14374357160E+02  0.12407022292E+03  0.12840689605E+03  0.10570000000E+00 0.  1.
         13    1    3    3    0    0  0.29803983336E+02 -0.14374357160E+02 -0.16071290158E+02  0.36785827519E+02  0.10570000000E+00 0. -1.
<mgrwt>
<rscale>  0 0.12499947E+03</rscale>
<asrwt>0</asrwt>
<pdfrwt beam="2">  1        4 0.43995224E-02 0.12499947E+03</pdfrwt>
<pdfrwt beam="1">  1       -4 0.21014743E-01 0.12499947E+03</pdfrwt>
<totfact> 0.96352062E+03</totfact>
</mgrwt>
</event>
<event>
 5    1  0.1685506E-006  0.1249904E+03  0.7818608E-02  0.1235084E+00
         -4   -1    0    0    0  501 -0.00000000000E+00  0.00000000000E+00  0.41008406361E+02  0.41032984199E+02  0.14200000000E+01 0. -1.
          4   -1    0    0  501    0  0.00000000000E+00 -0.00000000000E+00 -0.95181887838E+02  0.95192479600E+02  0.14200000000E+01 0.  1.
         25    2    1    2    0    0  0.00000000000E+00  0.00000000000E+00 -0.54173481477E+02  0.13622546380E+03  0.12499044320E+03 0.  0.
        -13    1    3    3    0    0 -0.24346271946E+02  0.97930623424E+01  0.34730096729E+02  0.43529711911E+02  0.10570000000E+00 0. -1.
         13    1    3    3    0    0  0.24346271946E+02 -0.97930623424E+01 -0.88903578206E+02  0.92695751888E+02  0.10570000000E+00 0.  1.
<mgrwt>
<rscale>  0 0.12499044E+03</rscale>
<asrwt>0</asrwt>
<pdfrwt beam="2">  1        4 0.14646073E-01 0.12499044E+03</pdfrwt>
<pdfrwt beam="1">  1       -4 0.63116910E-02 0.12499044E+03</pdfrwt>
<totfact> 0.10214506E+04</totfact>
</mgrwt>
</event>
<event>
 5    1  0.1685506E-006  0.1250001E+03  0.7818608E-02  0.1235069E+00
         -4   -1    0    0    0  501 -0.00000000000E+00  0.00000000000E+00  0.19374570251E+02  0.19426537839E+02  0.14200000000E+01 0.  1.
          4   -1    0    0  501    0  0.00000000000E+00 -0.00000000000E+00 -0.20129309106E+03  0.20129809961E+03  0.14200000000E+01 0. -1.
         25    2    1    2    0    0  0.00000000000E+00  0.00000000000E+00 -0.18191852080E+03  0.22072463745E+03  0.12500006946E+03 0.  0.
        -13    1    3    3    0    0  0.56359646982E+02 -0.60842343797E+01 -0.44481056090E+02  0.72055556617E+02  0.10570000000E+00 0.  1.
         13    1    3    3    0    0 -0.56359646982E+02  0.60842343797E+01 -0.13743746471E+03  0.14866908083E+03  0.10570000000E+00 0. -1.
<mgrwt>
<rscale>  0 0.12500007E+03</rscale>
<asrwt>0</asrwt>
<pdfrwt beam="2">  1        4 0.30972549E-01 0.12500007E+03</pdfrwt>
<pdfrwt beam="1">  1       -4 0.29850860E-02 0.12500007E+03</pdfrwt>
<totfact> 0.86753681E+03</totfact>
</mgrwt>
</event>
<event>
 5    1  0.1685506E-006  0.1249997E+03  0.7818608E-02  0.1235070E+00
         -4   -1    0    0    0  501 -0.00000000000E+00  0.00000000000E+00  0.15199388182E+03  0.15200051484E+03  0.14200000000E+01 0.  1.
          4   -1    0    0  501    0  0.00000000000E+00 -0.00000000000E+00 -0.25673093707E+02  0.25712334403E+02  0.14200000000E+01 0. -1.
         25    2    1    2    0    0  0.00000000000E+00  0.00000000000E+00  0.12632078811E+03  0.17771284924E+03  0.12499966110E+03 0.  0.
        -13    1    3    3    0    0 -0.58134334353E+02 -0.15655658557E+02  0.87014461295E+02  0.10581223050E+03  0.10570000000E+00 0.  1.
         13    1    3    3    0    0  0.58134334353E+02  0.15655658557E+02  0.39306326818E+02  0.71900618745E+02  0.10570000000E+00 0. -1.
<mgrwt>
<rscale>  0 0.12499966E+03</rscale>
<asrwt>0</asrwt>
<pdfrwt beam="2">  1        4 0.39532355E-02 0.12499966E+03</pdfrwt>
<pdfrwt beam="1">  1       -4 0.23387203E-01 0.12499966E+03</pdfrwt>
<totfact> 0.94031040E+03</totfact>
</mgrwt>
</event>
<event>
 5    1  0.1685506E-006  0.1249955E+03  0.7818608E-02  0.1235076E+00
          4   -1    0    0  501    0  0.00000000000E+00  0.00000000000E+00  0.93894005767E+02  0.93904742793E+02  0.14200000000E+01 0.  1.
         -4   -1    0    0    0  501 -0.00000000000E+00 -0.00000000000E+00 -0.41574513772E+02  0.41598757138E+02  0.14200000000E+01 0. -1.
         25    2    1    2    0    0  0.00000000000E+00  0.00000000000E+00  0.52319491995E+02  0.13550349993E+03  0.12499547692E+03 0.  0.
        -13    1    3    3    0    0  0.55454146830E+02  0.28823486553E+02  0.26139106445E+02  0.67743780792E+02  0.10570000000E+00 0. -1.
         13    1    3    3    0    0 -0.55454146830E+02 -0.28823486553E+02  0.26180385550E+02  0.67759719139E+02  0.10570000000E+00 0.  1.
<mgrwt>
<rscale>  0 0.12499548E+03</rscale>
<asrwt>0</asrwt>
<pdfrwt beam="1">  1        4 0.14447922E-01 0.12499548E+03</pdfrwt>
<pdfrwt beam="2">  1       -4 0.63987699E-02 0.12499548E+03</pdfrwt>
<totfact> 0.10228513E+04</totfact>
</mgrwt>
</event>
<event>
 5    1  0.1685506E-006  0.1250007E+03  0.7818608E-02  0.1235068E+00
          4   -1    0    0  501    0  0.00000000000E+00  0.00000000000E+00  0.26352375991E+03  0.26352758572E+03  0.14200000000E+01 0.  1.
         -4   -1    0    0    0  501 -0.00000000000E+00 -0.00000000000E+00 -0.14785347209E+02  0.14853379820E+02  0.14200000000E+01 0.  1.
         25    2    1    2    0    0  0.00000000000E+00  0.00000000000E+00  0.24873841270E+03  0.27838096554E+03  0.12500065609E+03 0.  0.
        -13    1    3    3    0    0  0.38819743522E+02  0.17590356832E+02  0.22617877904E+03  0.23015917188E+03  0.10570000000E+00 0. -1.
         13    1    3    3    0    0 -0.38819743522E+02 -0.17590356832E+02  0.22559633662E+02  0.48221793663E+02  0.10570000000E+00 0. -1.
<mgrwt>
<rscale>  0 0.12500066E+03</rscale>
<asrwt>0</asrwt>
<pdfrwt beam="1">  1        4 0.40547640E-01 0.12500066E+03</pdfrwt>
<pdfrwt beam="2">  1       -4 0.22801966E-02 0.12500066E+03</pdfrwt>
<totfact> 0.78392127E+03</totfact>
</mgrwt>
</event>
<event>
 5    1  0.1685506E-006  0.1250107E+03  0.7818608E-02  0.1235053E+00
         -4   -1    0    0    0  501 -0.00000000000E+00  0.00000000000E+00  0.43685153840E+03  0.43685384627E+03  0.14200000000E+01 0.  1.
          4   -1    0    0  501    0  0.00000000000E+00 -0.00000000000E+00 -0.88846372446E+01  0.89973984555E+01  0.14200000000E+01 0. -1.
         25    2    1    2    0    0  0.00000000000E+00  0.00000000000E+00  0.42796690115E+03  0.44585124472E+03  0.12501065531E+03 0.  0.
        -13    1    3    3    0    0 -0.62190016772E+02  0.52977315648E+01  0.20202598919E+03  0.21144780829E+03  0.10570000000E+00 0.  1.
         13    1    3    3    0    0  0.62190016772E+02 -0.52977315648E+01  0.22594091196E+03  0.23440343644E+03  0.10570000000E+00 0. -1.
<mgrwt>
<rscale>  0 0.12501066E+03</rscale>
<asrwt>0</asrwt>
<pdfrwt beam="2">  1        4 0.13757187E-02 0.12501066E+03</pdfrwt>
<pdfrwt beam="1">  1       -4 0.67216782E-01 0.12501066E+03</pdfrwt>
<totfact> 0.60310733E+03</totfact>
</mgrwt>
</event>
<event>
 5    1  0.1685506E-006  0.1249993E+03  0.7818608E-02  0.1235070E+00
         -4   -1    0    0    0  501 -0.00000000000E+00  0.00000000000E+00  0.15056337195E+03  0.15057006798E+03  0.14200000000E+01 0.  1.
          4   -1    0    0  501    0  0.00000000000E+00 -0.00000000000E+00 -0.25917216147E+02  0.25956087780E+02  0.14200000000E+01 0. -1.
         25    2    1    2    0    0  0.00000000000E+00  0.00000000000E+00  0.12464615580E+03  0.17652615576E+03  0.12499927805E+03 0.  0.
        -13    1    3    3    0    0  0.39400481552E+02 -0.46725521530E+02  0.80764355262E+02  0.10128457218E+03  0.10570000000E+00 0.  1.
         13    1    3    3    0    0 -0.39400481552E+02  0.46725521530E+02  0.43881800540E+02  0.75241583582E+02  0.10570000000E+00 0. -1.
<mgrwt>
<rscale>  0 0.12499928E+03</rscale>
<asrwt>0</asrwt>
<pdfrwt beam="2">  1        4 0.39907692E-02 0.12499928E+03</pdfrwt>
<pdfrwt beam="1">  1       -4 0.23167101E-01 0.12499928E+03</pdfrwt>
<totfact> 0.94247596E+03</totfact>
</mgrwt>
</event>
<event>
 5    1  0.1685506E-006  0.1250003E+03  0.7818608E-02  0.1235069E+00
          4   -1    0    0  501    0  0.00000000000E+00  0.00000000000E+00  0.33571555205E+02  0.33601573161E+02  0.14200000000E+01 0. -1.
         -4   -1    0    0    0  501 -0.00000000000E+00 -0.00000000000E+00 -0.11627019512E+03  0.11627886598E+03  0.14200000000E+01 0.  1.
         25    2    1    2    0    0  0.00000000000E+00  0.00000000000E+00 -0.82698639915E+02  0.14988043914E+03  0.12500032397E+03 0.  0.
        -13    1    3    3    0    0 -0.17137019469E+02  0.59067823099E+02 -0.28020330668E+02  0.67585762297E+02  0.10570000000E+00 0.  1.
         13    1    3    3    0    0  0.17137019469E+02 -0.59067823099E+02 -0.54678309247E+02  0.82294676842E+02  0.10570000000E+00 0. -1.
<mgrwt>
<rscale>  0 0.12500032E+03</rscale>
<asrwt>0</asrwt>
<pdfrwt beam="1">  1        4 0.51678308E-02 0.12500032E+03</pdfrwt>
<pdfrwt beam="2">  1       -4 0.17890698E-01 0.12500032E+03</pdfrwt>
<totfact> 0.99326812E+03</totfact>
</mgrwt>
</event>
<event>
 5    1  0.1685506E-006  0.1249981E+03  0.7818608E-02  0.1235072E+00
          4   -1    0    0  501    0  0.00000000000E+00  0.00000000000E+00  0.12636796221E+03  0.12637594025E+03  0.14200000000E+01 0. -1.
         -4   -1    0    0    0  501 -0.00000000000E+00 -0.00000000000E+00 -0.30885521105E+02  0.30918147000E+02  0.14200000000E+01 0. -1.
         25    2    1    2    0    0  0.00000000000E+00  0.00000000000E+00  0.95482441106E+02  0.15729408725E+03  0.12499813328E+03 0.  0.
        -13    1    3    3    0    0  0.16956558385E+02 -0.55944480330E+02  0.19919756482E+02  0.61758542911E+02  0.10570000000E+00 0.  1.
         13    1    3    3    0    0 -0.16956558385E+02  0.55944480330E+02  0.75562684624E+02  0.95535544337E+02  0.10570000000E+00 0.  1.
<mgrwt>
<rscale>  0 0.12499813E+03</rscale>
<asrwt>0</asrwt>
<pdfrwt beam="1">  1        4 0.19444349E-01 0.12499813E+03</pdfrwt>
<pdfrwt beam="2">  1       -4 0.47547419E-02 0.12499813E+03</pdfrwt>
<totfact> 0.97871122E+03</totfact>
</mgrwt>
</event>
<event>
 5    1  0.1685506E-006  0.1250095E+03  0.7818608E-02  0.1235054E+00
         -4   -1    0    0    0  501 -0.00000000000E+00  0.00000000000E+00  0.16073289596E+03  0.16073916835E+03  0.14200000000E+01 0.  1.
          4   -1    0    0  501    0  0.00000000000E+00 -0.00000000000E+00 -0.24278950691E+02  0.24320440922E+02  0.14200000000E+01 0. -1.
         25    2    1    2    0    0  0.00000000000E+00  0.00000000000E+00  0.13645394527E+03  0.18505960927E+03  0.12500951886E+03 0.  0.
        -13    1    3    3    0    0 -0.25149548032E+02  0.54336160527E+02  0.94787678796E+02  0.11211437611E+03  0.10570000000E+00 0.  1.
         13    1    3    3    0    0  0.25149548032E+02 -0.54336160527E+02  0.41666266470E+02  0.72945233162E+02  0.10570000000E+00 0. -1.
<mgrwt>
<rscale>  0 0.12500952E+03</rscale>
<asrwt>0</asrwt>
<pdfrwt beam="2">  1        4 0.37388971E-02 0.12500952E+03</pdfrwt>
<pdfrwt beam="1">  1       -4 0.24731813E-01 0.12500952E+03</pdfrwt>
<totfact> 0.92694327E+03</totfact>
</mgrwt>
</event>
<event>
 5    1  0.1685506E-006  0.1250018E+03  0.7818608E-02  0.1235067E+00
          4   -1    0    0  501    0  0.00000000000E+00  0.00000000000E+00  0.62289781272E+01  0.63887845878E+01  0.14200000000E+01 0.  1.
         -4   -1    0    0    0  501 -0.00000000000E+00 -0.00000000000E+00 -0.61902354589E+03  0.61902517459E+03  0.14200000000E+01 0.  1.
         25    2    1    2    0    0  0.00000000000E+00  0.00000000000E+00 -0.61279456777E+03  0.62541395917E+03  0.12500175217E+03 0.  0.
        -13    1    3    3    0    0  0.15805481519E+02  0.60467290598E+02 -0.30885784305E+03  0.31511789043E+03  0.10570000000E+00 0. -1.
         13    1    3    3    0    0 -0.15805481519E+02 -0.60467290598E+02 -0.30393672471E+03  0.31029606875E+03  0.10570000000E+00 0. -1.
<mgrwt>
<rscale>  0 0.12500175E+03</rscale>
<asrwt>0</asrwt>
<pdfrwt beam="1">  1        4 0.97072291E-03 0.12500175E+03</pdfrwt>
<pdfrwt beam="2">  1       -4 0.95246762E-01 0.12500175E+03</pdfrwt>
<totfact> 0.47299925E+03</totfact>
</mgrwt>
</event>
<event>
 5    1  0.1685506E-006  0.1250017E+03  0.7818608E-02  0.1235067E+00
          4   -1    0    0  501    0  0.00000000000E+00  0.00000000000E+00  0.15251730740E+02  0.15317692077E+02  0.14200000000E+01 0. -1.
         -4   -1    0    0    0  501 -0.00000000000E+00 -0.00000000000E+00 -0.25550498719E+03  0.25550893307E+03  0.14200000000E+01 0.  1.
         25    2    1    2    0    0  0.00000000000E+00  0.00000000000E+00 -0.24025325645E+03  0.27082662515E+03  0.12500173460E+03 0.  0.
        -13    1    3    3    0    0  0.39105374574E+02 -0.28523980647E+02 -0.34457532158E+02  0.59415321993E+02  0.10570000000E+00 0.  1.
         13    1    3    3    0    0 -0.39105374574E+02  0.28523980647E+02 -0.20579572429E+03  0.21141130316E+03  0.10570000000E+00 0. -1.
<mgrwt>
<rscale>  0 0.12500173E+03</rscale>
<asrwt>0</asrwt>
<pdfrwt beam="1">  1        4 0.23517978E-02 0.12500173E+03</pdfrwt>
<pdfrwt beam="2">  1       -4 0.39313834E-01 0.12500173E+03</pdfrwt>
<totfact> 0.79407241E+03</totfact>
</mgrwt>
</event>
<event>
 5    1  0.1685506E-006  0.1250028E+03  0.7818608E-02  0.1235065E+00
          4   -1    0    0  501    0  0.00000000000E+00  0.00000000000E+00  0.12606564472E+03  0.12607364189E+03  0.14200000000E+01 0. -1.
         -4   -1    0    0    0  501 -0.00000000000E+00 -0.00000000000E+00 -0.30961960183E+02  0.30994505616E+02  0.14200000000E+01 0.  1.
         25    2    1    2    0    0  0.00000000000E+00  0.00000000000E+00  0.95103684538E+02  0.15706814750E+03  0.12500276856E+03 0.  0.
        -13    1    3    3    0    0  0.23621405813E+02 -0.57331765158E+02  0.37697208465E+02  0.72567160667E+02  0.10570000000E+00 0.  1.
         13    1    3    3    0    0 -0.23621405813E+02  0.57331765158E+02  0.57406476073E+02  0.84500986837E+02  0.10570000000E+00 0. -1.
<mgrwt>
<rscale>  0 0.12500277E+03</rscale>
<asrwt>0</asrwt>
<pdfrwt beam="1">  1        4 0.19397833E-01 0.12500277E+03</pdfrwt>
<pdfrwt beam="2">  1       -4 0.47664971E-02 0.12500277E+03</pdfrwt>
<totfact> 0.97904924E+03</totfact>
</mgrwt>
</event>
<event>
 5    1  0.1685506E-006  0.1249999E+03  0.7818608E-02  0.1235069E+00
          4   -1    0    0  501    0  0.00000000000E+00  0.00000000000E+00  0.24092839853E+02  0.24134650032E+02  0.14200000000E+01 0.  1.
         -4   -1    0    0    0  501 -0.00000000000E+00 -0.00000000000E+00 -0.16194755737E+03  0.16195378272E+03  0.14200000000E+01 0.  1.
         25    2    1    2    0    0  0.00000000000E+00  0.00000000000E+00 -0.13785471751E+03  0.18608843275E+03  0.12499992665E+03 0.  0.
        -13    1    3    3    0    0  0.54444323502E+02 -0.32947302780E+01 -0.11435601099E+03  0.12669786119E+03  0.10570000000E+00 0.  1.
         13    1    3    3    0    0 -0.54444323502E+02  0.32947302780E+01 -0.23498706527E+02  0.59390571559E+02  0.10570000000E+00 0.  1.
<mgrwt>
<rscale>  0 0.12499993E+03</rscale>
<asrwt>0</asrwt>
<pdfrwt beam="1">  1        4 0.37102859E-02 0.12499993E+03</pdfrwt>
<pdfrwt beam="2">  1       -4 0.24918703E-01 0.12499993E+03</pdfrwt>
<totfact> 0.92532556E+03</totfact>
</mgrwt>
</event>
<event>
 5    1  0.1685506E-006  0.1250000E+03  0.7818608E-02  0.1235069E+00
          4   -1    0    0  501    0  0.00000000000E+00  0.00000000000E+00  0.50890493292E+02  0.50910300603E+02  0.14200000000E+01 0. -1.
         -4   -1    0    0    0  501 -0.00000000000E+00 -0.00000000000E+00 -0.76716585403E+02  0.76729726156E+02  0.14200000000E+01 0.  1.
         25    2    1    2    0    0  0.00000000000E+00  0.00000000000E+00 -0.25826092111E+02  0.12764002676E+03  0.12499995759E+03 0.  0.
        -13    1    3    3    0    0  0.28354071691E+02  0.39610437667E+02 -0.52897394691E+02  0.71910261377E+02  0.10570000000E+00 0.  1.
         13    1    3    3    0    0 -0.28354071691E+02 -0.39610437667E+02  0.27071302580E+02  0.55729765382E+02  0.10570000000E+00 0. -1.
<mgrwt>
<rscale>  0 0.12499996E+03</rscale>
<asrwt>0</asrwt>
<pdfrwt beam="1">  1        4 0.78318412E-02 0.12499996E+03</pdfrwt>
<pdfrwt beam="2">  1       -4 0.11805086E-01 0.12499996E+03</pdfrwt>
<totfact> 0.10395279E+04</totfact>
</mgrwt>
</event>
<event>
 5    1  0.1685506E-006  0.1249974E+03  0.7818608E-02  0.1235073E+00
          4   -1    0    0  501    0  0.00000000000E+00  0.00000000000E+00  0.76789569913E+02  0.76802698178E+02  0.14200000000E+01 0. -1.
         -4   -1    0    0    0  501 -0.00000000000E+00 -0.00000000000E+00 -0.50840061778E+02  0.50859888729E+02  0.14200000000E+01 0. -1.
         25    2    1    2    0    0  0.00000000000E+00  0.00000000000E+00  0.25949508135E+02  0.12766258691E+03  0.12499743647E+03 0.  0.
        -13    1    3    3    0    0 -0.29427012210E+02  0.51882712568E+02 -0.60863393975E+01  0.59956814548E+02  0.10570000000E+00 0.  1.
         13    1    3    3    0    0  0.29427012210E+02 -0.51882712568E+02  0.32035847533E+02  0.67705772359E+02  0.10570000000E+00 0.  1.
<mgrwt>
<rscale>  0 0.12499744E+03</rscale>
<asrwt>0</asrwt>
<pdfrwt beam="1">  1        4 0.11816315E-01 0.12499744E+03</pdfrwt>
<pdfrwt beam="2">  1       -4 0.78240830E-02 0.12499744E+03</pdfrwt>
<totfact> 0.10395383E+04</totfact>
</mgrwt>
</event>
<event>
 5    1  0.1685506E-006  0.1249986E+03  0.7818608E-02  0.1235072E+00
         -4   -1    0    0    0  501 -0.00000000000E+00  0.00000000000E+00  0.10582991265E+03  0.10583943883E+03  0.14200000000E+01 0. -1.
          4   -1    0    0  501    0  0.00000000000E+00 -0.00000000000E+00 -0.36884942930E+02  0.36912266456E+02  0.14200000000E+01 0.  1.
         25    2    1    2    0    0  0.00000000000E+00  0.00000000000E+00  0.68944969719E+02  0.14275170528E+03  0.12499856204E+03 0.  0.
        -13    1    3    3    0    0 -0.31352561384E+02  0.20350546025E+02  0.91676754758E+02  0.99003870452E+02  0.10570000000E+00 0. -1.
         13    1    3    3    0    0  0.31352561384E+02 -0.20350546025E+02 -0.22731785040E+02  0.43747834832E+02  0.10570000000E+00 0.  1.
<mgrwt>
<rscale>  0 0.12499856E+03</rscale>
<asrwt>0</asrwt>
<pdfrwt beam="2">  1        4 0.56774412E-02 0.12499856E+03</pdfrwt>
<pdfrwt beam="1">  1       -4 0.16284359E-01 0.12499856E+03</pdfrwt>
<totfact> 0.10077197E+04</totfact>
</mgrwt>
</event>
<event>
 5    1  0.1685506E-006  0.1250013E+03  0.7818608E-02  0.1235067E+00
          4   -1    0    0  501    0  0.00000000000E+00  0.00000000000E+00  0.15582778048E+02  0.15647343918E+02  0.14200000000E+01 0. -1.
         -4   -1    0    0    0  501 -0.00000000000E+00 -0.00000000000E+00 -0.25009788518E+03  0.25010191637E+03  0.14200000000E+01 0.  1.
         25    2    1    2    0    0  0.00000000000E+00  0.00000000000E+00 -0.23451510713E+03  0.26574926029E+03  0.12500133547E+03 0.  0.
        -13    1    3    3    0    0  0.61496461010E+02  0.10462553834E+02 -0.12550307412E+03  0.14015103473E+03  0.10570000000E+00 0.  1.
         13    1    3    3    0    0 -0.61496461010E+02 -0.10462553834E+02 -0.10901203301E+03  0.12559822556E+03  0.10570000000E+00 0. -1.
<mgrwt>
<rscale>  0 0.12500134E+03</rscale>
<asrwt>0</asrwt>
<pdfrwt beam="1">  1        4 0.24026274E-02 0.12500134E+03</pdfrwt>
<pdfrwt beam="2">  1       -4 0.38481871E-01 0.12500134E+03</pdfrwt>
<totfact> 0.80103564E+03</totfact>
</mgrwt>
</event>
<event>
 5    1  0.1685506E-006  0.1249994E+03  0.7818608E-02  0.1235070E+00
         -4   -1    0    0    0  501 -0.00000000000E+00  0.00000000000E+00  0.20077036404E+03  0.20077538564E+03  0.14200000000E+01 0.  1.
          4   -1    0    0  501    0  0.00000000000E+00 -0.00000000000E+00 -0.19424933079E+02  0.19476766290E+02  0.14200000000E+01 0.  1.
         25    2    1    2    0    0  0.00000000000E+00  0.00000000000E+00  0.18134543096E+03  0.22025215193E+03  0.12499938039E+03 0.  0.
        -13    1    3    3    0    0 -0.40355389400E+02 -0.43457334301E+02  0.12542988857E+03  0.13874352409E+03  0.10570000000E+00 0.  1.
         13    1    3    3    0    0  0.40355389400E+02  0.43457334301E+02  0.55915542396E+02  0.81508627839E+02  0.10570000000E+00 0.  1.
<mgrwt>
<rscale>  0 0.12499938E+03</rscale>
<asrwt>0</asrwt>
<pdfrwt beam="2">  1        4 0.29928245E-02 0.12499938E+03</pdfrwt>
<pdfrwt beam="1">  1       -4 0.30892124E-01 0.12499938E+03</pdfrwt>
<totfact> 0.86829665E+03</totfact>
</mgrwt>
</event>
<event>
 5    1  0.1685506E-006  0.1249998E+03  0.7818608E-02  0.1235070E+00
         -4   -1    0    0    0  501 -0.00000000000E+00  0.00000000000E+00  0.30551760763E+03  0.30552090758E+03  0.14200000000E+01 0. -1.
          4   -1    0    0  501    0  0.00000000000E+00 -0.00000000000E+00 -0.12742834900E+02  0.12821709765E+02  0.14200000000E+01 0. -1.
         25    2    1    2    0    0  0.00000000000E+00  0.00000000000E+00  0.29277477273E+03  0.31834261735E+03  0.12499981790E+03 0.  0.
        -13    1    3    3    0    0 -0.47311515129E+02  0.35238555646E+02  0.93817482440E+02  0.11082358256E+03  0.10570000000E+00 0. -1.
         13    1    3    3    0    0  0.47311515129E+02 -0.35238555646E+02  0.19895729029E+03  0.20751903479E+03  0.10570000000E+00 0. -1.
<mgrwt>
<rscale>  0 0.12499982E+03</rscale>
<asrwt>0</asrwt>
<pdfrwt beam="2">  1        4 0.19667574E-02 0.12499982E+03</pdfrwt>
<pdfrwt beam="1">  1       -4 0.47009027E-01 0.12499982E+03</pdfrwt>
<totfact> 0.73353979E+03</totfact>
</mgrwt>
</event>
<event>
 5    1  0.1685506E-006  0.1250026E+03  0.7818608E-02  0.1235065E+00
         -4   -1    0    0    0  501 -0.00000000000E+00  0.00000000000E+00  0.70005524163E+02  0.70019924403E+02  0.14200000000E+01 0.  1.
          4   -1    0    0  501    0  0.00000000000E+00 -0.00000000000E+00 -0.55772302742E+02  0.55790376887E+02  0.14200000000E+01 0. -1.
         25    2    1    2    0    0  0.00000000000E+00  0.00000000000E+00  0.14233221421E+02  0.12581030129E+03  0.12500258925E+03 0.  0.
        -13    1    3    3    0    0 -0.44212175478E+02  0.38901795164E+02  0.28188333062E+02  0.65289045182E+02  0.10570000000E+00 0.  1.
         13    1    3    3    0    0  0.44212175478E+02 -0.38901795164E+02 -0.13955111641E+02  0.60521256108E+02  0.10570000000E+00 0. -1.
<mgrwt>
<rscale>  0 0.12500259E+03</rscale>
<asrwt>0</asrwt>
<pdfrwt beam="2">  1        4 0.85828523E-02 0.12500259E+03</pdfrwt>
<pdfrwt beam="1">  1       -4 0.10772579E-01 0.12500259E+03</pdfrwt>
<totfact> 0.10434509E+04</totfact>
</mgrwt>
</event>
<event>
 5    1  0.1685506E-006  0.1249947E+03  0.7818608E-02  0.1235078E+00
          4   -1    0    0  501    0  0.00000000000E+00  0.00000000000E+00  0.40542006073E+02  0.40566866485E+02  0.14200000000E+01 0. -1.
         -4   -1    0    0    0  501 -0.00000000000E+00 -0.00000000000E+00 -0.96282936538E+02  0.96293407191E+02  0.14200000000E+01 0.  1.
         25    2    1    2    0    0  0.00000000000E+00  0.00000000000E+00 -0.55740930465E+02  0.13686027368E+03  0.12499473262E+03 0.  0.
        -13    1    3    3    0    0 -0.12532120882E+02 -0.39219520508E+02 -0.79351717553E+02  0.89397601163E+02  0.10570000000E+00 0.  1.
         13    1    3    3    0    0  0.12532120882E+02  0.39219520508E+02  0.23610787088E+02  0.47462672513E+02  0.10570000000E+00 0. -1.
<mgrwt>
<rscale>  0 0.12499473E+03</rscale>
<asrwt>0</asrwt>
<pdfrwt beam="1">  1        4 0.62399495E-02 0.12499473E+03</pdfrwt>
<pdfrwt beam="2">  1       -4 0.14815477E-01 0.12499473E+03</pdfrwt>
<totfact> 0.10200220E+04</totfact>
</mgrwt>
</event>
<event>
 5    1  0.1685506E-006  0.1250023E+03  0.7818608E-02  0.1235066E+00
         -4   -1    0    0    0  501 -0.00000000000E+00  0.00000000000E+00  0.86071321229E+02  0.86083033974E+02  0.14200000000E+01 0. -1.
          4   -1    0    0  501    0  0.00000000000E+00 -0.00000000000E+00 -0.45359597090E+02  0.45381818475E+02  0.14200000000E+01 0.  1.
         25    2    1    2    0    0  0.00000000000E+00  0.00000000000E+00  0.40711724140E+02  0.13146485245E+03  0.12500225177E+03 0.  0.
        -13    1    3    3    0    0  0.14598310898E+02 -0.16310319294E+02  0.81925164185E+02  0.84799061880E+02  0.10570000000E+00 0. -1.
         13    1    3    3    0    0 -0.14598310898E+02  0.16310319294E+02 -0.41213440045E+02  0.46665790569E+02  0.10570000000E+00 0.  1.
<mgrwt>
<rscale>  0 0.12500225E+03</rscale>
<asrwt>0</asrwt>
<pdfrwt beam="2">  1        4 0.69810099E-02 0.12500225E+03</pdfrwt>
<pdfrwt beam="1">  1       -4 0.13244352E-01 0.12500225E+03</pdfrwt>
<totfact> 0.10312610E+04</totfact>
</mgrwt>
</event>
<event>
 5    1  0.1685506E-006  0.1249967E+03  0.7818608E-02  0.1235074E+00
         -4   -1    0    0    0  501 -0.00000000000E+00  0.00000000000E+00  0.24390688615E+02  0.24431989094E+02  0.14200000000E+01 0.  1.
          4   -1    0    0  501    0  0.00000000000E+00 -0.00000000000E+00 -0.15996496212E+03  0.15997126463E+03  0.14200000000E+01 0.  1.
         25    2    1    2    0    0  0.00000000000E+00  0.00000000000E+00 -0.13557427351E+03  0.18440325372E+03  0.12499670534E+03 0.  0.
        -13    1    3    3    0    0 -0.57990574668E+02  0.18969836232E+02 -0.87758948043E+02  0.10688501097E+03  0.10570000000E+00 0.  1.
         13    1    3    3    0    0  0.57990574668E+02 -0.18969836232E+02 -0.47815325464E+02  0.77518242748E+02  0.10570000000E+00 0.  1.
<mgrwt>
<rscale>  0 0.12499671E+03</rscale>
<asrwt>0</asrwt>
<pdfrwt beam="2">  1        4 0.24613655E-01 0.12499671E+03</pdfrwt>
<pdfrwt beam="1">  1       -4 0.37560755E-02 0.12499671E+03</pdfrwt>
<totfact> 0.92837209E+03</totfact>
</mgrwt>
</event>
<event>
 5    1  0.1685506E-006  0.1250012E+03  0.7818608E-02  0.1235067E+00
         -4   -1    0    0    0  501 -0.00000000000E+00  0.00000000000E+00  0.11207735641E+03  0.11208635162E+03  0.14200000000E+01 0.  1.
          4   -1    0    0  501    0  0.00000000000E+00 -0.00000000000E+00 -0.34828990556E+02  0.34857925687E+02  0.14200000000E+01 0.  1.
         25    2    1    2    0    0  0.00000000000E+00  0.00000000000E+00  0.77248365851E+02  0.14694427731E+03  0.12500124242E+03 0.  0.
        -13    1    3    3    0    0 -0.39610538071E+02 -0.45929957525E+02  0.20883195251E+02  0.64145730496E+02  0.10570000000E+00 0.  1.
         13    1    3    3    0    0  0.39610538071E+02  0.45929957525E+02  0.56365170600E+02  0.82798546810E+02  0.10570000000E+00 0.  1.
<mgrwt>
<rscale>  0 0.12500124E+03</rscale>
<asrwt>0</asrwt>
<pdfrwt beam="2">  1        4 0.53612239E-02 0.12500124E+03</pdfrwt>
<pdfrwt beam="1">  1       -4 0.17245588E-01 0.12500124E+03</pdfrwt>
<totfact> 0.99913541E+03</totfact>
</mgrwt>
</event>
<event>
 5    1  0.1685506E-006  0.1249999E+03  0.7818608E-02  0.1235069E+00
         -4   -1    0    0    0  501 -0.00000000000E+00  0.00000000000E+00  0.44557994920E+02  0.44580615869E+02  0.14200000000E+01 0. -1.
          4   -1    0    0  501    0  0.00000000000E+00 -0.00000000000E+00 -0.87615884285E+02  0.87627390576E+02  0.14200000000E+01 0. -1.
         25    2    1    2    0    0  0.00000000000E+00  0.00000000000E+00 -0.43057889366E+02  0.13220800644E+03  0.12499990053E+03 0.  0.
        -13    1    3    3    0    0  0.45519028407E+02  0.38428205896E+02 -0.15303038908E+01  0.59590787527E+02  0.10570000000E+00 0.  1.
         13    1    3    3    0    0 -0.45519028407E+02 -0.38428205896E+02 -0.41527585475E+02  0.72617218918E+02  0.10570000000E+00 0.  1.
<mgrwt>
<rscale>  0 0.12499990E+03</rscale>
<asrwt>0</asrwt>
<pdfrwt beam="2">  1        4 0.13481992E-01 0.12499990E+03</pdfrwt>
<pdfrwt beam="1">  1       -4 0.68577013E-02 0.12499990E+03</pdfrwt>
<totfact> 0.10297284E+04</totfact>
</mgrwt>
</event>
<event>
 5    1  0.1685506E-006  0.1249985E+03  0.7818608E-02  0.1235072E+00
          4   -1    0    0  501    0  0.00000000000E+00  0.00000000000E+00  0.41793940429E+03  0.41794181660E+03  0.14200000000E+01 0. -1.
         -4   -1    0    0    0  501 -0.00000000000E+00 -0.00000000000E+00 -0.92898295920E+01  0.93977302498E+01  0.14200000000E+01 0.  1.
         25    2    1    2    0    0  0.00000000000E+00  0.00000000000E+00  0.40864957470E+03  0.42733954685E+03  0.12499845358E+03 0.  0.
        -13    1    3    3    0    0  0.93152176243E+01 -0.59443964545E+02  0.26211940332E+03  0.26893670440E+03  0.10570000000E+00 0.  1.
         13    1    3    3    0    0 -0.93152176243E+01  0.59443964545E+02  0.14653017138E+03  0.15840284245E+03  0.10570000000E+00 0. -1.
<mgrwt>
<rscale>  0 0.12499845E+03</rscale>
<asrwt>0</asrwt>
<pdfrwt beam="1">  1        4 0.64306870E-01 0.12499845E+03</pdfrwt>
<pdfrwt beam="2">  1       -4 0.14376898E-02 0.12499845E+03</pdfrwt>
<totfact> 0.61979991E+03</totfact>
</mgrwt>
</event>
<event>
 5    1  0.1685506E-006  0.1249995E+03  0.7818608E-02  0.1235070E+00
         -4   -1    0    0    0  501 -0.00000000000E+00  0.00000000000E+00  0.79325561903E+01  0.80586504895E+01  0.14200000000E+01 0. -1.
          4   -1    0    0  501    0  0.00000000000E+00 -0.00000000000E+00 -0.48841873989E+03  0.48842080410E+03  0.14200000000E+01 0.  1.
         25    2    1    2    0    0  0.00000000000E+00  0.00000000000E+00 -0.48048618370E+03  0.49647945459E+03  0.12499950440E+03 0.  0.
        -13    1    3    3    0    0 -0.30179336416E+02 -0.52407316864E+02 -0.30290383367E+03  0.30888195614E+03  0.10570000000E+00 0. -1.
         13    1    3    3    0    0  0.30179336416E+02  0.52407316864E+02 -0.17758235003E+03  0.18759749845E+03  0.10570000000E+00 0.  1.
<mgrwt>
<rscale>  0 0.12499950E+03</rscale>
<asrwt>0</asrwt>
<pdfrwt beam="2">  1        4 0.75151180E-01 0.12499950E+03</pdfrwt>
<pdfrwt beam="1">  1       -4 0.12302520E-02 0.12499950E+03</pdfrwt>
<totfact> 0.56139178E+03</totfact>
</mgrwt>
</event>
<event>
 4    1  0.1685506E-006  0.1250847E+03  0.7818608E-02  0.1234937E+00
          4   -1    0    0  501    0  0.00000000000E+00  0.00000000000E+00  0.73585757695E+02  0.73599457441E+02  0.14200000000E+01 0. -1.
         -4   -1    0    0    0  501 -0.00000000000E+00 -0.00000000000E+00 -0.53128178183E+02  0.53147151543E+02  0.14200000000E+01 0.  1.
        -13    1    1    2    0    0 -0.32802843158E+02 -0.33897751450E+02 -0.31383257234E+02  0.56656897901E+02  0.10570000000E+00 0.  1.
         13    1    1    2    0    0  0.32802843158E+02  0.33897751450E+02  0.51840836746E+02  0.70089711082E+02  0.10570000000E+00 0. -1.
<mgrwt>
<rscale>  0 0.12508473E+03</rscale>
<asrwt>0</asrwt>
<pdfrwt beam="1">  1        4 0.11323399E-01 0.12508473E+03</pdfrwt>
<pdfrwt beam="2">  1       -4 0.81760792E-02 0.12508473E+03</pdfrwt>
<totfact> 0.10394762E+04</totfact>
</mgrwt>
</event>
<event>
 5    1  0.1685506E-006  0.1250009E+03  0.7818608E-02  0.1235068E+00
         -4   -1    0    0    0  501 -0.00000000000E+00  0.00000000000E+00  0.47586630270E+03  0.47586842136E+03  0.14200000000E+01 0.  1.
          4   -1    0    0  501    0  0.00000000000E+00 -0.00000000000E+00 -0.81452662224E+01  0.82681171880E+01  0.14200000000E+01 0. -1.
         25    2    1    2    0    0  0.00000000000E+00  0.00000000000E+00  0.46772103648E+03  0.48413653855E+03  0.12500087996E+03 0.  0.
        -13    1    3    3    0    0 -0.59160479336E+02  0.23188247068E+01  0.15630684543E+03  0.16714419034E+03  0.10570000000E+00 0.  1.
         13    1    3    3    0    0  0.59160479336E+02 -0.23188247068E+01  0.31141419105E+03  0.31699234821E+03  0.10570000000E+00 0. -1.
<mgrwt>
<rscale>  0 0.12500088E+03</rscale>
<asrwt>0</asrwt>
<pdfrwt beam="2">  1        4 0.12627309E-02 0.12500088E+03</pdfrwt>
<pdfrwt beam="1">  1       -4 0.73219818E-01 0.12500088E+03</pdfrwt>
<totfact> 0.57115421E+03</totfact>
</mgrwt>
</event>
<event>
 5    1  0.1685506E-006  0.1249995E+03  0.7818608E-02  0.1235070E+00
         -4   -1    0    0    0  501 -0.00000000000E+00  0.00000000000E+00  0.15598221971E+03  0.15598868313E+03  0.14200000000E+01 0. -1.
          4   -1    0    0  501    0  0.00000000000E+00 -0.00000000000E+00 -0.25015614239E+02  0.25055884653E+02  0.14200000000E+01 0. -1.
         25    2    1    2    0    0  0.00000000000E+00  0.00000000000E+00  0.13096660547E+03  0.18104456779E+03  0.12499953510E+03 0.  0.
        -13    1    3    3    0    0 -0.34218790142E+02  0.21837848874E+02  0.13431315143E+03  0.14031340300E+03  0.10570000000E+00 0.  1.
         13    1    3    3    0    0  0.34218790142E+02 -0.21837848874E+02 -0.33465459614E+01  0.40731164783E+02  0.10570000000E+00 0.  1.
<mgrwt>
<rscale>  0 0.12499954E+03</rscale>
<asrwt>0</asrwt>
<pdfrwt beam="2">  1        4 0.38521510E-02 0.12499954E+03</pdfrwt>
<pdfrwt beam="1">  1       -4 0.24000859E-01 0.12499954E+03</pdfrwt>
<totfact> 0.93430289E+03</totfact>
</mgrwt>
</event>
<event>
 5    1  0.1685506E-006  0.1250010E+03  0.7818608E-02  0.1235068E+00
         -4   -1    0    0    0  501 -0.00000000000E+00  0.00000000000E+00  0.98733432553E+02  0.98743643359E+02  0.14200000000E+01 0.  1.
          4   -1    0    0  501    0  0.00000000000E+00 -0.00000000000E+00 -0.39539249387E+02  0.39564739884E+02  0.14200000000E+01 0. -1.
         25    2    1    2    0    0  0.00000000000E+00  0.00000000000E+00  0.59194183167E+02  0.13830838324E+03  0.12500103021E+03 0.  0.
        -13    1    3    3    0    0  0.33834858276E+02  0.69992065298E+01  0.87223442803E+02  0.93817517946E+02  0.10570000000E+00 0.  1.
         13    1    3    3    0    0 -0.33834858276E+02 -0.69992065298E+01 -0.28029259637E+02  0.44490865297E+02  0.10570000000E+00 0. -1.
<mgrwt>
<rscale>  0 0.12500103E+03</rscale>
<asrwt>0</asrwt>
<pdfrwt beam="2">  1        4 0.60857077E-02 0.12500103E+03</pdfrwt>
<pdfrwt beam="1">  1       -4 0.15192505E-01 0.12500103E+03</pdfrwt>
<totfact> 0.10168530E+04</totfact>
</mgrwt>
</event>
<event>
 5    1  0.1685506E-006  0.1250028E+03  0.7818608E-02  0.1235065E+00
          4   -1    0    0  501    0  0.00000000000E+00  0.00000000000E+00  0.10697157814E+03  0.10698100266E+03  0.14200000000E+01 0. -1.
         -4   -1    0    0    0  501 -0.00000000000E+00 -0.00000000000E+00 -0.36493505113E+02  0.36521121497E+02  0.14200000000E+01 0.  1.
         25    2    1    2    0    0  0.00000000000E+00  0.00000000000E+00  0.70478073030E+02  0.14350212416E+03  0.12500280341E+03 0.  0.
        -13    1    3    3    0    0  0.43112998700E+02  0.40657709203E+02  0.12433732621E+02  0.60550713076E+02  0.10570000000E+00 0.  1.
         13    1    3    3    0    0 -0.43112998700E+02 -0.40657709203E+02  0.58044340409E+02  0.82951411082E+02  0.10570000000E+00 0. -1.
<mgrwt>
<rscale>  0 0.12500280E+03</rscale>
<asrwt>0</asrwt>
<pdfrwt beam="1">  1        4 0.16460015E-01 0.12500280E+03</pdfrwt>
<pdfrwt beam="2">  1       -4 0.56172348E-02 0.12500280E+03</pdfrwt>
<totfact> 0.10060876E+04</totfact>
</mgrwt>
</event>
<event>
 5    1  0.1685506E-006  0.1249990E+03  0.7818608E-02  0.1235071E+00
         -4   -1    0    0    0  501 -0.00000000000E+00  0.00000000000E+00  0.33909782728E+02  0.33939501538E+02  0.14200000000E+01 0.  1.
          4   -1    0    0  501    0  0.00000000000E+00 -0.00000000000E+00 -0.11510891392E+03  0.11511767225E+03  0.14200000000E+01 0. -1.
         25    2    1    2    0    0  0.00000000000E+00  0.00000000000E+00 -0.81199131192E+02  0.14905717379E+03  0.12499896860E+03 0.  0.
        -13    1    3    3    0    0 -0.25979200183E+02  0.56674046281E+02 -0.35359760753E+02  0.71674194917E+02  0.10570000000E+00 0.  1.
         13    1    3    3    0    0  0.25979200183E+02 -0.56674046281E+02 -0.45839370439E+02  0.77382978870E+02  0.10570000000E+00 0. -1.
<mgrwt>
<rscale>  0 0.12499897E+03</rscale>
<asrwt>0</asrwt>
<pdfrwt beam="2">  1        4 0.17712023E-01 0.12499897E+03</pdfrwt>
<pdfrwt beam="1">  1       -4 0.52198495E-02 0.12499897E+03</pdfrwt>
<totfact> 0.99494278E+03</totfact>
</mgrwt>
</event>
<event>
 5    1  0.1685506E-006  0.1249988E+03  0.7818608E-02  0.1235071E+00
          4   -1    0    0  501    0  0.00000000000E+00  0.00000000000E+00  0.61876050271E+02  0.61892341991E+02  0.14200000000E+01 0. -1.
         -4   -1    0    0    0  501 -0.00000000000E+00 -0.00000000000E+00 -0.63096448431E+02  0.63112425120E+02  0.14200000000E+01 0.  1.
         25    2    1    2    0    0  0.00000000000E+00  0.00000000000E+00 -0.12203981601E+01  0.12500476711E+03  0.12499880971E+03 0.  0.
        -13    1    3    3    0    0  0.31992797875E+02 -0.15683436005E+02 -0.51961016835E+02  0.63003711984E+02  0.10570000000E+00 0.  1.
         13    1    3    3    0    0 -0.31992797875E+02  0.15683436005E+02  0.50740618675E+02  0.62001055127E+02  0.10570000000E+00 0. -1.
<mgrwt>
<rscale>  0 0.12499881E+03</rscale>
<asrwt>0</asrwt>
<pdfrwt beam="1">  1        4 0.95218745E-02 0.12499881E+03</pdfrwt>
<pdfrwt beam="2">  1       -4 0.97096282E-02 0.12499881E+03</pdfrwt>
<totfact> 0.10453040E+04</totfact>
</mgrwt>
</event>
<event>
 5    1  0.1685506E-006  0.1250011E+03  0.7818608E-02  0.1235068E+00
          4   -1    0    0  501    0  0.00000000000E+00  0.00000000000E+00  0.30381776669E+02  0.30414942932E+02  0.14200000000E+01 0.  1.
         -4   -1    0    0    0  501 -0.00000000000E+00 -0.00000000000E+00 -0.12846706798E+03  0.12847491566E+03  0.14200000000E+01 0. -1.
         25    2    1    2    0    0  0.00000000000E+00  0.00000000000E+00 -0.98085291306E+02  0.15888985859E+03  0.12500105117E+03 0.  0.
        -13    1    3    3    0    0  0.27541690403E+02  0.49510341633E+02 -0.82588485847E+02  0.10015332149E+03  0.10570000000E+00 0. -1.
         13    1    3    3    0    0 -0.27541690403E+02 -0.49510341633E+02 -0.15496805460E+02  0.58736537102E+02  0.10570000000E+00 0.  1.
<mgrwt>
<rscale>  0 0.12500105E+03</rscale>
<asrwt>0</asrwt>
<pdfrwt beam="1">  1        4 0.46772745E-02 0.12500105E+03</pdfrwt>
<pdfrwt beam="2">  1       -4 0.19767319E-01 0.12500105E+03</pdfrwt>
<totfact> 0.97554934E+03</totfact>
</mgrwt>
</event>
<event>
 5    1  0.1685506E-006  0.1250046E+03  0.7818608E-02  0.1235062E+00
          4   -1    0    0  501    0  0.00000000000E+00  0.00000000000E+00  0.47046287622E+02  0.47067712702E+02  0.14200000000E+01 0.  1.
         -4   -1    0    0    0  501 -0.00000000000E+00 -0.00000000000E+00 -0.82989644635E+02  0.83001792249E+02  0.14200000000E+01 0. -1.
         25    2    1    2    0    0  0.00000000000E+00  0.00000000000E+00 -0.35943357013E+02  0.13006950495E+03  0.12500460473E+03 0.  0.
        -13    1    3    3    0    0  0.60568885271E+02 -0.10010092472E+02 -0.57601130895E+01  0.61660213181E+02  0.10570000000E+00 0. -1.
         13    1    3    3    0    0 -0.60568885271E+02  0.10010092472E+02 -0.30183243923E+02  0.68409291770E+02  0.10570000000E+00 0.  1.
<mgrwt>
<rscale>  0 0.12500460E+03</rscale>
<asrwt>0</asrwt>
<pdfrwt beam="1">  1        4 0.72404729E-02 0.12500460E+03</pdfrwt>
<pdfrwt beam="2">  1       -4 0.12770220E-01 0.12500460E+03</pdfrwt>
<totfact> 0.10341946E+04</totfact>
</mgrwt>
</event>
<event>
 4    1  0.1685506E-006  0.1251232E+03  0.7818608E-02  0.1234877E+00
          4   -1    0    0  501    0  0.00000000000E+00  0.00000000000E+00  0.28649840553E+03  0.28650192455E+03  0.14200000000E+01 0. -1.
         -4   -1    0    0    0  501 -0.00000000000E+00 -0.00000000000E+00 -0.13620835589E+02  0.13694654510E+02  0.14200000000E+01 0.  1.
        -13    1    1    2    0    0 -0.41728380070E+02  0.20938083247E+02  0.36524461904E+02  0.59276542774E+02  0.10570000000E+00 0.  1.
         13    1    1    2    0    0  0.41728380070E+02 -0.20938083247E+02  0.23635310804E+03  0.24092003629E+03  0.10570000000E+00 0. -1.
<mgrwt>
<rscale>  0 0.12512321E+03</rscale>
<asrwt>0</asrwt>
<pdfrwt beam="1">  1        4 0.44082625E-01 0.12512321E+03</pdfrwt>
<pdfrwt beam="2">  1       -4 0.21014623E-02 0.12512321E+03</pdfrwt>
<totfact> 0.75367852E+03</totfact>
</mgrwt>
</event>
<event>
 5    1  0.1685506E-006  0.1249964E+03  0.7818608E-02  0.1235075E+00
         -4   -1    0    0    0  501 -0.00000000000E+00  0.00000000000E+00  0.18565442330E+03  0.18565985374E+03  0.14200000000E+01 0. -1.
          4   -1    0    0  501    0  0.00000000000E+00 -0.00000000000E+00 -0.21009532404E+02  0.21057465466E+02  0.14200000000E+01 0.  1.
         25    2    1    2    0    0  0.00000000000E+00  0.00000000000E+00  0.16464489089E+03  0.20671731920E+03  0.12499643979E+03 0.  0.
        -13    1    3    3    0    0 -0.49585383158E+02  0.23154945122E+02  0.13224252394E+03  0.14311868507E+03  0.10570000000E+00 0. -1.
         13    1    3    3    0    0  0.49585383158E+02 -0.23154945122E+02  0.32402366953E+02  0.63598634130E+02  0.10570000000E+00 0.  1.
<mgrwt>
<rscale>  0 0.12499644E+03</rscale>
<asrwt>0</asrwt>
<pdfrwt beam="2">  1        4 0.32363406E-02 0.12499644E+03</pdfrwt>
<pdfrwt beam="1">  1       -4 0.28566324E-01 0.12499644E+03</pdfrwt>
<totfact> 0.89021894E+03</totfact>
</mgrwt>
</event>
<event>
 5    1  0.1685506E-006  0.1249966E+03  0.7818608E-02  0.1235075E+00
         -4   -1    0    0    0  501 -0.00000000000E+00  0.00000000000E+00  0.63795354259E+02  0.63811155961E+02  0.14200000000E+01 0.  1.
          4   -1    0    0  501    0  0.00000000000E+00 -0.00000000000E+00 -0.61196042979E+02  0.61212515683E+02  0.14200000000E+01 0. -1.
         25    2    1    2    0    0  0.00000000000E+00  0.00000000000E+00  0.25993112805E+01  0.12502367164E+03  0.12499664816E+03 0.  0.
        -13    1    3    3    0    0  0.57029614093E+02 -0.25521829337E+02  0.28128225105E+01  0.62543295398E+02  0.10570000000E+00 0.  1.
         13    1    3    3    0    0 -0.57029614093E+02  0.25521829337E+02 -0.21351122995E+00  0.62480376246E+02  0.10570000000E+00 0. -1.
<mgrwt>
<rscale>  0 0.12499665E+03</rscale>
<asrwt>0</asrwt>
<pdfrwt beam="2">  1        4 0.94172585E-02 0.12499665E+03</pdfrwt>
<pdfrwt beam="1">  1       -4 0.98171525E-02 0.12499665E+03</pdfrwt>
<totfact> 0.10453140E+04</totfact>
</mgrwt>
</event>
<event>
 5    1  0.1685506E-006  0.1249992E+03  0.7818608E-02  0.1235071E+00
         -4   -1    0    0    0  501 -0.00000000000E+00  0.00000000000E+00  0.26461660902E+02  0.26499733918E+02  0.14200000000E+01 0.  1.
          4   -1    0    0  501    0  0.00000000000E+00 -0.00000000000E+00 -0.14746968042E+03  0.14747651692E+03  0.14200000000E+01 0.  1.
         25    2    1    2    0    0  0.00000000000E+00  0.00000000000E+00 -0.12100801952E+03  0.17397625084E+03  0.12499918027E+03 0.  0.
        -13    1    3    3    0    0 -0.52089056494E+02 -0.29608608329E+02 -0.85255238621E+02  0.10420367737E+03  0.10570000000E+00 0.  1.
         13    1    3    3    0    0  0.52089056494E+02  0.29608608329E+02 -0.35752780899E+02  0.69772573467E+02  0.10570000000E+00 0.  1.
<mgrwt>
<rscale>  0 0.12499918E+03</rscale>
<asrwt>0</asrwt>
<pdfrwt beam="2">  1        4 0.22691097E-01 0.12499918E+03</pdfrwt>
<pdfrwt beam="1">  1       -4 0.40744794E-02 0.12499918E+03</pdfrwt>
<totfact> 0.94714415E+03</totfact>
</mgrwt>
</event>
<event>
 5    1  0.1685506E-006  0.1249951E+03  0.7818608E-02  0.1235077E+00
         -4   -1    0    0    0  501 -0.00000000000E+00  0.00000000000E+00  0.35193356254E+03  0.35193642727E+03  0.14200000000E+01 0.  1.
          4   -1    0    0  501    0  0.00000000000E+00 -0.00000000000E+00 -0.11050176586E+02  0.11141041359E+02  0.14200000000E+01 0. -1.
         25    2    1    2    0    0  0.00000000000E+00  0.00000000000E+00  0.34088338595E+03  0.36307746863E+03  0.12499506154E+03 0.  0.
        -13    1    3    3    0    0 -0.17329968258E+02  0.59291756271E+02  0.14287118412E+03  0.15565354665E+03  0.10570000000E+00 0. -1.
         13    1    3    3    0    0  0.17329968258E+02 -0.59291756271E+02  0.19801220184E+03  0.20742392198E+03  0.10570000000E+00 0.  1.
<mgrwt>
<rscale>  0 0.12499506E+03</rscale>
<asrwt>0</asrwt>
<pdfrwt beam="2">  1        4 0.17072375E-02 0.12499506E+03</pdfrwt>
<pdfrwt beam="1">  1       -4 0.54150825E-01 0.12499506E+03</pdfrwt>
<totfact> 0.68316902E+03</totfact>
</mgrwt>
</event>
<event>
 5    1  0.1685506E-006  0.1249994E+03  0.7818608E-02  0.1235070E+00
         -4   -1    0    0    0  501 -0.00000000000E+00  0.00000000000E+00  0.38254492602E+02  0.38280838604E+02  0.14200000000E+01 0. -1.
          4   -1    0    0  501    0  0.00000000000E+00 -0.00000000000E+00 -0.10204470446E+03  0.10205458396E+03  0.14200000000E+01 0.  1.
         25    2    1    2    0    0  0.00000000000E+00  0.00000000000E+00 -0.63790211855E+02  0.14033542257E+03  0.12499935879E+03 0.  0.
        -13    1    3    3    0    0  0.15158839763E+02  0.25059523892E+02  0.30091453950E+02  0.41991391189E+02  0.10570000000E+00 0. -1.
         13    1    3    3    0    0 -0.15158839763E+02 -0.25059523892E+02 -0.93881665805E+02  0.98344031378E+02  0.10570000000E+00 0.  1.
<mgrwt>
<rscale>  0 0.12499936E+03</rscale>
<asrwt>0</asrwt>
<pdfrwt beam="2">  1        4 0.15701972E-01 0.12499936E+03</pdfrwt>
<pdfrwt beam="1">  1       -4 0.58880932E-02 0.12499936E+03</pdfrwt>
<totfact> 0.10126785E+04</totfact>
</mgrwt>
</event>
<event>
 5    1  0.1685506E-006  0.1250034E+03  0.7818608E-02  0.1235064E+00
         -4   -1    0    0    0  501 -0.00000000000E+00  0.00000000000E+00  0.14232763065E+03  0.14233471413E+03  0.14200000000E+01 0.  1.
          4   -1    0    0  501    0  0.00000000000E+00 -0.00000000000E+00 -0.27420842589E+02  0.27457585623E+02  0.14200000000E+01 0. -1.
         25    2    1    2    0    0  0.00000000000E+00  0.00000000000E+00  0.11490678806E+03  0.16979229975E+03  0.12500342041E+03 0.  0.
        -13    1    3    3    0    0  0.14218132854E+02 -0.50374106109E+02  0.10384980554E+03  0.11629488016E+03  0.10570000000E+00 0.  1.
         13    1    3    3    0    0 -0.14218132854E+02  0.50374106109E+02  0.11056982519E+02  0.53497419592E+02  0.10570000000E+00 0. -1.
<mgrwt>
<rscale>  0 0.12500342E+03</rscale>
<asrwt>0</asrwt>
<pdfrwt beam="2">  1        4 0.42219625E-02 0.12500342E+03</pdfrwt>
<pdfrwt beam="1">  1       -4 0.21899929E-01 0.12500342E+03</pdfrwt>
<totfact> 0.95480033E+03</totfact>
</mgrwt>
</event>
<event>
 5    1  0.1685506E-006  0.1250000E+03  0.7818608E-02  0.1235069E+00
         -4   -1    0    0    0  501 -0.00000000000E+00  0.00000000000E+00  0.52928070789E+02  0.52947115856E+02  0.14200000000E+01 0. -1.
          4   -1    0    0  501    0  0.00000000000E+00 -0.00000000000E+00 -0.73763829038E+02  0.73777495717E+02  0.14200000000E+01 0.  1.
         25    2    1    2    0    0  0.00000000000E+00  0.00000000000E+00 -0.20835758248E+02  0.12672461157E+03  0.12499999343E+03 0.  0.
        -13    1    3    3    0    0 -0.53767496097E+02  0.27901637923E+02  0.51825217458E+01  0.60797325101E+02  0.10570000000E+00 0. -1.
         13    1    3    3    0    0  0.53767496097E+02 -0.27901637923E+02 -0.26018279994E+02  0.65927286473E+02  0.10570000000E+00 0.  1.
<mgrwt>
<rscale>  0 0.12499999E+03</rscale>
<asrwt>0</asrwt>
<pdfrwt beam="2">  1        4 0.11350798E-01 0.12499999E+03</pdfrwt>
<pdfrwt beam="1">  1       -4 0.81452964E-02 0.12499999E+03</pdfrwt>
<totfact> 0.10415136E+04</totfact>
</mgrwt>
</event>
<event>
 5    1  0.1685506E-006  0.1249999E+03  0.7818608E-02  0.1235069E+00
         -4   -1    0    0    0  501 -0.00000000000E+00  0.00000000000E+00  0.10886859990E+03  0.10887786021E+03  0.14200000000E+01 0.  1.
          4   -1    0    0  501    0  0.00000000000E+00 -0.00000000000E+00 -0.35855525840E+02  0.35883633223E+02  0.14200000000E+01 0. -1.
         25    2    1    2    0    0  0.00000000000E+00  0.00000000000E+00  0.73013074060E+02  0.14476149343E+03  0.12499992399E+03 0.  0.
        -13    1    3    3    0    0  0.45281878058E+02 -0.19221835234E+02 -0.81410010035E+01  0.49861954435E+02  0.10570000000E+00 0. -1.
         13    1    3    3    0    0 -0.45281878058E+02  0.19221835234E+02  0.81154075063E+02  0.94899538999E+02  0.10570000000E+00 0.  1.
<mgrwt>
<rscale>  0 0.12499992E+03</rscale>
<asrwt>0</asrwt>
<pdfrwt beam="2">  1        4 0.55191092E-02 0.12499992E+03</pdfrwt>
<pdfrwt beam="1">  1       -4 0.16751890E-01 0.12499992E+03</pdfrwt>
<totfact> 0.10035854E+04</totfact>
</mgrwt>
</event>
<event>
 5    1  0.1685506E-006  0.1249994E+03  0.7818608E-02  0.1235070E+00
         -4   -1    0    0    0  501 -0.00000000000E+00  0.00000000000E+00  0.21642395460E+02  0.21688929924E+02  0.14200000000E+01 0. -1.
          4   -1    0    0  501    0  0.00000000000E+00 -0.00000000000E+00 -0.18024581343E+03  0.18025140681E+03  0.14200000000E+01 0. -1.
         25    2    1    2    0    0  0.00000000000E+00  0.00000000000E+00 -0.15860341797E+03  0.20194033674E+03  0.12499942164E+03 0.  0.
        -13    1    3    3    0    0 -0.23847495891E+02  0.26440541171E+02 -0.16228395357E+03  0.16614420856E+03  0.10570000000E+00 0.  1.
         13    1    3    3    0    0  0.23847495891E+02 -0.26440541171E+02  0.36805356058E+01  0.35796128178E+02  0.10570000000E+00 0.  1.
<mgrwt>
<rscale>  0 0.12499942E+03</rscale>
<asrwt>0</asrwt>
<pdfrwt beam="2">  1        4 0.27734134E-01 0.12499942E+03</pdfrwt>
<pdfrwt beam="1">  1       -4 0.33336092E-02 0.12499942E+03</pdfrwt>
<totfact> 0.89810444E+03</totfact>
</mgrwt>
</event>
<event>
 4    1  0.1685506E-006  0.1250614E+03  0.7818608E-02  0.1234973E+00
         -4   -1    0    0    0  501 -0.00000000000E+00  0.00000000000E+00  0.50471210023E+02  0.50491181816E+02  0.14200000000E+01 0. -1.
          4   -1    0    0  501    0  0.00000000000E+00 -0.00000000000E+00 -0.77429837501E+02  0.77442857227E+02  0.14200000000E+01 0.  1.
        -13    1    1    2    0    0  0.46153551236E+02 -0.41600200670E+02 -0.62930298910E+01  0.62452705187E+02  0.10570000000E+00 0. -1.
         13    1    1    2    0    0 -0.46153551236E+02  0.41600200670E+02 -0.20665597588E+02  0.65481333856E+02  0.10570000000E+00 0.  1.
<mgrwt>
<rscale>  0 0.12506139E+03</rscale>
<asrwt>0</asrwt>
<pdfrwt beam="2">  1        4 0.11914820E-01 0.12506139E+03</pdfrwt>
<pdfrwt beam="1">  1       -4 0.77673394E-02 0.12506139E+03</pdfrwt>
<totfact> 0.10374528E+04</totfact>
</mgrwt>
</event>
<event>
 5    1  0.1685506E-006  0.1249928E+03  0.7818608E-02  0.1235080E+00
         -4   -1    0    0    0  501 -0.00000000000E+00  0.00000000000E+00  0.40544989617E+02  0.40569848201E+02  0.14200000000E+01 0.  1.
          4   -1    0    0  501    0  0.00000000000E+00 -0.00000000000E+00 -0.96272943357E+02  0.96283415096E+02  0.14200000000E+01 0. -1.
         25    2    1    2    0    0  0.00000000000E+00  0.00000000000E+00 -0.55727953740E+02  0.13685326330E+03  0.12499284318E+03 0.  0.
        -13    1    3    3    0    0  0.22558267067E+02  0.53852210748E+02 -0.34586250908E+01  0.58488539694E+02  0.10570000000E+00 0.  1.
         13    1    3    3    0    0 -0.22558267067E+02 -0.53852210748E+02 -0.52269328649E+02  0.78364723603E+02  0.10570000000E+00 0. -1.
<mgrwt>
<rscale>  0 0.12499284E+03</rscale>
<asrwt>0</asrwt>
<pdfrwt beam="2">  1        4 0.14813940E-01 0.12499284E+03</pdfrwt>
<pdfrwt beam="1">  1       -4 0.62404085E-02 0.12499284E+03</pdfrwt>
<totfact> 0.10200801E+04</totfact>
</mgrwt>
</event>
<event>
 5    1  0.1685506E-006  0.1250032E+03  0.7818608E-02  0.1235064E+00
          4   -1    0    0  501    0  0.00000000000E+00  0.00000000000E+00  0.18878782897E+03  0.18879316928E+03  0.14200000000E+01 0. -1.
         -4   -1    0    0    0  501 -0.00000000000E+00 -0.00000000000E+00 -0.20662274267E+02  0.20711011030E+02  0.14200000000E+01 0.  1.
         25    2    1    2    0    0  0.00000000000E+00  0.00000000000E+00  0.16812555470E+03  0.20950418031E+03  0.12500319765E+03 0.  0.
        -13    1    3    3    0    0 -0.41470837251E+02 -0.13542471164E+02  0.90500786513E+01  0.44554954423E+02  0.10570000000E+00 0.  1.
         13    1    3    3    0    0  0.41470837251E+02  0.13542471164E+02  0.15907547605E+03  0.16494922588E+03  0.10570000000E+00 0. -1.
<mgrwt>
<rscale>  0 0.12500320E+03</rscale>
<asrwt>0</asrwt>
<pdfrwt beam="1">  1        4 0.29048440E-01 0.12500320E+03</pdfrwt>
<pdfrwt beam="2">  1       -4 0.31829713E-02 0.12500320E+03</pdfrwt>
<totfact> 0.88550588E+03</totfact>
</mgrwt>
</event>
<event>
 5    1  0.1685506E-006  0.1250016E+03  0.7818608E-02  0.1235067E+00
          4   -1    0    0  501    0  0.00000000000E+00  0.00000000000E+00  0.49709306849E+03  0.49709509667E+03  0.14200000000E+01 0.  1.
         -4   -1    0    0    0  501 -0.00000000000E+00 -0.00000000000E+00 -0.77921833931E+01  0.79205127380E+01  0.14200000000E+01 0. -1.
         25    2    1    2    0    0  0.00000000000E+00  0.00000000000E+00  0.48930088509E+03  0.50501560941E+03  0.12500163838E+03 0.  0.
        -13    1    3    3    0    0 -0.61966965311E+02  0.32058767132E+01  0.21437447908E+03  0.22317394760E+03  0.10570000000E+00 0. -1.
         13    1    3    3    0    0  0.61966965311E+02 -0.32058767132E+01  0.27492640602E+03  0.28184166181E+03  0.10570000000E+00 0.  1.
<mgrwt>
<rscale>  0 0.12500164E+03</rscale>
<asrwt>0</asrwt>
<pdfrwt beam="1">  1        4 0.76485888E-01 0.12500164E+03</pdfrwt>
<pdfrwt beam="2">  1       -4 0.12088249E-02 0.12500164E+03</pdfrwt>
<totfact> 0.55475305E+03</totfact>
</mgrwt>
</event>
<event>
 5    1  0.1685506E-006  0.1249985E+03  0.7818608E-02  0.1235072E+00
          4   -1    0    0  501    0  0.00000000000E+00  0.00000000000E+00  0.71808023577E+02  0.71822062418E+02  0.14200000000E+01 0.  1.
         -4   -1    0    0    0  501 -0.00000000000E+00 -0.00000000000E+00 -0.54368615706E+02  0.54387156331E+02  0.14200000000E+01 0. -1.
         25    2    1    2    0    0  0.00000000000E+00  0.00000000000E+00  0.17439407871E+02  0.12620921875E+03  0.12499853579E+03 0.  0.
        -13    1    3    3    0    0  0.45722782812E+02 -0.15801969953E+02 -0.31234668034E+02  0.57583771865E+02  0.10570000000E+00 0. -1.
         13    1    3    3    0    0 -0.45722782812E+02  0.15801969953E+02  0.48674075905E+02  0.68625446885E+02  0.10570000000E+00 0.  1.
<mgrwt>
<rscale>  0 0.12499854E+03</rscale>
<asrwt>0</asrwt>
<pdfrwt beam="1">  1        4 0.11049894E-01 0.12499854E+03</pdfrwt>
<pdfrwt beam="2">  1       -4 0.83669085E-02 0.12499854E+03</pdfrwt>
<totfact> 0.10426722E+04</totfact>
</mgrwt>
</event>
<event>
 4    1  0.1685506E-006  0.1249338E+03  0.7818608E-02  0.1235173E+00
         -4   -1    0    0    0  501 -0.00000000000E+00  0.00000000000E+00  0.23641979823E+03  0.23642406264E+03  0.14200000000E+01 0. -1.
          4   -1    0    0  501    0  0.00000000000E+00 -0.00000000000E+00 -0.16470043415E+02  0.16531144246E+02  0.14200000000E+01 0.  1.
        -13    1    1    2    0    0 -0.60276712299E+02  0.13646257816E+02  0.12837606395E+03  0.14247781359E+03  0.10570000000E+00 0. -1.
         13    1    1    2    0    0  0.60276712299E+02 -0.13646257816E+02  0.91573690863E+02  0.11047739329E+03  0.10570000000E+00 0.  1.
<mgrwt>
<rscale>  0 0.12493375E+03</rscale>
<asrwt>0</asrwt>
<pdfrwt beam="2">  1        4 0.25388810E-02 0.12493375E+03</pdfrwt>
<pdfrwt beam="1">  1       -4 0.36377304E-01 0.12493375E+03</pdfrwt>
<totfact> 0.82025941E+03</totfact>
</mgrwt>
</event>
<event>
 5    1  0.1685506E-006  0.1250192E+03  0.7818608E-02  0.1235039E+00
         -4   -1    0    0    0  501 -0.00000000000E+00  0.00000000000E+00  0.23317627738E+03  0.23318060110E+03  0.14200000000E+01 0.  1.
          4   -1    0    0  501    0  0.00000000000E+00 -0.00000000000E+00 -0.16722926032E+02  0.16783106240E+02  0.14200000000E+01 0. -1.
         25    2    1    2    0    0  0.00000000000E+00  0.00000000000E+00  0.21645335135E+03  0.24996370734E+03  0.12501920525E+03 0.  0.
        -13    1    3    3    0    0 -0.33962070109E+02  0.32044216262E+02  0.19132067904E+03  0.19693620136E+03  0.10570000000E+00 0.  1.
         13    1    3    3    0    0  0.33962070109E+02 -0.32044216262E+02  0.25132672301E+02  0.53027505989E+02  0.10570000000E+00 0. -1.
<mgrwt>
<rscale>  0 0.12501921E+03</rscale>
<asrwt>0</asrwt>
<pdfrwt beam="2">  1        4 0.25777198E-02 0.12501921E+03</pdfrwt>
<pdfrwt beam="1">  1       -4 0.35878233E-01 0.12501921E+03</pdfrwt>
<totfact> 0.82300259E+03</totfact>
</mgrwt>
</event>
<event>
 5    1  0.1685506E-006  0.1249940E+03  0.7818608E-02  0.1235079E+00
         -4   -1    0    0    0  501 -0.00000000000E+00  0.00000000000E+00  0.31982798057E+02  0.32014305733E+02  0.14200000000E+01 0.  1.
          4   -1    0    0  501    0  0.00000000000E+00 -0.00000000000E+00 -0.12202838695E+03  0.12203664868E+03  0.14200000000E+01 0. -1.
         25    2    1    2    0    0  0.00000000000E+00  0.00000000000E+00 -0.90045588893E+02  0.15405095442E+03  0.12499395376E+03 0.  0.
        -13    1    3    3    0    0  0.24672596913E+02  0.64362374363E+01  0.25300222523E+02  0.35920392856E+02  0.10570000000E+00 0.  1.
         13    1    3    3    0    0 -0.24672596913E+02 -0.64362374363E+01 -0.11534581142E+03  0.11813056156E+03  0.10570000000E+00 0. -1.
<mgrwt>
<rscale>  0 0.12499395E+03</rscale>
<asrwt>0</asrwt>
<pdfrwt beam="2">  1        4 0.18776657E-01 0.12499395E+03</pdfrwt>
<pdfrwt beam="1">  1       -4 0.49234897E-02 0.12499395E+03</pdfrwt>
<totfact> 0.98515528E+03</totfact>
</mgrwt>
</event>
<event>
 5    1  0.1685506E-006  0.1249982E+03  0.7818608E-02  0.1235072E+00
          4   -1    0    0  501    0  0.00000000000E+00  0.00000000000E+00  0.61826049387E+03  0.61826212457E+03  0.14200000000E+01 0. -1.
         -4   -1    0    0    0  501 -0.00000000000E+00 -0.00000000000E+00 -0.62364985863E+01  0.63961171516E+01  0.14200000000E+01 0.  1.
         25    2    1    2    0    0  0.00000000000E+00  0.00000000000E+00  0.61202399528E+03  0.62465824172E+03  0.12499819259E+03 0.  0.
        -13    1    3    3    0    0  0.29292576621E+02 -0.54880672108E+02  0.33607199379E+03  0.34178112792E+03  0.10570000000E+00 0.  1.
         13    1    3    3    0    0 -0.29292576621E+02  0.54880672108E+02  0.27595200149E+03  0.28287711380E+03  0.10570000000E+00 0. -1.
<mgrwt>
<rscale>  0 0.12499819E+03</rscale>
<asrwt>0</asrwt>
<pdfrwt beam="1">  1        4 0.95129395E-01 0.12499819E+03</pdfrwt>
<pdfrwt beam="2">  1       -4 0.97186519E-03 0.12499819E+03</pdfrwt>
<totfact> 0.47349086E+03</totfact>
</mgrwt>
</event>
<event>
 5    1  0.1685506E-006  0.1249982E+03  0.7818608E-02  0.1235072E+00
          4   -1    0    0  501    0  0.00000000000E+00  0.00000000000E+00  0.11469767311E+03  0.11470646284E+03  0.14200000000E+01 0.  1.
         -4   -1    0    0    0  501 -0.00000000000E+00 -0.00000000000E+00 -0.34031031241E+02  0.34060644259E+02  0.14200000000E+01 0. -1.
         25    2    1    2    0    0  0.00000000000E+00  0.00000000000E+00  0.80666641871E+02  0.14876710710E+03  0.12499818016E+03 0.  0.
        -13    1    3    3    0    0 -0.21838780257E+01  0.61185509088E+02  0.25388033855E+02  0.66279704896E+02  0.10570000000E+00 0. -1.
         13    1    3    3    0    0  0.21838780257E+01 -0.61185509088E+02  0.55278608016E+02  0.82487402204E+02  0.10570000000E+00 0.  1.
<mgrwt>
<rscale>  0 0.12499818E+03</rscale>
<asrwt>0</asrwt>
<pdfrwt beam="1">  1        4 0.17648750E-01 0.12499818E+03</pdfrwt>
<pdfrwt beam="2">  1       -4 0.52384973E-02 0.12499818E+03</pdfrwt>
<totfact> 0.99554104E+03</totfact>
</mgrwt>
</event>
<event>
 5    1  0.1685506E-006  0.1250011E+03  0.7818608E-02  0.1235068E+00
         -4   -1    0    0    0  501 -0.00000000000E+00  0.00000000000E+00  0.29111884179E+03  0.29112230496E+03  0.14200000000E+01 0.  1.
          4   -1    0    0  501    0  0.00000000000E+00 -0.00000000000E+00 -0.13377176542E+02  0.13452332594E+02  0.14200000000E+01 0. -1.
         25    2    1    2    0    0  0.00000000000E+00  0.00000000000E+00  0.27774166525E+03  0.30457463755E+03  0.12500110890E+03 0.  0.
        -13    1    3    3    0    0  0.38942594629E+02  0.42302910623E+02  0.19856674357E+03  0.20672403041E+03  0.10570000000E+00 0.  1.
         13    1    3    3    0    0 -0.38942594629E+02 -0.42302910623E+02  0.79174921675E+02  0.97850607143E+02  0.10570000000E+00 0. -1.
<mgrwt>
<rscale>  0 0.12500111E+03</rscale>
<asrwt>0</asrwt>
<pdfrwt beam="2">  1        4 0.20640750E-02 0.12500111E+03</pdfrwt>
<pdfrwt beam="1">  1       -4 0.44793556E-01 0.12500111E+03</pdfrwt>
<totfact> 0.75026721E+03</totfact>
</mgrwt>
</event>
<event>
 5    1  0.1685506E-006  0.1250010E+03  0.7818608E-02  0.1235068E+00
          4   -1    0    0  501    0  0.00000000000E+00  0.00000000000E+00  0.48221812739E+02  0.48242715759E+02  0.14200000000E+01 0.  1.
         -4   -1    0    0    0  501 -0.00000000000E+00 -0.00000000000E+00 -0.80962450474E+02  0.80974902203E+02  0.14200000000E+01 0. -1.
         25    2    1    2    0    0  0.00000000000E+00  0.00000000000E+00 -0.32740637736E+02  0.12921761796E+03  0.12500097373E+03 0.  0.
        -13    1    3    3    0    0 -0.57364976122E+02  0.16262274762E+02  0.29993536127E+01  0.59700999661E+02  0.10570000000E+00 0. -1.
         13    1    3    3    0    0  0.57364976122E+02 -0.16262274762E+02 -0.35739991348E+02  0.69516618301E+02  0.10570000000E+00 0.  1.
<mgrwt>
<rscale>  0 0.12500097E+03</rscale>
<asrwt>0</asrwt>
<pdfrwt beam="1">  1        4 0.74213062E-02 0.12500097E+03</pdfrwt>
<pdfrwt beam="2">  1       -4 0.12458327E-01 0.12500097E+03</pdfrwt>
<totfact> 0.10361045E+04</totfact>
</mgrwt>
</event>
<event>
 5    1  0.1685506E-006  0.1250001E+03  0.7818608E-02  0.1235069E+00
         -4   -1    0    0    0  501 -0.00000000000E+00  0.00000000000E+00  0.15601446278E+03  0.15602092486E+03  0.14200000000E+01 0.  1.
          4   -1    0    0  501    0  0.00000000000E+00 -0.00000000000E+00 -0.25010676314E+02  0.25050954666E+02  0.14200000000E+01 0.  1.
         25    2    1    2    0    0  0.00000000000E+00  0.00000000000E+00  0.13100378646E+03  0.18107187953E+03  0.12500013396E+03 0.  0.
        -13    1    3    3    0    0 -0.64022330714E+01 -0.57464728467E+02  0.99875037043E+02  0.11540458311E+03  0.10570000000E+00 0. -1.
         13    1    3    3    0    0  0.64022330714E+01  0.57464728467E+02  0.31128749417E+02  0.65667296418E+02  0.10570000000E+00 0. -1.
<mgrwt>
<rscale>  0 0.12500013E+03</rscale>
<asrwt>0</asrwt>
<pdfrwt beam="2">  1        4 0.38513918E-02 0.12500013E+03</pdfrwt>
<pdfrwt beam="1">  1       -4 0.24005820E-01 0.12500013E+03</pdfrwt>
<totfact> 0.93424136E+03</totfact>
</mgrwt>
</event>
<event>
 5    1  0.1685506E-006  0.1250001E+03  0.7818608E-02  0.1235069E+00
          4   -1    0    0  501    0  0.00000000000E+00  0.00000000000E+00  0.17375061499E+02  0.17432990624E+02  0.14200000000E+01 0.  1.
         -4   -1    0    0    0  501 -0.00000000000E+00 -0.00000000000E+00 -0.22438540851E+03  0.22438990162E+03  0.14200000000E+01 0.  1.
         25    2    1    2    0    0  0.00000000000E+00  0.00000000000E+00 -0.20701034701E+03  0.24182289225E+03  0.12500010979E+03 0.  0.
        -13    1    3    3    0    0 -0.53853535435E+01 -0.56091264533E+02 -0.15581096456E+03  0.16568735570E+03  0.10570000000E+00 0.  1.
         13    1    3    3    0    0  0.53853535435E+01  0.56091264533E+02 -0.51199382452E+02  0.76135536550E+02  0.10570000000E+00 0.  1.
<mgrwt>
<rscale>  0 0.12500011E+03</rscale>
<asrwt>0</asrwt>
<pdfrwt beam="1">  1        4 0.26778883E-02 0.12500011E+03</pdfrwt>
<pdfrwt beam="2">  1       -4 0.34525632E-01 0.12500011E+03</pdfrwt>
<totfact> 0.83526423E+03</totfact>
</mgrwt>
</event>
<event>
 5    1  0.1685506E-006  0.1250113E+03  0.7818608E-02  0.1235052E+00
          4   -1    0    0  501    0  0.00000000000E+00  0.00000000000E+00  0.10360270752E+03  0.10361243847E+03  0.14200000000E+01 0. -1.
         -4   -1    0    0    0  501 -0.00000000000E+00 -0.00000000000E+00 -0.37686078738E+02  0.37712821834E+02  0.14200000000E+01 0.  1.
         25    2    1    2    0    0  0.00000000000E+00  0.00000000000E+00  0.65916628779E+02  0.14132526030E+03  0.12501130849E+03 0.  0.
        -13    1    3    3    0    0 -0.50983745917E+02 -0.35436871164E+02  0.24819386696E+02  0.66866488722E+02  0.10570000000E+00 0.  1.
         13    1    3    3    0    0  0.50983745917E+02  0.35436871164E+02  0.41097242084E+02  0.74458771578E+02  0.10570000000E+00 0. -1.
<mgrwt>
<rscale>  0 0.12501131E+03</rscale>
<asrwt>0</asrwt>
<pdfrwt beam="1">  1        4 0.15941684E-01 0.12501131E+03</pdfrwt>
<pdfrwt beam="2">  1       -4 0.58006640E-02 0.12501131E+03</pdfrwt>
<totfact> 0.10103619E+04</totfact>
</mgrwt>
</event>
<event>
 5    1  0.1685506E-006  0.1249964E+03  0.7818608E-02  0.1235075E+00
          4   -1    0    0  501    0  0.00000000000E+00  0.00000000000E+00  0.11137233967E+02  0.11227394196E+02  0.14200000000E+01 0. -1.
         -4   -1    0    0    0  501 -0.00000000000E+00 -0.00000000000E+00 -0.34921207393E+03  0.34921496099E+03  0.14200000000E+01 0.  1.
         25    2    1    2    0    0  0.00000000000E+00  0.00000000000E+00 -0.33807483996E+03  0.36044235518E+03  0.12499637593E+03 0.  0.
        -13    1    3    3    0    0  0.47364349401E+02 -0.28716410004E+02 -0.25251311146E+03  0.25851672370E+03  0.10570000000E+00 0.  1.
         13    1    3    3    0    0 -0.47364349401E+02  0.28716410004E+02 -0.85561728499E+02  0.10192563149E+03  0.10570000000E+00 0. -1.
<mgrwt>
<rscale>  0 0.12499638E+03</rscale>
<asrwt>0</asrwt>
<pdfrwt beam="1">  1        4 0.17205784E-02 0.12499638E+03</pdfrwt>
<pdfrwt beam="2">  1       -4 0.53732084E-01 0.12499638E+03</pdfrwt>
<totfact> 0.68596345E+03</totfact>
</mgrwt>
</event>
<event>
 5    1  0.1685506E-006  0.1250065E+03  0.7818608E-02  0.1235059E+00
          4   -1    0    0  501    0  0.00000000000E+00  0.00000000000E+00  0.21502136486E+03  0.21502605365E+03  0.14200000000E+01 0.  1.
         -4   -1    0    0    0  501 -0.00000000000E+00 -0.00000000000E+00 -0.18136059193E+02  0.18191565162E+02  0.14200000000E+01 0. -1.
         25    2    1    2    0    0  0.00000000000E+00  0.00000000000E+00  0.19688530567E+03  0.23321761881E+03  0.12500653637E+03 0.  0.
        -13    1    3    3    0    0  0.33853645428E+02 -0.24674730194E+02  0.11901415218E+02  0.43549586400E+02  0.10570000000E+00 0. -1.
         13    1    3    3    0    0 -0.33853645428E+02  0.24674730194E+02  0.18498389045E+03  0.18966803241E+03  0.10570000000E+00 0.  1.
<mgrwt>
<rscale>  0 0.12500654E+03</rscale>
<asrwt>0</asrwt>
<pdfrwt beam="1">  1        4 0.33084839E-01 0.12500654E+03</pdfrwt>
<pdfrwt beam="2">  1       -4 0.27947934E-02 0.12500654E+03</pdfrwt>
<totfact> 0.84805600E+03</totfact>
</mgrwt>
</event>
<event>
 5    1  0.1685506E-006  0.1250001E+03  0.7818608E-02  0.1235069E+00
          4   -1    0    0  501    0  0.00000000000E+00  0.00000000000E+00  0.47401092427E+02  0.47422357209E+02  0.14200000000E+01 0.  1.
         -4   -1    0    0    0  501 -0.00000000000E+00 -0.00000000000E+00 -0.82362689987E+02  0.82374930057E+02  0.14200000000E+01 0. -1.
         25    2    1    2    0    0  0.00000000000E+00  0.00000000000E+00 -0.34961597561E+02  0.12979728727E+03  0.12500008991E+03 0.  0.
        -13    1    3    3    0    0 -0.40680571730E+02  0.21463290256E+02 -0.61421014466E+02  0.76734177101E+02  0.10570000000E+00 0. -1.
         13    1    3    3    0    0  0.40680571730E+02 -0.21463290256E+02  0.26459416905E+02  0.53063110165E+02  0.10570000000E+00 0.  1.
<mgrwt>
<rscale>  0 0.12500009E+03</rscale>
<asrwt>0</asrwt>
<pdfrwt beam="1">  1        4 0.72950531E-02 0.12500009E+03</pdfrwt>
<pdfrwt beam="2">  1       -4 0.12673760E-01 0.12500009E+03</pdfrwt>
<totfact> 0.10348825E+04</totfact>
</mgrwt>
</event>
<event>
 5    1  0.1685506E-006  0.1250012E+03  0.7818608E-02  0.1235067E+00
          4   -1    0    0  501    0  0.00000000000E+00  0.00000000000E+00  0.11211368264E+03  0.11212267493E+03  0.14200000000E+01 0. -1.
         -4   -1    0    0    0  501 -0.00000000000E+00 -0.00000000000E+00 -0.34817672288E+02  0.34846616817E+02  0.14200000000E+01 0.  1.
         25    2    1    2    0    0  0.00000000000E+00  0.00000000000E+00  0.77296010349E+02  0.14696929175E+03  0.12500119800E+03 0.  0.
        -13    1    3    3    0    0  0.24467098172E+02 -0.57368351401E+02  0.33865307314E+02  0.70969266922E+02  0.10570000000E+00 0.  1.
         13    1    3    3    0    0 -0.24467098172E+02  0.57368351401E+02  0.43430703035E+02  0.76000024829E+02  0.10570000000E+00 0. -1.
<mgrwt>
<rscale>  0 0.12500120E+03</rscale>
<asrwt>0</asrwt>
<pdfrwt beam="1">  1        4 0.17251177E-01 0.12500120E+03</pdfrwt>
<pdfrwt beam="2">  1       -4 0.53594832E-02 0.12500120E+03</pdfrwt>
<totfact> 0.99908597E+03</totfact>
</mgrwt>
</event>
<event>
 5    1  0.1685506E-006  0.1249958E+03  0.7818608E-02  0.1235076E+00
         -4   -1    0    0    0  501 -0.00000000000E+00  0.00000000000E+00  0.10278182706E+03  0.10279163572E+03  0.14200000000E+01 0.  1.
          4   -1    0    0  501    0  0.00000000000E+00 -0.00000000000E+00 -0.37977830620E+02  0.38004368415E+02  0.14200000000E+01 0. -1.
         25    2    1    2    0    0  0.00000000000E+00  0.00000000000E+00  0.64803996444E+02  0.14079600414E+03  0.12499582724E+03 0.  0.
        -13    1    3    3    0    0 -0.52556138875E+02  0.33540179473E+02  0.37297220456E+02  0.72651119735E+02  0.10570000000E+00 0.  1.
         13    1    3    3    0    0  0.52556138875E+02 -0.33540179473E+02  0.27506775988E+02  0.68144884403E+02  0.10570000000E+00 0. -1.
<mgrwt>
<rscale>  0 0.12499583E+03</rscale>
<asrwt>0</asrwt>
<pdfrwt beam="2">  1        4 0.58455391E-02 0.12499583E+03</pdfrwt>
<pdfrwt beam="1">  1       -4 0.15815384E-01 0.12499583E+03</pdfrwt>
<totfact> 0.10118066E+04</totfact>
</mgrwt>
</event>
<event>
 5    1  0.1685506E-006  0.1250064E+03  0.7818608E-02  0.1235059E+00
         -4   -1    0    0    0  501 -0.00000000000E+00  0.00000000000E+00  0.62763428907E+02  0.62779490346E+02  0.14200000000E+01 0.  1.
          4   -1    0    0  501    0  0.00000000000E+00 -0.00000000000E+00 -0.62211948196E+02  0.62228151976E+02  0.14200000000E+01 0. -1.
         25    2    1    2    0    0  0.00000000000E+00  0.00000000000E+00  0.55148071086E+00  0.12500764232E+03  0.12500642587E+03 0.  0.
        -13    1    3    3    0    0 -0.27583201821E+02  0.30910285110E+02  0.47077496048E+02  0.62710290662E+02  0.10570000000E+00 0.  1.
         13    1    3    3    0    0  0.27583201821E+02 -0.30910285110E+02 -0.46526015337E+02  0.62297351660E+02  0.10570000000E+00 0. -1.
<mgrwt>
<rscale>  0 0.12500643E+03</rscale>
<asrwt>0</asrwt>
<pdfrwt beam="2">  1        4 0.95735509E-02 0.12500643E+03</pdfrwt>
<pdfrwt beam="1">  1       -4 0.96583941E-02 0.12500643E+03</pdfrwt>
<totfact> 0.10451179E+04</totfact>
</mgrwt>
</event>
<event>
 5    1  0.1685506E-006  0.1249991E+03  0.7818608E-02  0.1235071E+00
          4   -1    0    0  501    0  0.00000000000E+00  0.00000000000E+00  0.65586945576E+02  0.65602315736E+02  0.14200000000E+01 0.  1.
         -4   -1    0    0    0  501 -0.00000000000E+00 -0.00000000000E+00 -0.59526705302E+02  0.59543639829E+02  0.14200000000E+01 0.  1.
         25    2    1    2    0    0  0.00000000000E+00  0.00000000000E+00  0.60602402744E+01  0.12514595557E+03  0.12499913473E+03 0.  0.
        -13    1    3    3    0    0  0.10644289923E+02 -0.40910620457E+02  0.49119014974E+02  0.64804849963E+02  0.10570000000E+00 0. -1.
         13    1    3    3    0    0 -0.10644289923E+02  0.40910620457E+02 -0.43058774700E+02  0.60341105602E+02  0.10570000000E+00 0. -1.
<mgrwt>
<rscale>  0 0.12499913E+03</rscale>
<asrwt>0</asrwt>
<pdfrwt beam="1">  1        4 0.10092784E-01 0.12499913E+03</pdfrwt>
<pdfrwt beam="2">  1       -4 0.91604396E-02 0.12499913E+03</pdfrwt>
<totfact> 0.10449898E+04</totfact>
</mgrwt>
</event>
<event>
 5    1  0.1685506E-006  0.1249985E+03  0.7818608E-02  0.1235072E+00
         -4   -1    0    0    0  501 -0.00000000000E+00  0.00000000000E+00  0.10491959872E+03  0.10492920754E+03  0.14200000000E+01 0.  1.
          4   -1    0    0  501    0  0.00000000000E+00 -0.00000000000E+00 -0.37205108439E+02  0.37232197007E+02  0.14200000000E+01 0. -1.
         25    2    1    2    0    0  0.00000000000E+00  0.00000000000E+00  0.67714490282E+02  0.14216140455E+03  0.12499845099E+03 0.  0.
        -13    1    3    3    0    0  0.26256837298E+01 -0.43982976290E+02  0.84268816692E+02  0.95092802343E+02  0.10570000000E+00 0.  1.
         13    1    3    3    0    0 -0.26256837298E+01  0.43982976290E+02 -0.16554326410E+02  0.47068602208E+02  0.10570000000E+00 0. -1.
<mgrwt>
<rscale>  0 0.12499845E+03</rscale>
<asrwt>0</asrwt>
<pdfrwt beam="2">  1        4 0.57266859E-02 0.12499845E+03</pdfrwt>
<pdfrwt beam="1">  1       -4 0.16144299E-01 0.12499845E+03</pdfrwt>
<totfact> 0.10089336E+04</totfact>
</mgrwt>
</event>
<event>
 5    1  0.1685506E-006  0.1250028E+03  0.7818608E-02  0.1235065E+00
         -4   -1    0    0    0  501 -0.00000000000E+00  0.00000000000E+00  0.19211139560E+02  0.19263548043E+02  0.14200000000E+01 0.  1.
          4   -1    0    0  501    0  0.00000000000E+00 -0.00000000000E+00 -0.20300986890E+03  0.20301483510E+03  0.14200000000E+01 0. -1.
         25    2    1    2    0    0  0.00000000000E+00  0.00000000000E+00 -0.18379872934E+03  0.22227838315E+03  0.12500282679E+03 0.  0.
        -13    1    3    3    0    0 -0.58279230940E+02 -0.53513066477E+01 -0.52888106633E+02  0.78881355449E+02  0.10570000000E+00 0.  1.
         13    1    3    3    0    0  0.58279230940E+02  0.53513066477E+01 -0.13091062271E+03  0.14339702770E+03  0.10570000000E+00 0. -1.
<mgrwt>
<rscale>  0 0.12500283E+03</rscale>
<asrwt>0</asrwt>
<pdfrwt beam="2">  1        4 0.31236699E-01 0.12500283E+03</pdfrwt>
<pdfrwt beam="1">  1       -4 0.29599735E-02 0.12500283E+03</pdfrwt>
<totfact> 0.86503644E+03</totfact>
</mgrwt>
</event>
<event>
 5    1  0.1685506E-006  0.1250007E+03  0.7818608E-02  0.1235068E+00
         -4   -1    0    0    0  501 -0.00000000000E+00  0.00000000000E+00  0.64060718913E+02  0.64076455174E+02  0.14200000000E+01 0.  1.
          4   -1    0    0  501    0  0.00000000000E+00 -0.00000000000E+00 -0.60946539987E+02  0.60963080109E+02  0.14200000000E+01 0.  1.
         25    2    1    2    0    0  0.00000000000E+00  0.00000000000E+00  0.31141789261E+01  0.12503953528E+03  0.12500074909E+03 0.  0.
        -13    1    3    3    0    0  0.16753117753E+02 -0.57377147524E+02 -0.16710056345E+02  0.62064814251E+02  0.10570000000E+00 0. -1.
         13    1    3    3    0    0 -0.16753117753E+02  0.57377147524E+02  0.19824235271E+02  0.62974721032E+02  0.10570000000E+00 0. -1.
<mgrwt>
<rscale>  0 0.12500075E+03</rscale>
<asrwt>0</asrwt>
<pdfrwt beam="2">  1        4 0.93788736E-02 0.12500075E+03</pdfrwt>
<pdfrwt beam="1">  1       -4 0.98579780E-02 0.12500075E+03</pdfrwt>
<totfact> 0.10451827E+04</totfact>
</mgrwt>
</event>
<event>
 5    1  0.1685506E-006  0.1250012E+03  0.7818608E-02  0.1235067E+00
         -4   -1    0    0    0  501 -0.00000000000E+00  0.00000000000E+00  0.89857208886E+01  0.90972292423E+01  0.14200000000E+01 0. -1.
          4   -1    0    0  501    0  0.00000000000E+00 -0.00000000000E+00 -0.43193237528E+03  0.43193470944E+03  0.14200000000E+01 0.  1.
         25    2    1    2    0    0  0.00000000000E+00  0.00000000000E+00 -0.42294665439E+03  0.44103193868E+03  0.12500119389E+03 0.  0.
        -13    1    3    3    0    0  0.59782132970E+02 -0.18094429111E+02 -0.20358267502E+03  0.21294888712E+03  0.10570000000E+00 0. -1.
         13    1    3    3    0    0 -0.59782132970E+02  0.18094429111E+02 -0.21936397938E+03  0.22808305156E+03  0.10570000000E+00 0.  1.
<mgrwt>
<rscale>  0 0.12500119E+03</rscale>
<asrwt>0</asrwt>
<pdfrwt beam="2">  1        4 0.66459876E-01 0.12500119E+03</pdfrwt>
<pdfrwt beam="1">  1       -4 0.13911760E-02 0.12500119E+03</pdfrwt>
<totfact> 0.60746995E+03</totfact>
</mgrwt>
</event>
<event>
 5    1  0.1685506E-006  0.1250002E+03  0.7818608E-02  0.1235069E+00
          4   -1    0    0  501    0  0.00000000000E+00  0.00000000000E+00  0.17936641904E+02  0.17992763067E+02  0.14200000000E+01 0. -1.
         -4   -1    0    0    0  501 -0.00000000000E+00 -0.00000000000E+00 -0.21738264627E+03  0.21738728413E+03  0.14200000000E+01 0.  1.
         25    2    1    2    0    0  0.00000000000E+00  0.00000000000E+00 -0.19944600437E+03  0.23538004719E+03  0.12500023184E+03 0.  0.
        -13    1    3    3    0    0  0.32523276457E+02  0.43563423979E+02 -0.15778402228E+03  0.16688722024E+03  0.10570000000E+00 0.  1.
         13    1    3    3    0    0 -0.32523276457E+02 -0.43563423979E+02 -0.41661982090E+02  0.68492826956E+02  0.10570000000E+00 0. -1.
<mgrwt>
<rscale>  0 0.12500023E+03</rscale>
<asrwt>0</asrwt>
<pdfrwt beam="1">  1        4 0.27641573E-02 0.12500023E+03</pdfrwt>
<pdfrwt beam="2">  1       -4 0.33448156E-01 0.12500023E+03</pdfrwt>
<totfact> 0.84489838E+03</totfact>
</mgrwt>
</event>
<event>
 5    1  0.1685506E-006  0.1250001E+03  0.7818608E-02  0.1235069E+00
          4   -1    0    0  501    0  0.00000000000E+00  0.00000000000E+00  0.19387624992E+02  0.19439557681E+02  0.14200000000E+01 0. -1.
         -4   -1    0    0    0  501 -0.00000000000E+00 -0.00000000000E+00 -0.20115813553E+03  0.20116314744E+03  0.14200000000E+01 0.  1.
         25    2    1    2    0    0  0.00000000000E+00  0.00000000000E+00 -0.18177051054E+03  0.22060270512E+03  0.12500014003E+03 0.  0.
        -13    1    3    3    0    0 -0.12563245911E+00  0.42697366686E+02 -0.17143466156E+03  0.17667182929E+03  0.10570000000E+00 0.  1.
         13    1    3    3    0    0  0.12563245911E+00 -0.42697366686E+02 -0.10335848973E+02  0.43930875838E+02  0.10570000000E+00 0. -1.
<mgrwt>
<rscale>  0 0.12500014E+03</rscale>
<asrwt>0</asrwt>
<pdfrwt beam="1">  1        4 0.29870920E-02 0.12500014E+03</pdfrwt>
<pdfrwt beam="2">  1       -4 0.30951784E-01 0.12500014E+03</pdfrwt>
<totfact> 0.86772798E+03</totfact>
</mgrwt>
</event>
<event>
 5    1  0.1685506E-006  0.1250015E+03  0.7818608E-02  0.1235067E+00
         -4   -1    0    0    0  501 -0.00000000000E+00  0.00000000000E+00  0.10082439944E+03  0.10083439851E+03  0.14200000000E+01 0.  1.
          4   -1    0    0  501    0  0.00000000000E+00 -0.00000000000E+00 -0.38719070664E+02  0.38745100762E+02  0.14200000000E+01 0.  1.
         25    2    1    2    0    0  0.00000000000E+00  0.00000000000E+00  0.62105328777E+02  0.13957949927E+03  0.12500145901E+03 0.  0.
        -13    1    3    3    0    0 -0.11467074878E+01 -0.58416547268E+02  0.62716312875E+01  0.58763530053E+02  0.10570000000E+00 0.  1.
         13    1    3    3    0    0  0.11467074878E+01  0.58416547268E+02  0.55833697490E+02  0.80815969218E+02  0.10570000000E+00 0.  1.
<mgrwt>
<rscale>  0 0.12500146E+03</rscale>
<asrwt>0</asrwt>
<pdfrwt beam="2">  1        4 0.59595517E-02 0.12500146E+03</pdfrwt>
<pdfrwt beam="1">  1       -4 0.15514217E-01 0.12500146E+03</pdfrwt>
<totfact> 0.10141975E+04</totfact>
</mgrwt>
</event>
<event>
 5    1  0.1685506E-006  0.1250010E+03  0.7818608E-02  0.1235068E+00
         -4   -1    0    0    0  501 -0.00000000000E+00  0.00000000000E+00  0.73977510221E+02  0.73991137432E+02  0.14200000000E+01 0.  1.
          4   -1    0    0  501    0  0.00000000000E+00 -0.00000000000E+00 -0.52775994311E+02  0.52795094237E+02  0.14200000000E+01 0. -1.
         25    2    1    2    0    0  0.00000000000E+00  0.00000000000E+00  0.21201515910E+02  0.12678623167E+03  0.12500097705E+03 0.  0.
        -13    1    3    3    0    0  0.56999010309E+01 -0.20726198766E+02  0.70126541217E+02  0.73347168607E+02  0.10570000000E+00 0.  1.
         13    1    3    3    0    0 -0.56999010309E+01  0.20726198766E+02 -0.48925025308E+02  0.53439063062E+02  0.10570000000E+00 0. -1.
<mgrwt>
<rscale>  0 0.12500098E+03</rscale>
<asrwt>0</asrwt>
<pdfrwt beam="2">  1        4 0.81219013E-02 0.12500098E+03</pdfrwt>
<pdfrwt beam="1">  1       -4 0.11383673E-01 0.12500098E+03</pdfrwt>
<totfact> 0.10413564E+04</totfact>
</mgrwt>
</event>
<event>
 5    1  0.1685506E-006  0.1249950E+03  0.7818608E-02  0.1235077E+00
          4   -1    0    0  501    0  0.00000000000E+00  0.00000000000E+00  0.21092306285E+02  0.21140051666E+02  0.14200000000E+01 0. -1.
         -4   -1    0    0    0  501 -0.00000000000E+00 -0.00000000000E+00 -0.18492321472E+03  0.18492866664E+03  0.14200000000E+01 0.  1.
         25    2    1    2    0    0  0.00000000000E+00  0.00000000000E+00 -0.16383090844E+03  0.20606871830E+03  0.12499500031E+03 0.  0.
        -13    1    3    3    0    0 -0.33576479117E+02  0.17164528493E+02 -0.16408080224E+03  0.16835831380E+03  0.10570000000E+00 0.  1.
         13    1    3    3    0    0  0.33576479117E+02 -0.17164528493E+02  0.24989380478E+00  0.37710404502E+02  0.10570000000E+00 0. -1.
<mgrwt>
<rscale>  0 0.12499500E+03</rscale>
<asrwt>0</asrwt>
<pdfrwt beam="1">  1        4 0.32490624E-02 0.12499500E+03</pdfrwt>
<pdfrwt beam="2">  1       -4 0.28453816E-01 0.12499500E+03</pdfrwt>
<totfact> 0.89131929E+03</totfact>
</mgrwt>
</event>
<event>
 5    1  0.1685506E-006  0.1250001E+03  0.7818608E-02  0.1235069E+00
          4   -1    0    0  501    0  0.00000000000E+00  0.00000000000E+00  0.18414228789E+03  0.18414776292E+03  0.14200000000E+01 0.  1.
         -4   -1    0    0    0  501 -0.00000000000E+00 -0.00000000000E+00 -0.21183690509E+02  0.21231230383E+02  0.14200000000E+01 0. -1.
         25    2    1    2    0    0  0.00000000000E+00  0.00000000000E+00  0.16295859738E+03  0.20537899330E+03  0.12500010572E+03 0.  0.
        -13    1    3    3    0    0  0.30245346927E+01 -0.46768868919E+02  0.13541017777E+02  0.48783657561E+02  0.10570000000E+00 0. -1.
         13    1    3    3    0    0 -0.30245346927E+01  0.46768868919E+02  0.14941757960E+03  0.15659533574E+03  0.10570000000E+00 0.  1.
<mgrwt>
<rscale>  0 0.12500011E+03</rscale>
<asrwt>0</asrwt>
<pdfrwt beam="1">  1        4 0.28333661E-01 0.12500011E+03</pdfrwt>
<pdfrwt beam="2">  1       -4 0.32631074E-02 0.12500011E+03</pdfrwt>
<totfact> 0.89235945E+03</totfact>
</mgrwt>
</event>
<event>
 5    1  0.1685506E-006  0.1249986E+03  0.7818608E-02  0.1235072E+00
         -4   -1    0    0    0  501 -0.00000000000E+00  0.00000000000E+00  0.45243366005E+02  0.45265644450E+02  0.14200000000E+01 0.  1.
          4   -1    0    0  501    0  0.00000000000E+00 -0.00000000000E+00 -0.86287258167E+02  0.86298941604E+02  0.14200000000E+01 0.  1.
         25    2    1    2    0    0  0.00000000000E+00  0.00000000000E+00 -0.41043892162E+02  0.13156458605E+03  0.12499855687E+03 0.  0.
        -13    1    3    3    0    0  0.36030457721E+02 -0.50924948789E+02 -0.16499641373E+02  0.64527464158E+02  0.10570000000E+00 0. -1.
         13    1    3    3    0    0 -0.36030457721E+02  0.50924948789E+02 -0.24544250789E+02  0.67037121896E+02  0.10570000000E+00 0. -1.
<mgrwt>
<rscale>  0 0.12499856E+03</rscale>
<asrwt>0</asrwt>
<pdfrwt beam="2">  1        4 0.13277575E-01 0.12499856E+03</pdfrwt>
<pdfrwt beam="1">  1       -4 0.69631303E-02 0.12499856E+03</pdfrwt>
<totfact> 0.10311336E+04</totfact>
</mgrwt>
</event>
<event>
 5    1  0.1685506E-006  0.1250003E+03  0.7818608E-02  0.1235069E+00
          4   -1    0    0  501    0  0.00000000000E+00  0.00000000000E+00  0.16533686575E+03  0.16534296349E+03  0.14200000000E+01 0. -1.
         -4   -1    0    0    0  501 -0.00000000000E+00 -0.00000000000E+00 -0.23598257388E+02  0.23640942277E+02  0.14200000000E+01 0.  1.
         25    2    1    2    0    0  0.00000000000E+00  0.00000000000E+00  0.14173860836E+03  0.18898390577E+03  0.12500033416E+03 0.  0.
        -13    1    3    3    0    0  0.57064338882E+02  0.16129043651E+02  0.10071767118E+03  0.11687833538E+03  0.10570000000E+00 0.  1.
         13    1    3    3    0    0 -0.57064338882E+02 -0.16129043651E+02  0.41020937182E+02  0.72105570387E+02  0.10570000000E+00 0. -1.
<mgrwt>
<rscale>  0 0.12500033E+03</rscale>
<asrwt>0</asrwt>
<pdfrwt beam="1">  1        4 0.25440193E-01 0.12500033E+03</pdfrwt>
<pdfrwt beam="2">  1       -4 0.36342537E-02 0.12500033E+03</pdfrwt>
<totfact> 0.92023724E+03</totfact>
</mgrwt>
</event>
<event>
 5    1  0.1685506E-006  0.1250008E+03  0.7818608E-02  0.1235068E+00
          4   -1    0    0  501    0  0.00000000000E+00  0.00000000000E+00  0.58508803236E+02  0.58526032294E+02  0.14200000000E+01 0. -1.
         -4   -1    0    0    0  501 -0.00000000000E+00 -0.00000000000E+00 -0.66729714122E+02  0.66744821124E+02  0.14200000000E+01 0.  1.
         25    2    1    2    0    0  0.00000000000E+00  0.00000000000E+00 -0.82209108865E+01  0.12527085342E+03  0.12500081336E+03 0.  0.
        -13    1    3    3    0    0  0.44285509750E+02 -0.43031916283E+02 -0.13792458357E+02  0.63270809010E+02  0.10570000000E+00 0.  1.
         13    1    3    3    0    0 -0.44285509750E+02  0.43031916283E+02  0.55715474704E+01  0.62000044407E+02  0.10570000000E+00 0. -1.
<mgrwt>
<rscale>  0 0.12500081E+03</rscale>
<asrwt>0</asrwt>
<pdfrwt beam="1">  1        4 0.90038417E-02 0.12500081E+03</pdfrwt>
<pdfrwt beam="2">  1       -4 0.10268597E-01 0.12500081E+03</pdfrwt>
<totfact> 0.10446790E+04</totfact>
</mgrwt>
</event>
<event>
 5    1  0.1685506E-006  0.1250007E+03  0.7818608E-02  0.1235068E+00
         -4   -1    0    0    0  501 -0.00000000000E+00  0.00000000000E+00  0.12250596409E+03  0.12251419361E+03  0.14200000000E+01 0. -1.
          4   -1    0    0  501    0  0.00000000000E+00 -0.00000000000E+00 -0.31861425910E+02  0.31893053491E+02  0.14200000000E+01 0.  1.
         25    2    1    2    0    0  0.00000000000E+00  0.00000000000E+00  0.90644538177E+02  0.15440724710E+03  0.12500066263E+03 0.  0.
        -13    1    3    3    0    0 -0.21326172572E+02 -0.53043764435E+02  0.76518999643E+02  0.95517616495E+02  0.10570000000E+00 0. -1.
         13    1    3    3    0    0  0.21326172572E+02  0.53043764435E+02  0.14125538534E+02  0.58889630610E+02  0.10570000000E+00 0.  1.
<mgrwt>
<rscale>  0 0.12500066E+03</rscale>
<asrwt>0</asrwt>
<pdfrwt beam="2">  1        4 0.49048238E-02 0.12500066E+03</pdfrwt>
<pdfrwt beam="1">  1       -4 0.18850137E-01 0.12500066E+03</pdfrwt>
<totfact> 0.98430522E+03</totfact>
</mgrwt>
</event>
<event>
 5    1  0.1685506E-006  0.1250003E+03  0.7818608E-02  0.1235069E+00
          4   -1    0    0  501    0  0.00000000000E+00  0.00000000000E+00  0.26360323564E+02  0.26398542733E+02  0.14200000000E+01 0. -1.
         -4   -1    0    0    0  501 -0.00000000000E+00 -0.00000000000E+00 -0.14803855322E+03  0.14804536345E+03  0.14200000000E+01 0.  1.
         25    2    1    2    0    0  0.00000000000E+00  0.00000000000E+00 -0.12167822965E+03  0.17444390618E+03  0.12500033933E+03 0.  0.
        -13    1    3    3    0    0  0.40250612069E+02  0.72595524436E+01 -0.12679179549E+03  0.13322531084E+03  0.10570000000E+00 0.  1.
         13    1    3    3    0    0 -0.40250612069E+02 -0.72595524436E+01  0.51135658352E+01  0.41218595338E+02  0.10570000000E+00 0. -1.
<mgrwt>
<rscale>  0 0.12500034E+03</rscale>
<asrwt>0</asrwt>
<pdfrwt beam="1">  1        4 0.40588983E-02 0.12500034E+03</pdfrwt>
<pdfrwt beam="2">  1       -4 0.22778625E-01 0.12500034E+03</pdfrwt>
<totfact> 0.94626066E+03</totfact>
</mgrwt>
</event>
<event>
 5    1  0.1685506E-006  0.1250011E+03  0.7818608E-02  0.1235068E+00
          4   -1    0    0  501    0  0.00000000000E+00  0.00000000000E+00  0.24650797005E+02  0.24691662418E+02  0.14200000000E+01 0. -1.
         -4   -1    0    0    0  501 -0.00000000000E+00 -0.00000000000E+00 -0.15829083734E+03  0.15829720650E+03  0.14200000000E+01 0.  1.
         25    2    1    2    0    0  0.00000000000E+00  0.00000000000E+00 -0.13364004033E+03  0.18298886892E+03  0.12500106306E+03 0.  0.
        -13    1    3    3    0    0 -0.54857635188E+02 -0.11396388089E+02 -0.10736412805E+03  0.12110452082E+03  0.10570000000E+00 0.  1.
         13    1    3    3    0    0  0.54857635188E+02  0.11396388089E+02 -0.26275912283E+02  0.61884348091E+02  0.10570000000E+00 0. -1.
<mgrwt>
<rscale>  0 0.12500106E+03</rscale>
<asrwt>0</asrwt>
<pdfrwt beam="1">  1        4 0.37960638E-02 0.12500106E+03</pdfrwt>
<pdfrwt beam="2">  1       -4 0.24356069E-01 0.12500106E+03</pdfrwt>
<totfact> 0.93079529E+03</totfact>
</mgrwt>
</event>
<event>
 5    1  0.1685506E-006  0.1249995E+03  0.7818608E-02  0.1235070E+00
          4   -1    0    0  501    0  0.00000000000E+00  0.00000000000E+00  0.20683647753E+03  0.20684135186E+03  0.14200000000E+01 0. -1.
         -4   -1    0    0    0  501 -0.00000000000E+00 -0.00000000000E+00 -0.18853736015E+02  0.18907135207E+02  0.14200000000E+01 0. -1.
         25    2    1    2    0    0  0.00000000000E+00  0.00000000000E+00  0.18798274152E+03  0.22574848707E+03  0.12499947321E+03 0.  0.
        -13    1    3    3    0    0 -0.22172959241E+02  0.35598851760E+02  0.10303644755E+02  0.43186741435E+02  0.10570000000E+00 0.  1.
         13    1    3    3    0    0  0.22172959241E+02 -0.35598851760E+02  0.17767909676E+03  0.18256174563E+03  0.10570000000E+00 0.  1.
<mgrwt>
<rscale>  0 0.12499947E+03</rscale>
<asrwt>0</asrwt>
<pdfrwt beam="1">  1        4 0.31825481E-01 0.12499947E+03</pdfrwt>
<pdfrwt beam="2">  1       -4 0.29050572E-02 0.12499947E+03</pdfrwt>
<totfact> 0.85967734E+03</totfact>
</mgrwt>
</event>
<event>
 5    1  0.1685506E-006  0.1250071E+03  0.7818608E-02  0.1235058E+00
         -4   -1    0    0    0  501 -0.00000000000E+00  0.00000000000E+00  0.29217102704E+02  0.29251589537E+02  0.14200000000E+01 0.  1.
          4   -1    0    0  501    0  0.00000000000E+00 -0.00000000000E+00 -0.13359538585E+03  0.13360293230E+03  0.14200000000E+01 0. -1.
         25    2    1    2    0    0  0.00000000000E+00  0.00000000000E+00 -0.10437828314E+03  0.16285452184E+03  0.12500707697E+03 0.  0.
        -13    1    3    3    0    0  0.43420472906E+02 -0.44673505495E+02 -0.45594848274E+02  0.77200783171E+02  0.10570000000E+00 0.  1.
         13    1    3    3    0    0 -0.43420472906E+02  0.44673505495E+02 -0.58783434870E+02  0.85653738670E+02  0.10570000000E+00 0. -1.
<mgrwt>
<rscale>  0 0.12500708E+03</rscale>
<asrwt>0</asrwt>
<pdfrwt beam="2">  1        4 0.20556369E-01 0.12500708E+03</pdfrwt>
<pdfrwt beam="1">  1       -4 0.44981723E-02 0.12500708E+03</pdfrwt>
<totfact> 0.96779871E+03</totfact>
</mgrwt>
</event>
<event>
 5    1  0.1685506E-006  0.1250041E+03  0.7818608E-02  0.1235063E+00
         -4   -1    0    0    0  501 -0.00000000000E+00  0.00000000000E+00  0.92627848777E+01  0.93709969422E+01  0.14200000000E+01 0. -1.
          4   -1    0    0  501    0  0.00000000000E+00 -0.00000000000E+00 -0.41918339024E+03  0.41918579538E+03  0.14200000000E+01 0. -1.
         25    2    1    2    0    0  0.00000000000E+00  0.00000000000E+00 -0.40992060536E+03  0.42855679232E+03  0.12500408613E+03 0.  0.
        -13    1    3    3    0    0 -0.52189383839E+02 -0.22878988611E+02 -0.11693035898E+03  0.13007651567E+03  0.10570000000E+00 0. -1.
         13    1    3    3    0    0  0.52189383839E+02  0.22878988611E+02 -0.29299024638E+03  0.29848027665E+03  0.10570000000E+00 0. -1.
<mgrwt>
<rscale>  0 0.12500409E+03</rscale>
<asrwt>0</asrwt>
<pdfrwt beam="2">  1        4 0.64498247E-01 0.12500409E+03</pdfrwt>
<pdfrwt beam="1">  1       -4 0.14335532E-02 0.12500409E+03</pdfrwt>
<totfact> 0.61861460E+03</totfact>
</mgrwt>
</event>
<event>
 5    1  0.1685506E-006  0.1250029E+03  0.7818608E-02  0.1235065E+00
          4   -1    0    0  501    0  0.00000000000E+00  0.00000000000E+00  0.89246523544E+01  0.90369142768E+01  0.14200000000E+01 0. -1.
         -4   -1    0    0    0  501 -0.00000000000E+00 -0.00000000000E+00 -0.43486358493E+03  0.43486590336E+03  0.14200000000E+01 0. -1.
         25    2    1    2    0    0  0.00000000000E+00  0.00000000000E+00 -0.42593893258E+03  0.44390281763E+03  0.12500294883E+03 0.  0.
        -13    1    3    3    0    0  0.78148399697E+01  0.61994080161E+02 -0.20784125719E+03  0.21703072838E+03  0.10570000000E+00 0.  1.
         13    1    3    3    0    0 -0.78148399697E+01 -0.61994080161E+02 -0.21809767539E+03  0.22687208926E+03  0.10570000000E+00 0.  1.
<mgrwt>
<rscale>  0 0.12500295E+03</rscale>
<asrwt>0</asrwt>
<pdfrwt beam="1">  1        4 0.13818376E-02 0.12500295E+03</pdfrwt>
<pdfrwt beam="2">  1       -4 0.66910888E-01 0.12500295E+03</pdfrwt>
<totfact> 0.60491734E+03</totfact>
</mgrwt>
</event>
<event>
 5    1  0.1685506E-006  0.1250033E+03  0.7818608E-02  0.1235064E+00
         -4   -1    0    0    0  501 -0.00000000000E+00  0.00000000000E+00  0.22033511233E+02  0.22079221392E+02  0.14200000000E+01 0.  1.
          4   -1    0    0  501    0  0.00000000000E+00 -0.00000000000E+00 -0.17706379407E+03  0.17706948797E+03  0.14200000000E+01 0. -1.
         25    2    1    2    0    0  0.00000000000E+00  0.00000000000E+00 -0.15503028284E+03  0.19914870936E+03  0.12500327934E+03 0.  0.
        -13    1    3    3    0    0 -0.28175375280E+02 -0.30541230337E+02 -0.31332991206E+01  0.41670700241E+02  0.10570000000E+00 0.  1.
         13    1    3    3    0    0  0.28175375280E+02  0.30541230337E+02 -0.15189698372E+03  0.15747800912E+03  0.10570000000E+00 0. -1.
<mgrwt>
<rscale>  0 0.12500328E+03</rscale>
<asrwt>0</asrwt>
<pdfrwt beam="2">  1        4 0.27244537E-01 0.12500328E+03</pdfrwt>
<pdfrwt beam="1">  1       -4 0.33937252E-02 0.12500328E+03</pdfrwt>
<totfact> 0.90272658E+03</totfact>
</mgrwt>
</event>
<event>
 5    1  0.1685506E-006  0.1249988E+03  0.7818608E-02  0.1235071E+00
          4   -1    0    0  501    0  0.00000000000E+00  0.00000000000E+00  0.14983616688E+03  0.14984289541E+03  0.14200000000E+01 0.  1.
         -4   -1    0    0    0  501 -0.00000000000E+00 -0.00000000000E+00 -0.26043003796E+02  0.26081687958E+02  0.14200000000E+01 0.  1.
         25    2    1    2    0    0  0.00000000000E+00  0.00000000000E+00  0.12379316308E+03  0.17592458337E+03  0.12499884722E+03 0.  0.
        -13    1    3    3    0    0 -0.33437578178E+02 -0.52433824048E+02  0.70662070795E+02  0.94130319028E+02  0.10570000000E+00 0. -1.
         13    1    3    3    0    0  0.33437578178E+02  0.52433824048E+02  0.53131092285E+02  0.81794264338E+02  0.10570000000E+00 0. -1.
<mgrwt>
<rscale>  0 0.12499885E+03</rscale>
<asrwt>0</asrwt>
<pdfrwt beam="1">  1        4 0.23055211E-01 0.12499885E+03</pdfrwt>
<pdfrwt beam="2">  1       -4 0.40101093E-02 0.12499885E+03</pdfrwt>
<totfact> 0.94358217E+03</totfact>
</mgrwt>
</event>
<event>
 5    1  0.1685506E-006  0.1249982E+03  0.7818608E-02  0.1235072E+00
          4   -1    0    0  501    0  0.00000000000E+00  0.00000000000E+00  0.15899068829E+03  0.15899702942E+03  0.14200000000E+01 0. -1.
         -4   -1    0    0    0  501 -0.00000000000E+00 -0.00000000000E+00 -0.24541004588E+02  0.24582052522E+02  0.14200000000E+01 0.  1.
         25    2    1    2    0    0  0.00000000000E+00  0.00000000000E+00  0.13444968371E+03  0.18357908194E+03  0.12499824750E+03 0.  0.
        -13    1    3    3    0    0  0.13415266289E+02 -0.60065038466E+02  0.51247468467E+02  0.80088029145E+02  0.10570000000E+00 0.  1.
         13    1    3    3    0    0 -0.13415266289E+02  0.60065038466E+02  0.83202215239E+02  0.10349105280E+03  0.10570000000E+00 0. -1.
<mgrwt>
<rscale>  0 0.12499825E+03</rscale>
<asrwt>0</asrwt>
<pdfrwt beam="1">  1        4 0.24463751E-01 0.12499825E+03</pdfrwt>
<pdfrwt beam="2">  1       -4 0.37791846E-02 0.12499825E+03</pdfrwt>
<totfact> 0.92980348E+03</totfact>
</mgrwt>
</event>
<event>
 5    1  0.1685506E-006  0.1250013E+03  0.7818608E-02  0.1235067E+00
          4   -1    0    0  501    0  0.00000000000E+00  0.00000000000E+00  0.33240198114E+02  0.33270515034E+02  0.14200000000E+01 0.  1.
         -4   -1    0    0    0  501 -0.00000000000E+00 -0.00000000000E+00 -0.11743012524E+03  0.11743871046E+03  0.14200000000E+01 0. -1.
         25    2    1    2    0    0  0.00000000000E+00  0.00000000000E+00 -0.84189927126E+02  0.15070922549E+03  0.12500130727E+03 0.  0.
        -13    1    3    3    0    0 -0.45505919487E+02 -0.20023792888E+02 -0.87760398637E+02  0.10086446218E+03  0.10570000000E+00 0. -1.
         13    1    3    3    0    0  0.45505919487E+02  0.20023792888E+02  0.35704715109E+01  0.49844763308E+02  0.10570000000E+00 0.  1.
<mgrwt>
<rscale>  0 0.12500131E+03</rscale>
<asrwt>0</asrwt>
<pdfrwt beam="1">  1        4 0.51168692E-02 0.12500131E+03</pdfrwt>
<pdfrwt beam="2">  1       -4 0.18069165E-01 0.12500131E+03</pdfrwt>
<totfact> 0.99159595E+03</totfact>
</mgrwt>
</event>
<event>
 5    1  0.1685506E-006  0.1250000E+03  0.7818608E-02  0.1235069E+00
         -4   -1    0    0    0  501 -0.00000000000E+00  0.00000000000E+00  0.92037661752E+01  0.93126640554E+01  0.14200000000E+01 0.  1.
          4   -1    0    0  501    0  0.00000000000E+00 -0.00000000000E+00 -0.42181222891E+03  0.42181461906E+03  0.14200000000E+01 0. -1.
         25    2    1    2    0    0  0.00000000000E+00  0.00000000000E+00 -0.41260846273E+03  0.43112728312E+03  0.12499996293E+03 0.  0.
        -13    1    3    3    0    0 -0.47765435866E+02 -0.25907339437E+02 -0.99802145204E+02  0.11363629024E+03  0.10570000000E+00 0.  1.
         13    1    3    3    0    0  0.47765435866E+02  0.25907339437E+02 -0.31280631753E+03  0.31749099288E+03  0.10570000000E+00 0. -1.
<mgrwt>
<rscale>  0 0.12499996E+03</rscale>
<asrwt>0</asrwt>
<pdfrwt beam="2">  1        4 0.64902735E-01 0.12499996E+03</pdfrwt>
<pdfrwt beam="1">  1       -4 0.14245250E-02 0.12499996E+03</pdfrwt>
<totfact> 0.61634000E+03</totfact>
</mgrwt>
</event>
<event>
 4    1  0.1685506E-006  0.1251430E+03  0.7818608E-02  0.1234846E+00
          4   -1    0    0  501    0  0.00000000000E+00  0.00000000000E+00  0.10304620566E+03  0.10305598916E+03  0.14200000000E+01 0. -1.
         -4   -1    0    0    0  501 -0.00000000000E+00 -0.00000000000E+00 -0.37969676726E+02  0.37996220216E+02  0.14200000000E+01 0.  1.
        -13    1    1    2    0    0 -0.62226818094E+02 -0.65577799749E+01  0.32520550052E+02  0.70517931879E+02  0.10570000000E+00 0.  1.
         13    1    1    2    0    0  0.62226818094E+02  0.65577799749E+01  0.32555978884E+02  0.70534277496E+02  0.10570000000E+00 0. -1.
<mgrwt>
<rscale>  0 0.12514300E+03</rscale>
<asrwt>0</asrwt>
<pdfrwt beam="1">  1        4 0.15856057E-01 0.12514300E+03</pdfrwt>
<pdfrwt beam="2">  1       -4 0.58442831E-02 0.12514300E+03</pdfrwt>
<totfact> 0.10079319E+04</totfact>
</mgrwt>
</event>
<event>
 5    1  0.1685506E-006  0.1249998E+03  0.7818608E-02  0.1235070E+00
         -4   -1    0    0    0  501 -0.00000000000E+00  0.00000000000E+00  0.17496743580E+03  0.17497319792E+03  0.14200000000E+01 0. -1.
          4   -1    0    0  501    0  0.00000000000E+00 -0.00000000000E+00 -0.22296788689E+02  0.22341960206E+02  0.14200000000E+01 0. -1.
         25    2    1    2    0    0  0.00000000000E+00  0.00000000000E+00  0.15267064711E+03  0.19731515813E+03  0.12499978055E+03 0.  0.
        -13    1    3    3    0    0 -0.50361045863E+02  0.61684108253E+01  0.13394476618E+03  0.14323231407E+03  0.10570000000E+00 0. -1.
         13    1    3    3    0    0  0.50361045863E+02 -0.61684108253E+01  0.18725880927E+02  0.54082844059E+02  0.10570000000E+00 0. -1.
<mgrwt>
<rscale>  0 0.12499978E+03</rscale>
<asrwt>0</asrwt>
<pdfrwt beam="2">  1        4 0.34341929E-02 0.12499978E+03</pdfrwt>
<pdfrwt beam="1">  1       -4 0.26921987E-01 0.12499978E+03</pdfrwt>
<totfact> 0.90590292E+03</totfact>
</mgrwt>
</event>
<event>
 5    1  0.1685506E-006  0.1250000E+03  0.7818608E-02  0.1235069E+00
         -4   -1    0    0    0  501 -0.00000000000E+00  0.00000000000E+00  0.19777407175E+03  0.19777916942E+03  0.14200000000E+01 0. -1.
          4   -1    0    0  501    0  0.00000000000E+00 -0.00000000000E+00 -0.19720180642E+02  0.19771239833E+02  0.14200000000E+01 0. -1.
         25    2    1    2    0    0  0.00000000000E+00  0.00000000000E+00  0.17805389111E+03  0.21755040926E+03  0.12499996971E+03 0.  0.
        -13    1    3    3    0    0 -0.43643723667E+02 -0.16608568247E+02  0.16729608643E+02  0.49603529437E+02  0.10570000000E+00 0. -1.
         13    1    3    3    0    0  0.43643723667E+02  0.16608568247E+02  0.16132428247E+03  0.16794687982E+03  0.10570000000E+00 0. -1.
<mgrwt>
<rscale>  0 0.12499997E+03</rscale>
<asrwt>0</asrwt>
<pdfrwt beam="2">  1        4 0.30381935E-02 0.12499997E+03</pdfrwt>
<pdfrwt beam="1">  1       -4 0.30431102E-01 0.12499997E+03</pdfrwt>
<totfact> 0.87257512E+03</totfact>
</mgrwt>
</event>
<event>
 5    1  0.1685506E-006  0.1250009E+03  0.7818608E-02  0.1235068E+00
         -4   -1    0    0    0  501 -0.00000000000E+00  0.00000000000E+00  0.12932317230E+03  0.12933096804E+03  0.14200000000E+01 0.  1.
          4   -1    0    0  501    0  0.00000000000E+00 -0.00000000000E+00 -0.30180348151E+02  0.30213735527E+02  0.14200000000E+01 0.  1.
         25    2    1    2    0    0  0.00000000000E+00  0.00000000000E+00  0.99142824149E+02  0.15954470357E+03  0.12500085142E+03 0.  0.
        -13    1    3    3    0    0  0.58807245432E+02  0.55423465480E+01  0.23498807808E+02  0.63570550268E+02  0.10570000000E+00 0.  1.
         13    1    3    3    0    0 -0.58807245432E+02 -0.55423465480E+01  0.75644016341E+02  0.95974153297E+02  0.10570000000E+00 0.  1.
<mgrwt>
<rscale>  0 0.12500085E+03</rscale>
<asrwt>0</asrwt>
<pdfrwt beam="2">  1        4 0.46462984E-02 0.12500085E+03</pdfrwt>
<pdfrwt beam="1">  1       -4 0.19899041E-01 0.12500085E+03</pdfrwt>
<totfact> 0.97428769E+03</totfact>
</mgrwt>
</event>
<event>
 5    1  0.1685506E-006  0.1250080E+03  0.7818608E-02  0.1235057E+00
         -4   -1    0    0    0  501 -0.00000000000E+00  0.00000000000E+00  0.11221076900E+02  0.11310568810E+02  0.14200000000E+01 0. -1.
          4   -1    0    0  501    0  0.00000000000E+00 -0.00000000000E+00 -0.34668775580E+03  0.34669066388E+03  0.14200000000E+01 0.  1.
         25    2    1    2    0    0  0.00000000000E+00  0.00000000000E+00 -0.33546667890E+03  0.35800123269E+03  0.12500795957E+03 0.  0.
        -13    1    3    3    0    0 -0.60098500586E+02  0.13339220321E+02 -0.13676004938E+03  0.14997695440E+03  0.10570000000E+00 0. -1.
         13    1    3    3    0    0  0.60098500586E+02 -0.13339220321E+02 -0.19870662952E+03  0.20802427829E+03  0.10570000000E+00 0.  1.
<mgrwt>
<rscale>  0 0.12500796E+03</rscale>
<asrwt>0</asrwt>
<pdfrwt beam="2">  1        4 0.53343677E-01 0.12500796E+03</pdfrwt>
<pdfrwt beam="1">  1       -4 0.17334275E-02 0.12500796E+03</pdfrwt>
<totfact> 0.68841082E+03</totfact>
</mgrwt>
</event>
<event>
 5    1  0.1685506E-006  0.1250145E+03  0.7818608E-02  0.1235047E+00
         -4   -1    0    0    0  501 -0.00000000000E+00  0.00000000000E+00  0.48310751370E+02  0.48331615926E+02  0.14200000000E+01 0.  1.
          4   -1    0    0  501    0  0.00000000000E+00 -0.00000000000E+00 -0.80831003244E+02  0.80843475218E+02  0.14200000000E+01 0. -1.
         25    2    1    2    0    0  0.00000000000E+00  0.00000000000E+00 -0.32520251873E+02  0.12917509114E+03  0.12501454871E+03 0.  0.
        -13    1    3    3    0    0 -0.12974116455E+02  0.52642119110E+02  0.15881835942E+02  0.56495701496E+02  0.10570000000E+00 0.  1.
         13    1    3    3    0    0  0.12974116455E+02 -0.52642119110E+02 -0.48402087815E+02  0.72679389648E+02  0.10570000000E+00 0. -1.
<mgrwt>
<rscale>  0 0.12501455E+03</rscale>
<asrwt>0</asrwt>
<pdfrwt beam="2">  1        4 0.12438103E-01 0.12501455E+03</pdfrwt>
<pdfrwt beam="1">  1       -4 0.74349876E-02 0.12501455E+03</pdfrwt>
<totfact> 0.10358783E+04</totfact>
</mgrwt>
</event>
<event>
 4    1  0.1685506E-006  0.1247138E+03  0.7818608E-02  0.1235517E+00
          4   -1    0    0  501    0  0.00000000000E+00  0.00000000000E+00  0.18406589275E+02  0.18461281882E+02  0.14200000000E+01 0. -1.
         -4   -1    0    0    0  501 -0.00000000000E+00 -0.00000000000E+00 -0.21087914389E+03  0.21088392478E+03  0.14200000000E+01 0.  1.
        -13    1    1    2    0    0  0.15297008222E+02  0.35805961345E+02 -0.18580587443E+03  0.18984177484E+03  0.10570000000E+00 0.  1.
         13    1    1    2    0    0 -0.15297008222E+02 -0.35805961345E+02 -0.66666801875E+01  0.39503431821E+02  0.10570000000E+00 0. -1.
<mgrwt>
<rscale>  0 0.12471383E+03</rscale>
<asrwt>0</asrwt>
<pdfrwt beam="1">  1        4 0.28363580E-02 0.12471383E+03</pdfrwt>
<pdfrwt beam="2">  1       -4 0.32447518E-01 0.12471383E+03</pdfrwt>
<totfact> 0.85957910E+03</totfact>
</mgrwt>
</event>
<event>
 5    1  0.1685506E-006  0.1250006E+03  0.7818608E-02  0.1235068E+00
          4   -1    0    0  501    0  0.00000000000E+00  0.00000000000E+00  0.15553914076E+03  0.15554562259E+03  0.14200000000E+01 0. -1.
         -4   -1    0    0    0  501 -0.00000000000E+00 -0.00000000000E+00 -0.25087396239E+02  0.25127551613E+02  0.14200000000E+01 0.  1.
         25    2    1    2    0    0  0.00000000000E+00  0.00000000000E+00  0.13045174452E+03  0.18067317420E+03  0.12500055292E+03 0.  0.
        -13    1    3    3    0    0 -0.19449083900E+02  0.41184767444E+02  0.33639642563E+01  0.45670333500E+02  0.10570000000E+00 0.  1.
         13    1    3    3    0    0  0.19449083900E+02 -0.41184767444E+02  0.12708778026E+03  0.13500284070E+03  0.10570000000E+00 0. -1.
<mgrwt>
<rscale>  0 0.12500055E+03</rscale>
<asrwt>0</asrwt>
<pdfrwt beam="1">  1        4 0.23932686E-01 0.12500055E+03</pdfrwt>
<pdfrwt beam="2">  1       -4 0.38631869E-02 0.12500055E+03</pdfrwt>
<totfact> 0.93494810E+03</totfact>
</mgrwt>
</event>
<event>
 5    1  0.1685506E-006  0.1249960E+03  0.7818608E-02  0.1235076E+00
         -4   -1    0    0    0  501 -0.00000000000E+00  0.00000000000E+00  0.95137551067E+01  0.96191442566E+01  0.14200000000E+01 0.  1.
          4   -1    0    0  501    0  0.00000000000E+00 -0.00000000000E+00 -0.40819533017E+03  0.40819780006E+03  0.14200000000E+01 0. -1.
         25    2    1    2    0    0  0.00000000000E+00  0.00000000000E+00 -0.39868157507E+03  0.41781694432E+03  0.12499600258E+03 0.  0.
        -13    1    3    3    0    0 -0.42148351751E+02 -0.46131411512E+02 -0.20329346695E+03  0.21268012498E+03  0.10570000000E+00 0.  1.
         13    1    3    3    0    0  0.42148351751E+02  0.46131411512E+02 -0.19538810812E+03  0.20513681934E+03  0.10570000000E+00 0. -1.
<mgrwt>
<rscale>  0 0.12499600E+03</rscale>
<asrwt>0</asrwt>
<pdfrwt beam="2">  1        4 0.62807565E-01 0.12499600E+03</pdfrwt>
<pdfrwt beam="1">  1       -4 0.14719518E-02 0.12499600E+03</pdfrwt>
<totfact> 0.62861603E+03</totfact>
</mgrwt>
</event>
<event>
 4    1  0.1685506E-006  0.1250603E+03  0.7818608E-02  0.1234975E+00
          4   -1    0    0  501    0  0.00000000000E+00  0.00000000000E+00  0.75199449227E+02  0.75212855045E+02  0.14200000000E+01 0. -1.
         -4   -1    0    0    0  501 -0.00000000000E+00 -0.00000000000E+00 -0.51967553122E+02  0.51986950070E+02  0.14200000000E+01 0.  1.
        -13    1    1    2    0    0 -0.42524894300E+02  0.19042974876E+02 -0.30798857475E+02  0.55853221229E+02  0.10570000000E+00 0.  1.
         13    1    1    2    0    0  0.42524894300E+02 -0.19042974876E+02  0.54030753579E+02  0.71346583886E+02  0.10570000000E+00 0. -1.
<mgrwt>
<rscale>  0 0.12506026E+03</rscale>
<asrwt>0</asrwt>
<pdfrwt beam="1">  1        4 0.11571669E-01 0.12506026E+03</pdfrwt>
<pdfrwt beam="2">  1       -4 0.79975315E-02 0.12506026E+03</pdfrwt>
<totfact> 0.10390666E+04</totfact>
</mgrwt>
</event>
<event>
 5    1  0.1685506E-006  0.1250004E+03  0.7818608E-02  0.1235069E+00
         -4   -1    0    0    0  501 -0.00000000000E+00  0.00000000000E+00  0.50452734965E+02  0.50472714069E+02  0.14200000000E+01 0.  1.
          4   -1    0    0  501    0  0.00000000000E+00 -0.00000000000E+00 -0.77382565205E+02  0.77395592883E+02  0.14200000000E+01 0.  1.
         25    2    1    2    0    0  0.00000000000E+00  0.00000000000E+00 -0.26929830240E+02  0.12786830695E+03  0.12500035266E+03 0.  0.
        -13    1    3    3    0    0  0.29476453755E+02 -0.21834506406E+02 -0.65228830165E+02  0.74835943591E+02  0.10570000000E+00 0. -1.
         13    1    3    3    0    0 -0.29476453755E+02  0.21834506406E+02  0.38298999925E+02  0.53032363361E+02  0.10570000000E+00 0. -1.
<mgrwt>
<rscale>  0 0.12500035E+03</rscale>
<asrwt>0</asrwt>
<pdfrwt beam="2">  1        4 0.11907549E-01 0.12500035E+03</pdfrwt>
<pdfrwt beam="1">  1       -4 0.77644982E-02 0.12500035E+03</pdfrwt>
<totfact> 0.10390250E+04</totfact>
</mgrwt>
</event>
<event>
 5    1  0.1685506E-006  0.1249992E+03  0.7818608E-02  0.1235070E+00
         -4   -1    0    0    0  501 -0.00000000000E+00  0.00000000000E+00  0.38162194451E+03  0.38162458639E+03  0.14200000000E+01 0.  1.
          4   -1    0    0  501    0  0.00000000000E+00 -0.00000000000E+00 -0.10183849905E+02  0.10282373213E+02  0.14200000000E+01 0. -1.
         25    2    1    2    0    0  0.00000000000E+00  0.00000000000E+00  0.37143809461E+03  0.39190695960E+03  0.12499922742E+03 0.  0.
        -13    1    3    3    0    0  0.27319694925E+02  0.55158574097E+02  0.21968386186E+03  0.22814434984E+03  0.10570000000E+00 0.  1.
         13    1    3    3    0    0 -0.27319694925E+02 -0.55158574097E+02  0.15175423274E+03  0.16376260976E+03  0.10570000000E+00 0. -1.
<mgrwt>
<rscale>  0 0.12499923E+03</rscale>
<asrwt>0</asrwt>
<pdfrwt beam="2">  1        4 0.15745279E-02 0.12499923E+03</pdfrwt>
<pdfrwt beam="1">  1       -4 0.58718855E-01 0.12499923E+03</pdfrwt>
<totfact> 0.65348703E+03</totfact>
</mgrwt>
</event>
<event>
 4    1  0.1685506E-006  0.1248160E+03  0.7818608E-02  0.1235357E+00
         -4   -1    0    0    0  501 -0.00000000000E+00  0.00000000000E+00  0.55554167025E+02  0.55572312116E+02  0.14200000000E+01 0. -1.
          4   -1    0    0  501    0  0.00000000000E+00 -0.00000000000E+00 -0.70070606907E+02  0.70084993774E+02  0.14200000000E+01 0.  1.
        -13    1    1    2    0    0 -0.23316711761E+02  0.38308884113E+02  0.36433701268E+02  0.57781185605E+02  0.10570000000E+00 0. -1.
         13    1    1    2    0    0  0.23316711761E+02 -0.38308884113E+02 -0.50950141150E+02  0.67876120285E+02  0.10570000000E+00 0.  1.
<mgrwt>
<rscale>  0 0.12481599E+03</rscale>
<asrwt>0</asrwt>
<pdfrwt beam="2">  1        4 0.10782596E-01 0.12481599E+03</pdfrwt>
<pdfrwt beam="1">  1       -4 0.85492974E-02 0.12481599E+03</pdfrwt>
<totfact> 0.10481940E+04</totfact>
</mgrwt>
</event>
<event>
 5    1  0.1685506E-006  0.1249996E+03  0.7818608E-02  0.1235070E+00
         -4   -1    0    0    0  501 -0.00000000000E+00  0.00000000000E+00  0.11421741018E+03  0.11422623686E+03  0.14200000000E+01 0.  1.
          4   -1    0    0  501    0  0.00000000000E+00 -0.00000000000E+00 -0.34174994107E+02  0.34204482487E+02  0.14200000000E+01 0.  1.
         25    2    1    2    0    0  0.00000000000E+00  0.00000000000E+00  0.80042416070E+02  0.14843071935E+03  0.12499956030E+03 0.  0.
        -13    1    3    3    0    0 -0.41959413927E+00 -0.62448106953E+02  0.37048020896E+02  0.72612045461E+02  0.10570000000E+00 0.  1.
         13    1    3    3    0    0  0.41959413927E+00  0.62448106953E+02  0.42994395175E+02  0.75818673889E+02  0.10570000000E+00 0.  1.
<mgrwt>
<rscale>  0 0.12499956E+03</rscale>
<asrwt>0</asrwt>
<pdfrwt beam="2">  1        4 0.52606387E-02 0.12499956E+03</pdfrwt>
<pdfrwt beam="1">  1       -4 0.17574857E-01 0.12499956E+03</pdfrwt>
<totfact> 0.99618421E+03</totfact>
</mgrwt>
</event>
<event>
 5    1  0.1685506E-006  0.1249987E+03  0.7818608E-02  0.1235071E+00
          4   -1    0    0  501    0  0.00000000000E+00  0.00000000000E+00  0.56412096816E+02  0.56429966039E+02  0.14200000000E+01 0.  1.
         -4   -1    0    0    0  501 -0.00000000000E+00 -0.00000000000E+00 -0.69207341365E+02  0.69221907651E+02  0.14200000000E+01 0. -1.
         25    2    1    2    0    0  0.00000000000E+00  0.00000000000E+00 -0.12795244550E+02  0.12565187369E+03  0.12499870031E+03 0.  0.
        -13    1    3    3    0    0  0.33367419971E+02 -0.19587735041E+02 -0.55736617526E+02  0.67850171594E+02  0.10570000000E+00 0. -1.
         13    1    3    3    0    0 -0.33367419971E+02  0.19587735041E+02  0.42941372977E+02  0.57801702096E+02  0.10570000000E+00 0.  1.
<mgrwt>
<rscale>  0 0.12499870E+03</rscale>
<asrwt>0</asrwt>
<pdfrwt beam="1">  1        4 0.86812791E-02 0.12499870E+03</pdfrwt>
<pdfrwt beam="2">  1       -4 0.10649778E-01 0.12499870E+03</pdfrwt>
<totfact> 0.10438910E+04</totfact>
</mgrwt>
</event>
<event>
 5    1  0.1685506E-006  0.1250019E+03  0.7818608E-02  0.1235066E+00
          4   -1    0    0  501    0  0.00000000000E+00  0.00000000000E+00  0.27290417688E+03  0.27290787119E+03  0.14200000000E+01 0. -1.
         -4   -1    0    0    0  501 -0.00000000000E+00 -0.00000000000E+00 -0.14275050804E+02  0.14345503667E+02  0.14200000000E+01 0. -1.
         25    2    1    2    0    0  0.00000000000E+00  0.00000000000E+00  0.25862912607E+03  0.28725337486E+03  0.12500190604E+03 0.  0.
        -13    1    3    3    0    0 -0.30062767638E+02 -0.52480275514E+02  0.93095946879E+02  0.11101718702E+03  0.10570000000E+00 0. -1.
         13    1    3    3    0    0  0.30062767638E+02  0.52480275514E+02  0.16553317919E+03  0.17623618784E+03  0.10570000000E+00 0. -1.
<mgrwt>
<rscale>  0 0.12500191E+03</rscale>
<asrwt>0</asrwt>
<pdfrwt beam="1">  1        4 0.41990962E-01 0.12500191E+03</pdfrwt>
<pdfrwt beam="2">  1       -4 0.22018653E-02 0.12500191E+03</pdfrwt>
<totfact> 0.77222815E+03</totfact>
</mgrwt>
</event>
<event>
 5    1  0.1685506E-006  0.1249978E+03  0.7818608E-02  0.1235073E+00
          4   -1    0    0  501    0  0.00000000000E+00  0.00000000000E+00  0.40290804277E+02  0.40315819591E+02  0.14200000000E+01 0.  1.
         -4   -1    0    0    0  501 -0.00000000000E+00 -0.00000000000E+00 -0.96887699869E+02  0.96898105172E+02  0.14200000000E+01 0. -1.
         25    2    1    2    0    0  0.00000000000E+00  0.00000000000E+00 -0.56596895592E+02  0.13721392476E+03  0.12499781021E+03 0.  0.
        -13    1    3    3    0    0  0.12465227779E+02 -0.34753766181E+02 -0.83653856817E+02  0.91439516076E+02  0.10570000000E+00 0. -1.
         13    1    3    3    0    0 -0.12465227779E+02  0.34753766181E+02  0.27056961225E+02  0.45774408687E+02  0.10570000000E+00 0.  1.
<mgrwt>
<rscale>  0 0.12499781E+03</rscale>
<asrwt>0</asrwt>
<pdfrwt beam="1">  1        4 0.62013100E-02 0.12499781E+03</pdfrwt>
<pdfrwt beam="2">  1       -4 0.14908525E-01 0.12499781E+03</pdfrwt>
<totfact> 0.10192118E+04</totfact>
</mgrwt>
</event>
<event>
 4    1  0.1685506E-006  0.1252473E+03  0.7818608E-02  0.1234683E+00
          4   -1    0    0  501    0  0.00000000000E+00  0.00000000000E+00  0.17853788411E+02  0.17910169196E+02  0.14200000000E+01 0.  1.
         -4   -1    0    0    0  501 -0.00000000000E+00 -0.00000000000E+00 -0.21925278760E+03  0.21925738590E+03  0.14200000000E+01 0. -1.
        -13    1    1    2    0    0  0.34180033663E+02  0.48448360854E+02 -0.13886344999E+03  0.15099201067E+03  0.10570000000E+00 0. -1.
         13    1    1    2    0    0 -0.34180033663E+02 -0.48448360854E+02 -0.62535549203E+02  0.86175544427E+02  0.10570000000E+00 0.  1.
<mgrwt>
<rscale>  0 0.12524732E+03</rscale>
<asrwt>0</asrwt>
<pdfrwt beam="1">  1        4 0.27514275E-02 0.12524732E+03</pdfrwt>
<pdfrwt beam="2">  1       -4 0.33735887E-01 0.12524732E+03</pdfrwt>
<totfact> 0.83758230E+03</totfact>
</mgrwt>
</event>
<event>
 5    1  0.1685506E-006  0.1250015E+03  0.7818608E-02  0.1235067E+00
          4   -1    0    0  501    0  0.00000000000E+00  0.00000000000E+00  0.25863497024E+02  0.25902449273E+02  0.14200000000E+01 0. -1.
         -4   -1    0    0    0  501 -0.00000000000E+00 -0.00000000000E+00 -0.15088092425E+03  0.15088760620E+03  0.14200000000E+01 0.  1.
         25    2    1    2    0    0  0.00000000000E+00  0.00000000000E+00 -0.12501742723E+03  0.17679005547E+03  0.12500146640E+03 0.  0.
        -13    1    3    3    0    0 -0.49624039418E+02  0.37975076549E+02 -0.60676247951E+02  0.87099196121E+02  0.10570000000E+00 0.  1.
         13    1    3    3    0    0  0.49624039418E+02 -0.37975076549E+02 -0.64341179279E+02  0.89690859348E+02  0.10570000000E+00 0. -1.
<mgrwt>
<rscale>  0 0.12500147E+03</rscale>
<asrwt>0</asrwt>
<pdfrwt beam="1">  1        4 0.39825100E-02 0.12500147E+03</pdfrwt>
<pdfrwt beam="2">  1       -4 0.23215960E-01 0.12500147E+03</pdfrwt>
<totfact> 0.94194917E+03</totfact>
</mgrwt>
</event>
<event>
 5    1  0.1685506E-006  0.1249979E+03  0.7818608E-02  0.1235073E+00
         -4   -1    0    0    0  501 -0.00000000000E+00  0.00000000000E+00  0.13547510521E+02  0.13621726811E+02  0.14200000000E+01 0.  1.
          4   -1    0    0  501    0  0.00000000000E+00 -0.00000000000E+00 -0.28746383206E+03  0.28746733926E+03  0.14200000000E+01 0. -1.
         25    2    1    2    0    0  0.00000000000E+00  0.00000000000E+00 -0.27391632154E+03  0.30108906607E+03  0.12499789800E+03 0.  0.
        -13    1    3    3    0    0 -0.36281596667E+02 -0.48329279171E+02 -0.17534993419E+03  0.18547151823E+03  0.10570000000E+00 0.  1.
         13    1    3    3    0    0  0.36281596667E+02  0.48329279171E+02 -0.98566387353E+02  0.11561754785E+03  0.10570000000E+00 0. -1.
<mgrwt>
<rscale>  0 0.12499790E+03</rscale>
<asrwt>0</asrwt>
<pdfrwt beam="2">  1        4 0.44231179E-01 0.12499790E+03</pdfrwt>
<pdfrwt beam="1">  1       -4 0.20902113E-02 0.12499790E+03</pdfrwt>
<totfact> 0.75465954E+03</totfact>
</mgrwt>
</event>
<event>
 5    1  0.1685506E-006  0.1250004E+03  0.7818608E-02  0.1235069E+00
         -4   -1    0    0    0  501 -0.00000000000E+00  0.00000000000E+00  0.16640696120E+02  0.16701172634E+02  0.14200000000E+01 0.  1.
          4   -1    0    0  501    0  0.00000000000E+00 -0.00000000000E+00 -0.23425372211E+03  0.23425802595E+03  0.14200000000E+01 0. -1.
         25    2    1    2    0    0  0.00000000000E+00  0.00000000000E+00 -0.21761302599E+03  0.25095919859E+03  0.12500036110E+03 0.  0.
        -13    1    3    3    0    0 -0.54202310908E+02 -0.37694742667E+01 -0.17082239127E+03  0.17925512538E+03  0.10570000000E+00 0.  1.
         13    1    3    3    0    0  0.54202310908E+02  0.37694742667E+01 -0.46790634721E+02  0.71704073204E+02  0.10570000000E+00 0. -1.
<mgrwt>
<rscale>  0 0.12500036E+03</rscale>
<asrwt>0</asrwt>
<pdfrwt beam="2">  1        4 0.36044015E-01 0.12500036E+03</pdfrwt>
<pdfrwt beam="1">  1       -4 0.25650904E-02 0.12500036E+03</pdfrwt>
<totfact> 0.82191131E+03</totfact>
</mgrwt>
</event>
<event>
 4    1  0.1685506E-006  0.1253716E+03  0.7818608E-02  0.1234490E+00
          4   -1    0    0  501    0  0.00000000000E+00  0.00000000000E+00  0.27048380142E+03  0.27048752879E+03  0.14200000000E+01 0. -1.
         -4   -1    0    0    0  501 -0.00000000000E+00 -0.00000000000E+00 -0.14489167639E+02  0.14558584371E+02  0.14200000000E+01 0.  1.
        -13    1    1    2    0    0  0.31214123327E+02  0.53758400708E+02  0.10963726879E+03  0.12603423750E+03  0.10570000000E+00 0.  1.
         13    1    1    2    0    0 -0.31214123327E+02 -0.53758400708E+02  0.14635736499E+03  0.15901187566E+03  0.10570000000E+00 0. -1.
<mgrwt>
<rscale>  0 0.12537158E+03</rscale>
<asrwt>0</asrwt>
<pdfrwt beam="1">  1        4 0.41618515E-01 0.12537158E+03</pdfrwt>
<pdfrwt beam="2">  1       -4 0.22347294E-02 0.12537158E+03</pdfrwt>
<totfact> 0.76877195E+03</totfact>
</mgrwt>
</event>
<event>
 5    1  0.1685506E-006  0.1249938E+03  0.7818608E-02  0.1235079E+00
         -4   -1    0    0    0  501 -0.00000000000E+00  0.00000000000E+00  0.15069778944E+03  0.15070447950E+03  0.14200000000E+01 0. -1.
          4   -1    0    0  501    0  0.00000000000E+00 -0.00000000000E+00 -0.25891809715E+02  0.25930719433E+02  0.14200000000E+01 0.  1.
         25    2    1    2    0    0  0.00000000000E+00  0.00000000000E+00  0.12480597973E+03  0.17663519894E+03  0.12499384356E+03 0.  0.
        -13    1    3    3    0    0 -0.32913395833E+01  0.35161840007E+02  0.13526825208E+03  0.13980235728E+03  0.10570000000E+00 0. -1.
         13    1    3    3    0    0  0.32913395833E+01 -0.35161840007E+02 -0.10462272354E+02  0.36832841653E+02  0.10570000000E+00 0.  1.
<mgrwt>
<rscale>  0 0.12499384E+03</rscale>
<asrwt>0</asrwt>
<pdfrwt beam="2">  1        4 0.39868629E-02 0.12499384E+03</pdfrwt>
<pdfrwt beam="1">  1       -4 0.23187784E-01 0.12499384E+03</pdfrwt>
<totfact> 0.94239220E+03</totfact>
</mgrwt>
</event>
<event>
 5    1  0.1685506E-006  0.1250012E+03  0.7818608E-02  0.1235067E+00
         -4   -1    0    0    0  501 -0.00000000000E+00  0.00000000000E+00  0.57218357584E+02  0.57235975091E+02  0.14200000000E+01 0.  1.
          4   -1    0    0  501    0  0.00000000000E+00 -0.00000000000E+00 -0.68234957788E+02  0.68249731606E+02  0.14200000000E+01 0. -1.
         25    2    1    2    0    0  0.00000000000E+00  0.00000000000E+00 -0.11016600204E+02  0.12548570670E+03  0.12500118842E+03 0.  0.
        -13    1    3    3    0    0 -0.54053078690E+02 -0.28781654848E+02  0.70379076891E+01  0.61641400769E+02  0.10570000000E+00 0.  1.
         13    1    3    3    0    0  0.54053078690E+02  0.28781654848E+02 -0.18054507893E+02  0.63844305928E+02  0.10570000000E+00 0. -1.
<mgrwt>
<rscale>  0 0.12500119E+03</rscale>
<asrwt>0</asrwt>
<pdfrwt beam="2">  1        4 0.10500177E-01 0.12500119E+03</pdfrwt>
<pdfrwt beam="1">  1       -4 0.88053159E-02 0.12500119E+03</pdfrwt>
<totfact> 0.10441990E+04</totfact>
</mgrwt>
</event>
<event>
 5    1  0.1685506E-006  0.1249992E+03  0.7818608E-02  0.1235071E+00
         -4   -1    0    0    0  501 -0.00000000000E+00  0.00000000000E+00  0.44267596630E+02  0.44290365898E+02  0.14200000000E+01 0.  1.
          4   -1    0    0  501    0  0.00000000000E+00 -0.00000000000E+00 -0.88189396642E+02  0.88200828114E+02  0.14200000000E+01 0.  1.
         25    2    1    2    0    0  0.00000000000E+00  0.00000000000E+00 -0.43921800011E+02  0.13249119401E+03  0.12499916790E+03 0.  0.
        -13    1    3    3    0    0 -0.16736205318E+02 -0.58486488834E+02 -0.37152305376E+02  0.71281659014E+02  0.10570000000E+00 0. -1.
         13    1    3    3    0    0  0.16736205318E+02  0.58486488834E+02 -0.67694946351E+01  0.61209534998E+02  0.10570000000E+00 0. -1.
<mgrwt>
<rscale>  0 0.12499917E+03</rscale>
<asrwt>0</asrwt>
<pdfrwt beam="2">  1        4 0.13570230E-01 0.12499917E+03</pdfrwt>
<pdfrwt beam="1">  1       -4 0.68130303E-02 0.12499917E+03</pdfrwt>
<totfact> 0.10291419E+04</totfact>
</mgrwt>
</event>
<event>
 5    1  0.1685506E-006  0.1249887E+03  0.7818608E-02  0.1235087E+00
         -4   -1    0    0    0  501 -0.00000000000E+00  0.00000000000E+00  0.12066302313E+03  0.12067137834E+03  0.14200000000E+01 0. -1.
          4   -1    0    0  501    0  0.00000000000E+00 -0.00000000000E+00 -0.32342293833E+02  0.32373451629E+02  0.14200000000E+01 0.  1.
         25    2    1    2    0    0  0.00000000000E+00  0.00000000000E+00  0.88320729300E+02  0.15304482997E+03  0.12498867452E+03 0.  0.
        -13    1    3    3    0    0  0.78063530534E+01  0.51015558783E+02  0.87313227037E+02  0.10142552526E+03  0.10570000000E+00 0. -1.
         13    1    3    3    0    0 -0.78063530534E+01 -0.51015558783E+02  0.10075022633E+01  0.51619304715E+02  0.10570000000E+00 0.  1.
<mgrwt>
<rscale>  0 0.12498867E+03</rscale>
<asrwt>0</asrwt>
<pdfrwt beam="2">  1        4 0.49787770E-02 0.12498867E+03</pdfrwt>
<pdfrwt beam="1">  1       -4 0.18566581E-01 0.12498867E+03</pdfrwt>
<totfact> 0.98725336E+03</totfact>
</mgrwt>
</event>
<event>
 5    1  0.1685506E-006  0.1249973E+03  0.7818608E-02  0.1235073E+00
          4   -1    0    0  501    0  0.00000000000E+00  0.00000000000E+00  0.14545180082E+03  0.14545873216E+03  0.14200000000E+01 0. -1.
         -4   -1    0    0    0  501 -0.00000000000E+00 -0.00000000000E+00 -0.26828468334E+02  0.26866021536E+02  0.14200000000E+01 0.  1.
         25    2    1    2    0    0  0.00000000000E+00  0.00000000000E+00  0.11862333249E+03  0.17232475370E+03  0.12499730288E+03 0.  0.
        -13    1    3    3    0    0 -0.31095642072E+02 -0.30614459890E+02 -0.23715075782E+01  0.43701479734E+02  0.10570000000E+00 0.  1.
         13    1    3    3    0    0  0.31095642072E+02  0.30614459890E+02  0.12099484007E+03  0.12862327396E+03  0.10570000000E+00 0. -1.
<mgrwt>
<rscale>  0 0.12499730E+03</rscale>
<asrwt>0</asrwt>
<pdfrwt beam="1">  1        4 0.22380623E-01 0.12499730E+03</pdfrwt>
<pdfrwt beam="2">  1       -4 0.41308784E-02 0.12499730E+03</pdfrwt>
<totfact> 0.95022852E+03</totfact>
</mgrwt>
</event>
<event>
 5    1  0.1685506E-006  0.1250013E+03  0.7818608E-02  0.1235067E+00
         -4   -1    0    0    0  501 -0.00000000000E+00  0.00000000000E+00  0.80685393242E+02  0.80697887720E+02  0.14200000000E+01 0. -1.
          4   -1    0    0  501    0  0.00000000000E+00 -0.00000000000E+00 -0.48387670235E+02  0.48408501637E+02  0.14200000000E+01 0. -1.
         25    2    1    2    0    0  0.00000000000E+00  0.00000000000E+00  0.32297723007E+02  0.12910638936E+03  0.12500126744E+03 0.  0.
        -13    1    3    3    0    0 -0.25661901290E+02  0.30014738498E+02  0.66184637879E+02  0.77070326123E+02  0.10570000000E+00 0. -1.
         13    1    3    3    0    0  0.25661901290E+02 -0.30014738498E+02 -0.33886914873E+02  0.52036063235E+02  0.10570000000E+00 0. -1.
<mgrwt>
<rscale>  0 0.12500127E+03</rscale>
<asrwt>0</asrwt>
<pdfrwt beam="2">  1        4 0.74468204E-02 0.12500127E+03</pdfrwt>
<pdfrwt beam="1">  1       -4 0.12415701E-01 0.12500127E+03</pdfrwt>
<totfact> 0.10363365E+04</totfact>
</mgrwt>
</event>
<event>
 5    1  0.1685506E-006  0.1250029E+03  0.7818608E-02  0.1235065E+00
         -4   -1    0    0    0  501 -0.00000000000E+00  0.00000000000E+00  0.15067188598E+02  0.15133954283E+02  0.14200000000E+01 0.  1.
          4   -1    0    0  501    0  0.00000000000E+00 -0.00000000000E+00 -0.25862572237E+03  0.25862962064E+03  0.14200000000E+01 0. -1.
         25    2    1    2    0    0  0.00000000000E+00  0.00000000000E+00 -0.24355853377E+03  0.27376357492E+03  0.12500294229E+03 0.  0.
        -13    1    3    3    0    0 -0.34792187426E+02  0.19171017879E+02 -0.16101389279E+02  0.42863622591E+02  0.10570000000E+00 0.  1.
         13    1    3    3    0    0  0.34792187426E+02 -0.19171017879E+02 -0.22745714449E+03  0.23089995233E+03  0.10570000000E+00 0. -1.
<mgrwt>
<rscale>  0 0.12500294E+03</rscale>
<asrwt>0</asrwt>
<pdfrwt beam="2">  1        4 0.39794005E-01 0.12500294E+03</pdfrwt>
<pdfrwt beam="1">  1       -4 0.23234649E-02 0.12500294E+03</pdfrwt>
<totfact> 0.79007175E+03</totfact>
</mgrwt>
</event>
<event>
 5    1  0.1685506E-006  0.1250055E+03  0.7818608E-02  0.1235061E+00
         -4   -1    0    0    0  501 -0.00000000000E+00  0.00000000000E+00  0.35823082475E+03  0.35823363913E+03  0.14200000000E+01 0.  1.
          4   -1    0    0  501    0  0.00000000000E+00 -0.00000000000E+00 -0.10856152048E+02  0.10948627188E+02  0.14200000000E+01 0. -1.
         25    2    1    2    0    0  0.00000000000E+00  0.00000000000E+00  0.34737467270E+03  0.36918226632E+03  0.12500552998E+03 0.  0.
        -13    1    3    3    0    0  0.27634387832E+02 -0.49966127733E+02  0.98605924764E+02  0.11394477997E+03  0.10570000000E+00 0.  1.
         13    1    3    3    0    0 -0.27634387832E+02  0.49966127733E+02  0.24876874794E+03  0.25523748635E+03  0.10570000000E+00 0. -1.
<mgrwt>
<rscale>  0 0.12500553E+03</rscale>
<asrwt>0</asrwt>
<pdfrwt beam="2">  1        4 0.16775074E-02 0.12500553E+03</pdfrwt>
<pdfrwt beam="1">  1       -4 0.55119759E-01 0.12500553E+03</pdfrwt>
<totfact> 0.67656304E+03</totfact>
</mgrwt>
</event>
<event>
 5    1  0.1685506E-006  0.1250295E+03  0.7818608E-02  0.1235023E+00
         -4   -1    0    0    0  501 -0.00000000000E+00  0.00000000000E+00  0.10026939570E+03  0.10027945011E+03  0.14200000000E+01 0.  1.
          4   -1    0    0  501    0  0.00000000000E+00 -0.00000000000E+00 -0.38951005212E+02  0.38976880417E+02  0.14200000000E+01 0. -1.
         25    2    1    2    0    0  0.00000000000E+00  0.00000000000E+00  0.61318390490E+02  0.13925633053E+03  0.12502951883E+03 0.  0.
        -13    1    3    3    0    0  0.93702090408E+00  0.16854582015E+02  0.97700782451E+02  0.99148419085E+02  0.10570000000E+00 0.  1.
         13    1    3    3    0    0 -0.93702090408E+00 -0.16854582015E+02 -0.36382391960E+02  0.40107911443E+02  0.10570000000E+00 0. -1.
<mgrwt>
<rscale>  0 0.12502952E+03</rscale>
<asrwt>0</asrwt>
<pdfrwt beam="2">  1        4 0.59952262E-02 0.12502952E+03</pdfrwt>
<pdfrwt beam="1">  1       -4 0.15428825E-01 0.12502952E+03</pdfrwt>
<totfact> 0.10142275E+04</totfact>
</mgrwt>
</event>
<event>
 5    1  0.1685506E-006  0.1249996E+03  0.7818608E-02  0.1235070E+00
          4   -1    0    0  501    0  0.00000000000E+00  0.00000000000E+00  0.53377147817E+03  0.53377336699E+03  0.14200000000E+01 0. -1.
         -4   -1    0    0    0  501 -0.00000000000E+00 -0.00000000000E+00 -0.72473532643E+01  0.73851560131E+01  0.14200000000E+01 0.  1.
         25    2    1    2    0    0  0.00000000000E+00  0.00000000000E+00  0.52652412490E+03  0.54115852300E+03  0.12499957164E+03 0.  0.
        -13    1    3    3    0    0 -0.28011111535E+02 -0.54922086423E+02  0.30765655555E+03  0.31377320678E+03  0.10570000000E+00 0.  1.
         13    1    3    3    0    0  0.28011111535E+02  0.54922086423E+02  0.21886756935E+03  0.22738531622E+03  0.10570000000E+00 0. -1.
<mgrwt>
<rscale>  0 0.12499957E+03</rscale>
<asrwt>0</asrwt>
<pdfrwt beam="1">  1        4 0.82129448E-01 0.12499957E+03</pdfrwt>
<pdfrwt beam="2">  1       -4 0.11257227E-02 0.12499957E+03</pdfrwt>
<totfact> 0.52807136E+03</totfact>
</mgrwt>
</event>
<event>
 5    1  0.1685506E-006  0.1250003E+03  0.7818608E-02  0.1235069E+00
         -4   -1    0    0    0  501 -0.00000000000E+00  0.00000000000E+00  0.14975718921E+02  0.15042890587E+02  0.14200000000E+01 0.  1.
          4   -1    0    0  501    0  0.00000000000E+00 -0.00000000000E+00 -0.26018731560E+03  0.26019119047E+03  0.14200000000E+01 0.  1.
         25    2    1    2    0    0  0.00000000000E+00  0.00000000000E+00 -0.24521159668E+03  0.27523408106E+03  0.12500028892E+03 0.  0.
        -13    1    3    3    0    0 -0.48162491359E+02 -0.36394876770E+02 -0.86962448341E+02  0.10586166078E+03  0.10570000000E+00 0. -1.
         13    1    3    3    0    0  0.48162491359E+02  0.36394876770E+02 -0.15824914834E+03  0.16937242028E+03  0.10570000000E+00 0. -1.
<mgrwt>
<rscale>  0 0.12500029E+03</rscale>
<asrwt>0</asrwt>
<pdfrwt beam="2">  1        4 0.40034279E-01 0.12500029E+03</pdfrwt>
<pdfrwt beam="1">  1       -4 0.23094221E-02 0.12500029E+03</pdfrwt>
<totfact> 0.78813800E+03</totfact>
</mgrwt>
</event>
<event>
 5    1  0.1685506E-006  0.1249948E+03  0.7818608E-02  0.1235077E+00
         -4   -1    0    0    0  501 -0.00000000000E+00  0.00000000000E+00  0.28709804233E+02  0.28744899706E+02  0.14200000000E+01 0.  1.
          4   -1    0    0  501    0  0.00000000000E+00 -0.00000000000E+00 -0.13592666731E+03  0.13593408434E+03  0.14200000000E+01 0. -1.
         25    2    1    2    0    0  0.00000000000E+00  0.00000000000E+00 -0.10721686307E+03  0.16467898404E+03  0.12499484813E+03 0.  0.
        -13    1    3    3    0    0  0.60663569513E+02 -0.34238389546E+01 -0.34329619735E+02  0.69787715989E+02  0.10570000000E+00 0.  1.
         13    1    3    3    0    0 -0.60663569513E+02  0.34238389546E+01 -0.72887243338E+02  0.94891268055E+02  0.10570000000E+00 0. -1.
<mgrwt>
<rscale>  0 0.12499485E+03</rscale>
<asrwt>0</asrwt>
<pdfrwt beam="2">  1        4 0.20915065E-01 0.12499485E+03</pdfrwt>
<pdfrwt beam="1">  1       -4 0.44201632E-02 0.12499485E+03</pdfrwt>
<totfact> 0.96459386E+03</totfact>
</mgrwt>
</event>
<event>
 5    1  0.1685506E-006  0.1249988E+03  0.7818608E-02  0.1235071E+00
         -4   -1    0    0    0  501 -0.00000000000E+00  0.00000000000E+00  0.82836562282E+01  0.84044845474E+01  0.14200000000E+01 0.  1.
          4   -1    0    0  501    0  0.00000000000E+00 -0.00000000000E+00 -0.46801602398E+03  0.46801817817E+03  0.14200000000E+01 0. -1.
         25    2    1    2    0    0  0.00000000000E+00  0.00000000000E+00 -0.45973236775E+03  0.47642266272E+03  0.12499881438E+03 0.  0.
        -13    1    3    3    0    0 -0.30717723039E+02  0.54368532491E+02 -0.22003827360E+03  0.22872771773E+03  0.10570000000E+00 0.  1.
         13    1    3    3    0    0  0.30717723039E+02 -0.54368532491E+02 -0.23969409415E+03  0.24769494500E+03  0.10570000000E+00 0. -1.
<mgrwt>
<rscale>  0 0.12499881E+03</rscale>
<asrwt>0</asrwt>
<pdfrwt beam="2">  1        4 0.72011905E-01 0.12499881E+03</pdfrwt>
<pdfrwt beam="1">  1       -4 0.12838692E-02 0.12499881E+03</pdfrwt>
<totfact> 0.57742750E+03</totfact>
</mgrwt>
</event>
<event>
 5    1  0.1685506E-006  0.1249997E+03  0.7818608E-02  0.1235070E+00
         -4   -1    0    0    0  501 -0.00000000000E+00  0.00000000000E+00  0.20160521692E+03  0.20161021772E+03  0.14200000000E+01 0.  1.
          4   -1    0    0  501    0  0.00000000000E+00 -0.00000000000E+00 -0.19344367921E+02  0.19396416429E+02  0.14200000000E+01 0.  1.
         25    2    1    2    0    0  0.00000000000E+00  0.00000000000E+00  0.18226084900E+03  0.22100663415E+03  0.12499966104E+03 0.  0.
        -13    1    3    3    0    0  0.47184658630E+02 -0.33150068282E+02  0.48516979817E+02  0.75360649813E+02  0.10570000000E+00 0.  1.
         13    1    3    3    0    0 -0.47184658630E+02  0.33150068282E+02  0.13374386918E+03  0.14564598433E+03  0.10570000000E+00 0.  1.
<mgrwt>
<rscale>  0 0.12499966E+03</rscale>
<asrwt>0</asrwt>
<pdfrwt beam="2">  1        4 0.29804449E-02 0.12499966E+03</pdfrwt>
<pdfrwt beam="1">  1       -4 0.31020576E-01 0.12499966E+03</pdfrwt>
<totfact> 0.86709968E+03</totfact>
</mgrwt>
</event>
<event>
 5    1  0.1685506E-006  0.1250012E+03  0.7818608E-02  0.1235067E+00
          4   -1    0    0  501    0  0.00000000000E+00  0.00000000000E+00  0.93987208720E+02  0.93997935099E+02  0.14200000000E+01 0.  1.
         -4   -1    0    0    0  501 -0.00000000000E+00 -0.00000000000E+00 -0.41537071780E+02  0.41561336986E+02  0.14200000000E+01 0. -1.
         25    2    1    2    0    0  0.00000000000E+00  0.00000000000E+00  0.52450136940E+02  0.13555927209E+03  0.12500119753E+03 0.  0.
        -13    1    3    3    0    0 -0.76732008020E+01 -0.35842100153E+02  0.81124857664E+02  0.89021277554E+02  0.10570000000E+00 0.  1.
         13    1    3    3    0    0  0.76732008020E+01  0.35842100153E+02 -0.28674720724E+02  0.46537994531E+02  0.10570000000E+00 0. -1.
<mgrwt>
<rscale>  0 0.12500120E+03</rscale>
<asrwt>0</asrwt>
<pdfrwt beam="1">  1        4 0.14462262E-01 0.12500120E+03</pdfrwt>
<pdfrwt beam="2">  1       -4 0.63930104E-02 0.12500120E+03</pdfrwt>
<totfact> 0.10226020E+04</totfact>
</mgrwt>
</event>
<event>
 5    1  0.1685506E-006  0.1250031E+03  0.7818608E-02  0.1235064E+00
         -4   -1    0    0    0  501 -0.00000000000E+00  0.00000000000E+00  0.93498972483E+01  0.94571125907E+01  0.14200000000E+01 0.  1.
          4   -1    0    0  501    0  0.00000000000E+00 -0.00000000000E+00 -0.41531566754E+03  0.41531809509E+03  0.14200000000E+01 0. -1.
         25    2    1    2    0    0  0.00000000000E+00  0.00000000000E+00 -0.40596577030E+03  0.42477520768E+03  0.12500308159E+03 0.  0.
        -13    1    3    3    0    0  0.10243406708E+01 -0.62391702966E+02 -0.19089324495E+03  0.20083330404E+03  0.10570000000E+00 0.  1.
         13    1    3    3    0    0 -0.10243406708E+01  0.62391702966E+02 -0.21507252535E+03  0.22394190364E+03  0.10570000000E+00 0. -1.
<mgrwt>
<rscale>  0 0.12500308E+03</rscale>
<asrwt>0</asrwt>
<pdfrwt beam="2">  1        4 0.63903138E-01 0.12500308E+03</pdfrwt>
<pdfrwt beam="1">  1       -4 0.14468801E-02 0.12500308E+03</pdfrwt>
<totfact> 0.62208237E+03</totfact>
</mgrwt>
</event>
<event>
 5    1  0.1685506E-006  0.1249997E+03  0.7818608E-02  0.1235070E+00
         -4   -1    0    0    0  501 -0.00000000000E+00  0.00000000000E+00  0.82681950705E+02  0.82694143519E+02  0.14200000000E+01 0. -1.
          4   -1    0    0  501    0  0.00000000000E+00 -0.00000000000E+00 -0.47217677347E+02  0.47239024694E+02  0.14200000000E+01 0.  1.
         25    2    1    2    0    0  0.00000000000E+00  0.00000000000E+00  0.35464273357E+02  0.12993316821E+03  0.12499965407E+03 0.  0.
        -13    1    3    3    0    0 -0.10500556906E+02  0.60319102132E+02  0.46843702679E+01  0.61405295168E+02  0.10570000000E+00 0. -1.
         13    1    3    3    0    0  0.10500556906E+02 -0.60319102132E+02  0.30779903090E+02  0.68527873045E+02  0.10570000000E+00 0.  1.
<mgrwt>
<rscale>  0 0.12499965E+03</rscale>
<asrwt>0</asrwt>
<pdfrwt beam="2">  1        4 0.72668381E-02 0.12499965E+03</pdfrwt>
<pdfrwt beam="1">  1       -4 0.12722880E-01 0.12499965E+03</pdfrwt>
<totfact> 0.10346018E+04</totfact>
</mgrwt>
</event>
<event>
 5    1  0.1685506E-006  0.1249985E+03  0.7818608E-02  0.1235072E+00
         -4   -1    0    0    0  501 -0.00000000000E+00  0.00000000000E+00  0.10629579193E+03  0.10630527636E+03  0.14200000000E+01 0.  1.
          4   -1    0    0  501    0  0.00000000000E+00 -0.00000000000E+00 -0.36723110585E+02  0.36750554432E+02  0.14200000000E+01 0. -1.
         25    2    1    2    0    0  0.00000000000E+00  0.00000000000E+00  0.69572681347E+02  0.14305583079E+03  0.12499845093E+03 0.  0.
        -13    1    3    3    0    0 -0.43017293466E+02  0.71544065332E+01  0.86025335161E+02  0.96447097064E+02  0.10570000000E+00 0.  1.
         13    1    3    3    0    0  0.43017293466E+02 -0.71544065332E+01 -0.16452653814E+02  0.46608733731E+02  0.10570000000E+00 0. -1.
<mgrwt>
<rscale>  0 0.12499845E+03</rscale>
<asrwt>0</asrwt>
<pdfrwt beam="2">  1        4 0.56525499E-02 0.12499845E+03</pdfrwt>
<pdfrwt beam="1">  1       -4 0.16356039E-01 0.12499845E+03</pdfrwt>
<totfact> 0.10070991E+04</totfact>
</mgrwt>
</event>
<event>
 5    1  0.1685506E-006  0.1249911E+03  0.7818608E-02  0.1235083E+00
         -4   -1    0    0    0  501 -0.00000000000E+00  0.00000000000E+00  0.35445570219E+02  0.35474002427E+02  0.14200000000E+01 0.  1.
          4   -1    0    0  501    0  0.00000000000E+00 -0.00000000000E+00 -0.11011135910E+03  0.11012051491E+03  0.14200000000E+01 0. -1.
         25    2    1    2    0    0  0.00000000000E+00  0.00000000000E+00 -0.74665788882E+02  0.14559451733E+03  0.12499113348E+03 0.  0.
        -13    1    3    3    0    0  0.48278759424E+02  0.37644749455E+02 -0.51961660909E+02  0.80299384493E+02  0.10570000000E+00 0.  1.
         13    1    3    3    0    0 -0.48278759424E+02 -0.37644749455E+02 -0.22704127973E+02  0.65295132840E+02  0.10570000000E+00 0. -1.
<mgrwt>
<rscale>  0 0.12499113E+03</rscale>
<asrwt>0</asrwt>
<pdfrwt beam="2">  1        4 0.16943100E-01 0.12499113E+03</pdfrwt>
<pdfrwt beam="1">  1       -4 0.54560561E-02 0.12499113E+03</pdfrwt>
<totfact> 0.10020924E+04</totfact>
</mgrwt>
</event>
<event>
 5    1  0.1685506E-006  0.1249994E+03  0.7818608E-02  0.1235070E+00
          4   -1    0    0  501    0  0.00000000000E+00  0.00000000000E+00  0.48671272093E+02  0.48691982165E+02  0.14200000000E+01 0. -1.
         -4   -1    0    0    0  501 -0.00000000000E+00 -0.00000000000E+00 -0.80212978249E+02  0.80225546303E+02  0.14200000000E+01 0. -1.
         25    2    1    2    0    0  0.00000000000E+00  0.00000000000E+00 -0.31541706156E+02  0.12891752847E+03  0.12499939967E+03 0.  0.
        -13    1    3    3    0    0  0.77992730682E+01  0.52354577326E+02 -0.50044594583E+02  0.72844375533E+02  0.10570000000E+00 0.  1.
         13    1    3    3    0    0 -0.77992730682E+01 -0.52354577326E+02  0.18502888426E+02  0.56073152934E+02  0.10570000000E+00 0.  1.
<mgrwt>
<rscale>  0 0.12499940E+03</rscale>
<asrwt>0</asrwt>
<pdfrwt beam="1">  1        4 0.74904479E-02 0.12499940E+03</pdfrwt>
<pdfrwt beam="2">  1       -4 0.12343018E-01 0.12499940E+03</pdfrwt>
<totfact> 0.10367860E+04</totfact>
</mgrwt>
</event>
<event>
 5    1  0.1685506E-006  0.1250022E+03  0.7818608E-02  0.1235066E+00
          4   -1    0    0  501    0  0.00000000000E+00  0.00000000000E+00  0.36181809588E+02  0.36209663697E+02  0.14200000000E+01 0. -1.
         -4   -1    0    0    0  501 -0.00000000000E+00 -0.00000000000E+00 -0.10789150372E+03  0.10790084789E+03  0.14200000000E+01 0.  1.
         25    2    1    2    0    0  0.00000000000E+00  0.00000000000E+00 -0.71709694135E+02  0.14411051159E+03  0.12500223725E+03 0.  0.
        -13    1    3    3    0    0 -0.49630087869E+01  0.45865213965E+02 -0.84468644731E+02  0.96245583917E+02  0.10570000000E+00 0.  1.
         13    1    3    3    0    0  0.49630087869E+01 -0.45865213965E+02  0.12758950596E+02  0.47864927672E+02  0.10570000000E+00 0. -1.
<mgrwt>
<rscale>  0 0.12500224E+03</rscale>
<asrwt>0</asrwt>
<pdfrwt beam="1">  1        4 0.55692937E-02 0.12500224E+03</pdfrwt>
<pdfrwt beam="2">  1       -4 0.16601554E-01 0.12500224E+03</pdfrwt>
<totfact> 0.10048586E+04</totfact>
</mgrwt>
</event>
